     6
  Step:   120            Position(A)                                  Velocity(au)
C        -0.02773913     0.04196081    -0.02196205     0.00004469     0.00002566    -0.00000242
N        -0.04341682    -0.05927589     1.34388450     0.00001163    -0.00000500    -0.00010974
H         0.73097597    -0.55689730    -0.63264287    -0.00094933    -0.00150363     0.00053181
H         0.75115828     0.31525243     1.90830377    -0.00111753     0.00135869     0.00028280
H        -0.85327214    -0.52757648     1.83563966     0.00089162    -0.00140137     0.00016016
H        -0.90790658     0.42315597    -0.63265127     0.00048110     0.00131010     0.00057896
