     6
  Step:     0            Position(A)                                  Velocity(au)
C        -0.03960490     0.01290588     0.02388710     0.00008125     0.00007775    -0.00035474
N        -0.03907658    -0.05861000     1.29194004     0.00011157     0.00006096     0.00026996
H         0.88787384    -0.00621472    -0.51579359     0.00031068    -0.00054646    -0.00005310
H         0.82691694    -0.07375388     1.88492057    -0.00078987    -0.00036957    -0.00070366
H        -0.93768047    -0.03149768     1.81619287    -0.00137018    -0.00061610     0.00143945
H        -0.97509194     0.10236642    -0.53117192    -0.00066915    -0.00024146    -0.00020705
     6
  Step:     1            Position(A)                                  Velocity(au)
C        -0.03916996     0.01333445     0.02154449     0.00007737     0.00007939    -0.00050044
N        -0.03846973    -0.05831367     1.29378129     0.00010810     0.00004789     0.00040203
H         0.88990489    -0.00909295    -0.51624256     0.00042643    -0.00050836    -0.00011085
H         0.82252913    -0.07565001     1.88095226    -0.00080213    -0.00032683    -0.00073676
H        -0.94515130    -0.03475548     1.82408175    -0.00134124    -0.00057804     0.00143345
H        -0.97887965     0.10117392    -0.53231557    -0.00070702    -0.00019827    -0.00020942
     6
  Step:     2            Position(A)                                  Velocity(au)
C        -0.03875829     0.01377459     0.01841085     0.00007269     0.00008188    -0.00064164
N        -0.03789368    -0.05808591     1.29633947     0.00010016     0.00003599     0.00053000
H         0.89254023    -0.01177767    -0.51700658     0.00052986    -0.00047554    -0.00016740
H         0.81813922    -0.07733040     1.87685824    -0.00078765    -0.00029108    -0.00074721
H        -0.95235765    -0.03782312     1.83187908    -0.00127276    -0.00054605     0.00140406
H        -0.98282888     0.10019676    -0.53346357    -0.00072738    -0.00016309    -0.00020862
     6
  Step:     3            Position(A)                                  Velocity(au)
C        -0.03837364     0.01423141     0.01451555     0.00006738     0.00008515    -0.00077511
N        -0.03737257    -0.05791946     1.29958719     0.00008785     0.00002548     0.00065080
H         0.89570925    -0.01430230    -0.51807641     0.00061966    -0.00044858    -0.00022131
H         0.81390071    -0.07883870     1.87276690    -0.00074331    -0.00026338    -0.00073311
H        -0.95909386    -0.04073721     1.83946271    -0.00116830    -0.00052020     0.00135225
H        -0.98684784     0.09938736    -0.53460092    -0.00073164    -0.00013649    -0.00020525
     6
  Step:     4            Position(A)                                  Velocity(au)
C        -0.03801904     0.01470880     0.00990645     0.00006155     0.00008884    -0.00089718
N        -0.03692980    -0.05780637     1.30347989     0.00007142     0.00001642     0.00076106
H         0.89933901    -0.01669940    -0.51943472     0.00069542    -0.00042663    -0.00027105
H         0.80998371    -0.08022015     1.86881470    -0.00066685    -0.00024332    -0.00069352
H        -0.96517599    -0.04353066     1.84671576    -0.00103243    -0.00049918     0.00127931
H        -0.99085634     0.09869920    -0.53571558    -0.00072198    -0.00011766    -0.00019984
     6
  Step:     5            Position(A)                                  Velocity(au)
C        -0.03769688     0.01520823     0.00465070     0.00005534     0.00009249    -0.00100432
N        -0.03658727    -0.05773892     1.30795533     0.00005128     0.00000873     0.00085758
H         0.90335561    -0.01899324    -0.52105670     0.00075672    -0.00040796    -0.00031539
H         0.80656850    -0.08151406     1.86514138    -0.00055773    -0.00022956    -0.00062861
H        -0.97044577    -0.04622587     1.85352912    -0.00087056    -0.00048092     0.00118723
H        -0.99478626     0.09809369    -0.53679828    -0.00070044    -0.00010497    -0.00019293
     6
  Step:     6            Position(A)                                  Velocity(au)
C        -0.03740890     0.01572850    -0.00116658     0.00004890     0.00009563    -0.00109349
N        -0.03636439    -0.05771010     1.31293505     0.00002805     0.00000230     0.00093763
H         0.90768219    -0.02119729    -0.52291202     0.00080295    -0.00039074    -0.00035351
H         0.80383457    -0.08275110     1.86188402    -0.00041776    -0.00022057    -0.00053992
H        -0.97477421    -0.04883303     1.85980543    -0.00068883    -0.00046342     0.00107888
H        -0.99857893     0.09754191    -0.53784274    -0.00066871    -0.00009676    -0.00018506
     6
  Step:     7            Position(A)                                  Velocity(au)
C        -0.03715600     0.01626610    -0.00744514     0.00004240     0.00009793    -0.00116249
N        -0.03627701    -0.05771351     1.31832714     0.00000254    -0.00000299     0.00099930
H         0.91223757    -0.02331546    -0.52496707     0.00083358    -0.00037354    -0.00038501
H         0.80194738    -0.08395392     1.85916901    -0.00025140    -0.00021503    -0.00043066
H        -0.97806535    -0.05135203     1.86546336    -0.00049416    -0.00044516     0.00095802
H        -1.00218333     0.09702338    -0.53884537    -0.00062843    -0.00009168    -0.00017670
     6
  Step:     8            Position(A)                                  Velocity(au)
C        -0.03693812     0.01681581    -0.01407369     0.00003605     0.00009916    -0.00121028
N        -0.03633624    -0.05774327     1.32403026    -0.00002424    -0.00000721     0.00104175
H         0.91693745    -0.02534474    -0.52718677     0.00084860    -0.00035549    -0.00040986
H         0.80104332    -0.08513861     1.85710241    -0.00006560    -0.00021193    -0.00030576
H        -0.98026090    -0.05377559     1.87044238    -0.00029411    -0.00042528     0.00082925
H        -1.00555637     0.09652395    -0.53980465    -0.00058146    -0.00008875    -0.00016839
     6
  Step:     9            Position(A)                                  Velocity(au)
C        -0.03675416     0.01737148    -0.02093624     0.00003004     0.00009928    -0.00123739
N        -0.03654727    -0.05779388     1.32993961    -0.00005117    -0.00001046     0.00106558
H         0.92169701    -0.02727810    -0.52953582     0.00084872    -0.00033625    -0.00042826
H         0.80121611    -0.08631628     1.85576063     0.00013084    -0.00021053    -0.00017144
H        -0.98134382    -0.05609271     1.87470708    -0.00009633    -0.00040359     0.00069773
H        -1.00866496     0.09603406    -0.54072242    -0.00053009    -0.00008727    -0.00016083
     6
  Step:    10            Position(A)                                  Velocity(au)
C        -0.03660191     0.01792678    -0.02792059     0.00002458     0.00009838    -0.00124610
N        -0.03690885    -0.05786033     1.33595447    -0.00007716    -0.00001285     0.00107291
H         0.92643491    -0.02910747    -0.53197914     0.00083550    -0.00031601    -0.00044059
H         0.80250747    -0.08749448     1.85518388     0.00032855    -0.00021039    -0.00003440
H        -0.98133890    -0.05829196     1.87825021     0.00009217    -0.00038046     0.00056877
H        -1.01148823     0.09554734    -0.54160437    -0.00047685    -0.00008682    -0.00015475
     6
  Step:    11            Position(A)                                  Velocity(au)
C        -0.03647818     0.01847605    -0.03492743     0.00001981     0.00009668    -0.00124014
N        -0.03741359    -0.05793817     1.34198624    -0.00010132    -0.00001451     0.00106717
H         0.93107803    -0.03082625    -0.53448271     0.00081144    -0.00029530    -0.00044774
H         0.80490503    -0.08867857     1.85537436     0.00051894    -0.00021134     0.00009916
H        -0.98030892    -0.06036448     1.88109323     0.00026587    -0.00035665     0.00044723
H        -1.01401899     0.09505927    -0.54245999    -0.00042430    -0.00008717    -0.00015086
     6
  Step:    12            Position(A)                                  Velocity(au)
C        -0.03637897     0.01901494    -0.04187819     0.00002536     0.00015141    -0.00196142
N        -0.03804915    -0.05802362     1.34796532    -0.00019717    -0.00002496     0.00168647
H         0.93556761    -0.03243108    -0.53701837     0.00124919    -0.00044032    -0.00072294
H         0.80834810    -0.08987304     1.85629994     0.00111417    -0.00034187     0.00035952
H        -0.97834660    -0.06230603     1.88328374     0.00067479    -0.00053376     0.00053994
H        -1.01626369     0.09456624    -0.54330229    -0.00060037    -0.00014144    -0.00023995
     6
  Step:    13            Position(A)                                  Velocity(au)
C        -0.03625091     0.01983986    -0.05248611     0.00002035     0.00013878    -0.00177010
N        -0.03920116    -0.05815621     1.35712427    -0.00020598    -0.00002158     0.00153467
H         0.94270260    -0.03487535    -0.54137546     0.00125306    -0.00041981    -0.00080263
H         0.81505104    -0.09174128     1.85869717     0.00122866    -0.00031542     0.00047335
H        -0.97422620    -0.06524736     1.88603100     0.00075997    -0.00050144     0.00043640
H        -1.01973874     0.09383288    -0.54496124    -0.00062179    -0.00011708    -0.00034080
     6
  Step:    14            Position(A)                                  Velocity(au)
C        -0.03614733     0.02059431    -0.06202294     0.00001668     0.00012652    -0.00158390
N        -0.04039329    -0.05826925     1.36543070    -0.00021085    -0.00001812     0.00138593
H         0.94982815    -0.03720873    -0.54615276     0.00124372    -0.00040073    -0.00086950
H         0.82233091    -0.09346272     1.86168688     0.00131329    -0.00028964     0.00056614
H        -0.96969770    -0.06801275     1.88825020     0.00081705    -0.00047140     0.00035363
H        -1.02334001     0.09323385    -0.54718076    -0.00064269    -0.00009410    -0.00043575
     6
  Step:    15            Position(A)                                  Velocity(au)
C        -0.03606096     0.02128068    -0.07052308     0.00001432     0.00011552    -0.00141433
N        -0.04160224    -0.05836255     1.37290674    -0.00021299    -0.00001477     0.00125039
H         0.95686571    -0.03943878    -0.55127699     0.00122865    -0.00038553    -0.00092972
H         0.83000637    -0.09503964     1.86514417     0.00137413    -0.00026591     0.00064081
H        -0.96492190    -0.07061550     1.89005807     0.00085169    -0.00044681     0.00029308
H        -1.02705751     0.09276133    -0.54992341    -0.00066517    -0.00007302    -0.00052690
     6
  Step:    16            Position(A)                                  Velocity(au)
C        -0.03598474     0.02190605    -0.07808246     0.00001313     0.00010586    -0.00126259
N        -0.04281181    -0.05843699     1.37962878    -0.00021270    -0.00001159     0.00112932
H         0.96377929    -0.04158633    -0.55670958     0.00120926    -0.00037445    -0.00098584
H         0.83793399    -0.09648209     1.86896315     0.00141264    -0.00024400     0.00069901
H        -0.96002687    -0.07308625     1.89157808     0.00086606    -0.00042821     0.00025366
H        -1.03089297     0.09240467    -0.55316364    -0.00068857    -0.00005369    -0.00061528
     6
  Step:    17            Position(A)                                  Velocity(au)
C        -0.03591242     0.02247795    -0.08480255     0.00001295     0.00009727    -0.00112533
N        -0.04400786    -0.05849367     1.38567905    -0.00020968    -0.00000856     0.00101990
H         0.97054202    -0.04367366    -0.56242650     0.00118334    -0.00036661    -0.00103742
H         0.84598291    -0.09779916     1.87304979     0.00142687    -0.00022297     0.00074082
H        -0.95512698    -0.07545848     1.89292693     0.00085974    -0.00041478     0.00023354
H        -1.03484506     0.09215414    -0.55688206    -0.00071037    -0.00003572    -0.00070032
     6
  Step:    18            Position(A)                                  Velocity(au)
C        -0.03583881     0.02300234    -0.09076557     0.00001358     0.00008944    -0.00099891
N        -0.04517501    -0.05853350     1.39112361    -0.00020354    -0.00000566     0.00091894
H         0.97711613    -0.04571827    -0.56840186     0.00114808    -0.00036096    -0.00108296
H         0.85401565    -0.09899504     1.87731260     0.00141443    -0.00020191     0.00076582
H        -0.95033715    -0.07776106     1.89421020     0.00083177    -0.00040547     0.00023085
H        -1.03889926     0.09200209    -0.56105663    -0.00072763    -0.00001883    -0.00078059
     6
  Step:    19            Position(A)                                  Velocity(au)
C        -0.03575972     0.02348352    -0.09603311     0.00001487     0.00008216    -0.00088084
N        -0.04629619    -0.05855727     1.39601054    -0.00019410    -0.00000286     0.00082425
H         0.98344969    -0.04773188    -0.57460200     0.00110164    -0.00035666    -0.00112118
H         0.86188509    -0.10006922     1.88165969     0.00137430    -0.00018024     0.00077404
H        -0.94577551    -0.08001707     1.89552234     0.00078207    -0.00039949     0.00024383
H        -1.04302571     0.09194241    -0.56565803    -0.00073790    -0.00000287    -0.00085463
     6
  Step:    20            Position(A)                                  Velocity(au)
C        -0.03567191     0.02392455    -0.10065259     0.00001665     0.00007530    -0.00076972
N        -0.04735367    -0.05856561     1.40037543    -0.00018143    -0.00000017     0.00073457
H         0.98948156    -0.04972168    -0.58098665     0.00104333    -0.00035319    -0.00115143
H         0.86944155    -0.10101817     1.88600084     0.00130723    -0.00015767     0.00076628
H        -0.94155871    -0.08224513     1.89694705     0.00071178    -0.00039634     0.00027063
H        -1.04718185     0.09196989    -0.57064945    -0.00073944     0.00001224    -0.00092136
     6
  Step:    21            Position(A)                                  Velocity(au)
C        -0.03557303     0.02432781    -0.10466346     0.00001878     0.00006880    -0.00066484
N        -0.04833047    -0.05855913     1.40424683    -0.00016584     0.00000243     0.00064931
H         0.99514792    -0.05169202    -0.58751229     0.00097346    -0.00035026    -0.00117368
H         0.87654224    -0.10183704     1.89025147     0.00121545    -0.00013413     0.00074397
H        -0.93779481    -0.08446097     1.89855670     0.00062323    -0.00039572     0.00030921
H        -1.05131662     0.09207967    -0.57598869    -0.00073127     0.00002652    -0.00098021
     6
  Step:    22            Position(A)                                  Velocity(au)
C        -0.03546156     0.02469530    -0.10810097     0.00002111     0.00006262    -0.00056584
N        -0.04921158    -0.05853837     1.40764975    -0.00014776     0.00000494     0.00056818
H         1.00038745    -0.05364567    -0.59413559     0.00089295    -0.00034770    -0.00118833
H         0.88305845    -0.10252086     1.89433569     0.00110209    -0.00010971     0.00070896
H        -0.93457655    -0.08667844     1.90041120     0.00051974    -0.00039742     0.00035731
H        -1.05537439     0.09226703    -0.58163088    -0.00071295     0.00003998    -0.00103100
     6
  Step:    23            Position(A)                                  Velocity(au)
C        -0.03533668     0.02502888    -0.11099797     0.00002354     0.00005677    -0.00047241
N        -0.04998465    -0.05850385     1.41060755    -0.00012773     0.00000736     0.00049103
H         1.00514446    -0.05558456    -0.60081565     0.00080298    -0.00034547    -0.00119605
H         0.88888006    -0.10306528     1.89818824     0.00097075    -0.00008457     0.00066328
H        -0.93197632    -0.08891005     1.90255682     0.00040527    -0.00040125     0.00041248
H        -1.05929804     0.09252724    -0.58753073    -0.00068447     0.00005261    -0.00107392
     6
  Step:    24            Position(A)                                  Velocity(au)
C        -0.03519820     0.02533031    -0.11338560     0.00002597     0.00005121    -0.00038428
N        -0.05064046    -0.05845604     1.41314263    -0.00010632     0.00000970     0.00041773
H         1.00937006    -0.05751026    -0.60751531     0.00070483    -0.00034351    -0.00119758
H         0.89391778    -0.10346696     1.90175548     0.00082519    -0.00005891     0.00060899
H        -0.93004300    -0.09116701     1.90502539     0.00028415    -0.00040699     0.00047210
H        -1.06303123     0.09285552    -0.59364432    -0.00064611     0.00006440    -0.00110931
     6
  Step:    25            Position(A)                                  Velocity(au)
C        -0.03504640     0.02560127    -0.11529323     0.00002832     0.00004594    -0.00030111
N        -0.05117305    -0.05839541     1.41527667    -0.00008411     0.00001197     0.00034813
H         1.01302271    -0.05942415    -0.61420156     0.00059977    -0.00034181    -0.00119366
H         0.89810361    -0.10372377     1.90499526     0.00066909    -0.00003293     0.00054809
H        -0.92880027    -0.09345920     1.90783371     0.00016088    -0.00041440     0.00053351
H        -1.06651990     0.09324706    -0.59993008    -0.00059833     0.00007535    -0.00113766
     6
  Step:    26            Position(A)                                  Velocity(au)
C        -0.03488197     0.02584339    -0.11674828     0.00003052     0.00004095    -0.00022252
N        -0.05157974    -0.05832236     1.41703044    -0.00006165     0.00001417     0.00028206
H         1.01606803    -0.06132751    -0.62084565     0.00048896    -0.00034035    -0.00118497
H         0.90138994    -0.10383475     1.90787632     0.00050589    -0.00000684     0.00048237
H        -0.92824632    -0.09579491     1.91098344     0.00003993    -0.00042317     0.00059403
H        -1.06971321     0.09369698    -0.60634933    -0.00054171     0.00008545    -0.00115945
     6
  Step:    27            Position(A)                                  Velocity(au)
C        -0.03470593     0.02605820    -0.11777598     0.00003251     0.00003622    -0.00014812
N        -0.05186085    -0.05823731     1.41842369    -0.00003945     0.00001630     0.00021931
H         1.01847822    -0.06322153    -0.62742262     0.00037351    -0.00033909    -0.00117211
H         0.90374795    -0.10380009     1.91037724     0.00033876     0.00001918     0.00041350
H        -0.92835480    -0.09818062     1.91446150    -0.00007450    -0.00043295     0.00065109
H        -1.07256392     0.09420041    -0.61286635    -0.00047684     0.00009468    -0.00117512
     6
  Step:    28            Position(A)                                  Velocity(au)
C        -0.03451959     0.02624715    -0.11839928     0.00003425     0.00003173    -0.00007748
N        -0.05201952    -0.05814064     1.41947500    -0.00001801     0.00001837     0.00015966
H         1.02023142    -0.06510723    -0.63391075     0.00025439    -0.00033800    -0.00115555
H         0.90516599    -0.10362099     1.91248543     0.00017062     0.00004495     0.00034293
H        -0.92907674    -0.10062082     1.91824090    -0.00017856    -0.00044336     0.00070227
H        -1.07502839     0.09475239    -0.61944798    -0.00040434     0.00010305    -0.00118506
     6
  Step:    29            Position(A)                                  Velocity(au)
C        -0.03432449     0.02641158    -0.11863884     0.00003571     0.00002747    -0.00001024
N        -0.05206137    -0.05803277     1.42020169     0.00000228     0.00002036     0.00010289
H         1.02131112    -0.06698550    -0.64029097     0.00013251    -0.00033703    -0.00113568
H         0.90564805    -0.10329957     1.91419618     0.00000420     0.00007031     0.00027202
H        -0.93034329    -0.10311791     1.92228201    -0.00026895    -0.00045401     0.00074540
H        -1.07706667     0.09534797    -0.62606330    -0.00032485     0.00011054    -0.00118958
     6
  Step:    30            Position(A)                                  Velocity(au)
C        -0.03412231     0.02655273    -0.11851320     0.00003685     0.00002340     0.00005397
N        -0.05199419    -0.05791413     1.42061979     0.00002103     0.00002227     0.00004879
H         1.02170574    -0.06885705    -0.64654630     0.00000874    -0.00033615    -0.00111278
H         0.90521267    -0.10283874     1.91551193    -0.00015796     0.00009512     0.00020200
H        -0.93206903    -0.10567215     1.92653422    -0.00034295    -0.00046451     0.00077863
H        -1.07864272     0.09598221    -0.63268325    -0.00023908     0.00011714    -0.00118893
     6
  Step:    31            Position(A)                                  Velocity(au)
C        -0.03391488     0.02667175    -0.11803893     0.00003765     0.00001953     0.00011543
N        -0.05182760    -0.05778516     1.42074409     0.00003794     0.00002410    -0.00000285
H         1.02140829    -0.07072239    -0.65266140    -0.00011608    -0.00033532    -0.00108710
H         0.90389205    -0.10224216     1.91644179    -0.00031338     0.00011925     0.00013407
H        -0.93415570    -0.10828173     1.93093781    -0.00039853    -0.00047448     0.00080047
H        -1.07972446     0.09665021    -0.63928027    -0.00014774     0.00012288    -0.00118332
     6
  Step:    32            Position(A)                                  Velocity(au)
C        -0.03370412     0.02676969    -0.11723100     0.00003809     0.00001583     0.00017439
N        -0.05157279    -0.05764638     1.42058818     0.00005274     0.00002584    -0.00005220
H         1.02041624    -0.07258187    -0.65862214    -0.00024114    -0.00033450    -0.00105881
H         0.90173159    -0.10151412     1.91700120    -0.00045965     0.00014256     0.00006935
H        -0.93649602    -0.11094286     1.93542602    -0.00043436    -0.00048357     0.00080977
H        -1.08028391     0.09734714    -0.64582790    -0.00005161     0.00012774    -0.00117288
     6
  Step:    33            Position(A)                                  Velocity(au)
C        -0.03349200     0.02684753    -0.11610306     0.00003818     0.00001230     0.00023102
N        -0.05124216    -0.05749831     1.42016459     0.00006522     0.00002748    -0.00009944
H         1.01873142    -0.07443569    -0.66441536    -0.00036557    -0.00033366    -0.00102806
H         0.89878942    -0.10065955     1.91721168    -0.00059444     0.00016495     0.00000897
H        -0.93897755    -0.11364994     1.93992715    -0.00044979    -0.00049147     0.00080582
H        -1.08029741     0.09806830    -0.65230055     0.00004850     0.00013177    -0.00115774
     6
  Step:    34            Position(A)                                  Velocity(au)
C        -0.03328052     0.02690619    -0.11466777     0.00003790     0.00000893     0.00028545
N        -0.05084911    -0.05734153     1.41948486     0.00007524     0.00002900    -0.00014470
H         1.01636016    -0.07628394    -0.67002867    -0.00048851    -0.00033279    -0.00099497
H         0.89513617    -0.09968392     1.91710073    -0.00071545     0.00018631    -0.00004599
H        -0.94148650    -0.11639579     1.94436677    -0.00044485    -0.00049789     0.00078829
H        -1.07974583     0.09880910    -0.65867327     0.00015170     0.00013497    -0.00113798
     6
  Step:    35            Position(A)                                  Velocity(au)
C        -0.03307169     0.02694655    -0.11293717     0.00003725     0.00000571     0.00033774
N        -0.05040769    -0.05717666     1.41855973     0.00008268     0.00003041    -0.00018810
H         1.01331341    -0.07812659    -0.67545036    -0.00060906    -0.00033186    -0.00095968
H         0.89085449    -0.09859323     1.91670166    -0.00082052     0.00020653    -0.00009446
H        -0.94391133    -0.11917192     1.94866990    -0.00042023    -0.00050262     0.00075724
H        -1.07861490     0.09956519    -0.66492168     0.00025707     0.00013738    -0.00111371
     6
  Step:    36            Position(A)                                  Velocity(au)
C        -0.03286752     0.02696946    -0.11092299     0.00003624     0.00000263     0.00038787
N        -0.04993238    -0.05700435     1.41739925     0.00008748     0.00003169    -0.00022971
H         1.00960700    -0.07996357    -0.68066945    -0.00072625    -0.00033087    -0.00092232
H         0.88603837    -0.09739394     1.91605332    -0.00090762     0.00022553    -0.00013548
H        -0.94614597    -0.12196877     1.95276295    -0.00037713    -0.00050549     0.00071308
H        -1.07689551     0.10033237    -0.67102192     0.00036359     0.00013905    -0.00108501
     6
  Step:    37            Position(A)                                  Velocity(au)
C        -0.03266997     0.02697576    -0.10863700     0.00003487    -0.00000029     0.00043581
N        -0.04943784    -0.05682531     1.41601299     0.00008964     0.00003284    -0.00026960
H         1.00526182    -0.08179481    -0.68567569    -0.00083911    -0.00032983    -0.00088306
H         0.88079213    -0.09609288     1.91519967    -0.00097500     0.00024324    -0.00016815
H        -0.94809237    -0.12477600     1.95657551    -0.00031723    -0.00050637     0.00065656
H        -1.07458395     0.10110676    -0.67695068     0.00047023     0.00014002    -0.00105201
     6
  Step:    38            Position(A)                                  Velocity(au)
C        -0.03248095     0.02696629    -0.10609125     0.00003316    -0.00000305     0.00048145
N        -0.04893857    -0.05664027     1.41441023     0.00008920     0.00003385    -0.00030778
H         1.00030399    -0.08362026    -0.69045968    -0.00094664    -0.00032873    -0.00084208
H         0.87522876    -0.09469723     1.91418913    -0.00102127     0.00025960    -0.00019175
H        -0.94966300    -0.12758280     1.96004201    -0.00024264    -0.00050523     0.00058869
H        -1.07168225     0.10188474    -0.68268530     0.00057587     0.00014035    -0.00101486
     6
  Step:    39            Position(A)                                  Velocity(au)
C        -0.03230231     0.02694193    -0.10329839     0.00003112    -0.00000565     0.00052466
N        -0.04844870    -0.05644999     1.41260016     0.00008628     0.00003471    -0.00034423
H         0.99476505    -0.08543995    -0.69501307    -0.00104780    -0.00032761    -0.00079960
H         0.86946774    -0.09321432     1.91307347    -0.00104551     0.00027459    -0.00020579
H        -0.95078288    -0.13037819     1.96310325    -0.00015581    -0.00050204     0.00051081
H        -1.06819839     0.10266301    -0.68820396     0.00067939     0.00014010    -0.00097375
     6
  Step:    40            Position(A)                                  Velocity(au)
C        -0.03213578     0.02690357    -0.10027183     0.00002878    -0.00000809     0.00056526
N        -0.04798161    -0.05625527     1.41059210     0.00008102     0.00003542    -0.00037889
H         0.98868195    -0.08725403    -0.69932866    -0.00114162    -0.00032649    -0.00075587
H         0.86363213    -0.09165157     1.91190655    -0.00104738     0.00028820    -0.00021004
H        -0.95139119    -0.13315132     1.96570779    -0.00005945    -0.00049687     0.00042443
H        -1.06414655     0.10343866    -0.69348595     0.00077963     0.00013934    -0.00092893
     6
  Step:    41            Position(A)                                  Velocity(au)
C        -0.03198297     0.02685218    -0.09702597     0.00002616    -0.00001034     0.00060305
N        -0.04754962    -0.05605695     1.40839575     0.00007366     0.00003597    -0.00041168
H         0.98209700    -0.08906282    -0.70340066    -0.00122711    -0.00032540    -0.00071119
H         0.85784541    -0.09001627     1.91074270    -0.00102716     0.00030047    -0.00020460
H        -0.95144257    -0.13589177     1.96781303     0.00004354    -0.00048984     0.00033130
H        -1.05954721     0.10420919    -0.69851190     0.00087541     0.00013815    -0.00088070
     6
  Step:    42            Position(A)                                  Velocity(au)
C        -0.03184536     0.02678874    -0.09357629     0.00002329    -0.00001241     0.00063784
N        -0.04716374    -0.05585590     1.40602135     0.00006448     0.00003636    -0.00044246
H         0.97505766    -0.09086687    -0.70722483    -0.00130338    -0.00032440    -0.00066588
H         0.85222780    -0.08831549     1.90963493    -0.00098584     0.00031146    -0.00018989
H        -0.95090782    -0.13858988     1.96938612     0.00015016    -0.00048111     0.00023326
H        -1.05442712     0.10497254    -0.70326416     0.00096560     0.00013663    -0.00082944
     6
  Step:    43            Position(A)                                  Velocity(au)
C        -0.03172422     0.02671433    -0.08993941     0.00002021    -0.00001427     0.00066942
N        -0.04683328    -0.05565299     1.40347990     0.00005379     0.00003658    -0.00047110
H         0.96761612    -0.09266699    -0.71079869    -0.00136964    -0.00032354    -0.00062028
H         0.84689249    -0.08655589     1.90863299    -0.00092510     0.00032125    -0.00016671
H        -0.94977425    -0.14123697     1.97040463     0.00025742    -0.00047089     0.00013228
H        -1.04881922     0.10572718    -0.70772713     0.00104911     0.00013486    -0.00077557
     6
  Step:    44            Position(A)                                  Velocity(au)
C        -0.03162067     0.02663007    -0.08613315     0.00001695    -0.00001592     0.00069758
N        -0.04656569    -0.05544913     1.40078331     0.00004197     0.00003664    -0.00049741
H         0.95982882    -0.09446431    -0.71412166    -0.00142522    -0.00032290    -0.00057479
H         0.84194172    -0.08474358     1.90778128    -0.00084733     0.00032996    -0.00013624
H        -0.94804557    -0.14382566     1.97085690     0.00036238    -0.00045946     0.00003034
H        -1.04276228     0.10647208    -0.71188759     0.00112494     0.00013296    -0.00071959
     6