 Fermi distribution function

Calculation with static geometry


********************************************************************************
 iSCC Total electronic   Diff electronic      SCC error    
   10   -0.54224365E+01   -0.48849813E-13    0.18628181E-07
********************************************************************************

 Total charge:     1.00000000

 Atomic gross charges (e)
 Atom           Charge
    1       0.14274865
    2      -0.02607912
    3       0.17876766
    4       0.27212270
    5       0.27411705
    6       0.15832305

Nr. of electrons (up):     12.00000000
Atom populations (up)
 Atom       Population
    1       3.85725135
    2       5.02607912
    3       0.82123234
    4       0.72787730
    5       0.72588295
    6       0.84167695

l-shell populations (up)
 Atom Sh.   l       Population
    1   1   0       1.31624050
    1   2   1       2.54101084
    2   1   0       1.42119318
    2   2   1       3.60488594
    3   1   0       0.82123234
    4   1   0       0.72787730
    5   1   0       0.72588295
    6   1   0       0.84167695

Orbital populations (up)
 Atom Sh.   l   m       Population  Label
    1   1   0   0       1.31624050  s
    1   2   1  -1       0.61740885  p_y
    1   2   1   0       0.87355523  p_z
    1   2   1   1       1.05004677  p_x
    2   1   0   0       1.42119318  s
    2   2   1  -1       1.34142746  p_y
    2   2   1   0       1.10292705  p_z
    2   2   1   1       1.16053143  p_x
    3   1   0   0       0.82123234  s
    4   1   0   0       0.72787730  s
    5   1   0   0       0.72588295  s
    6   1   0   0       0.84167695  s

Fermi level:                        -0.4951158923 H          -13.4728 eV
Band energy:                        -8.9528605922 H         -243.6197 eV
TS:                                  0.0000000000 H            0.0000 eV
Band free energy (E-TS):            -8.9528605922 H         -243.6197 eV
Extrapolated E(0K):                 -8.9528605922 H         -243.6197 eV
Input / Output electrons (q):     12.0000000000     12.0000000000

Energy H0:                          -5.5562509639 H         -151.1933 eV
Energy SCC:                          0.1338144421 H            3.6413 eV
Total Electronic energy:            -5.4224365218 H         -147.5520 eV
Repulsive energy:                    0.1891643142 H            5.1474 eV
Total energy:                       -5.2332722076 H         -142.4046 eV
Extrapolated to 0:                  -5.2332722076 H         -142.4046 eV
Total Mermin free energy:           -5.2332722076 H         -142.4046 eV
Force related energy:               -5.2332722076 H         -142.4046 eV

SCC converged

Excitation Energy:                   0.1583858539 H            4.3099 eV

Total Forces
    1      0.003328234212     -0.001205036954      0.009196950340
    2     -0.005390725128      0.009882283648     -0.030926923306
    3     -0.010709783445      0.001821848782      0.006033387804
    4     -0.002754557728     -0.006687553231      0.007915050817
    5      0.008621858200      0.000525737770      0.002788052755
    6      0.006904973889     -0.004337280015      0.004993481590

Maximal derivative component:        0.309269E-01 au


