    14
  Step:   600            Position(A)                                  Velocity(au)
C        -5.95799473    -0.61715264     0.19967032    -0.00008820     0.00008990     0.00043737
C        -4.71619341    -1.00028568    -0.27663755    -0.00024109     0.00005481    -0.00021247
H        -6.04765929     0.46464364     0.73518430    -0.00178164     0.00058140     0.00001179
H        -6.89183894    -1.13737549     0.24564316    -0.00002185    -0.00113559     0.00015836
H        -4.05740923    -1.87375525    -0.59242305     0.00158333    -0.00033172    -0.00011332
C        -3.87530264     0.28635636    -0.22740560     0.00048680     0.00023666    -0.00079841
C        -2.53800481     0.60417240     0.23134262     0.00027349     0.00026965     0.00063092
H        -4.39842015     1.28738486    -0.47630062    -0.00057681    -0.00089154    -0.00033169
H        -1.79541383    -0.00691369     0.88256477    -0.00037063     0.00168281     0.00137491
C        -1.94617173     1.83646852     0.14927419     0.00060454    -0.00073625     0.00014256
H        -2.38598305     2.78150350     0.15410829    -0.00029100    -0.00007746    -0.00061232
N        -0.53206158     1.76475989     0.22782672    -0.00080783     0.00004572    -0.00000335
H         0.07875673     2.65087139     0.04534825    -0.00031454     0.00035072     0.00063204
H        -0.27591526     0.72915255    -0.05444796     0.00065949     0.00020170    -0.00345588
