 Fermi distribution function

Calculation with static geometry


********************************************************************************
 iSCC Total electronic   Diff electronic      SCC error    
   10   -0.54306776E+01   -0.45297099E-13    0.24393757E-07
********************************************************************************

 Total charge:     1.00000000

 Atomic gross charges (e)
 Atom           Charge
    1       0.15348245
    2      -0.03246642
    3       0.17697600
    4       0.26487029
    5       0.28043679
    6       0.15670090

Nr. of electrons (up):     12.00000000
Atom populations (up)
 Atom       Population
    1       3.84651755
    2       5.03246642
    3       0.82302400
    4       0.73512971
    5       0.71956321
    6       0.84329910

l-shell populations (up)
 Atom Sh.   l       Population
    1   1   0       1.29693589
    1   2   1       2.54958167
    2   1   0       1.41527982
    2   2   1       3.61718660
    3   1   0       0.82302400
    4   1   0       0.73512971
    5   1   0       0.71956321
    6   1   0       0.84329910

Orbital populations (up)
 Atom Sh.   l   m       Population  Label
    1   1   0   0       1.29693589  s
    1   2   1  -1       0.61348577  p_y
    1   2   1   0       0.88647444  p_z
    1   2   1   1       1.04962146  p_x
    2   1   0   0       1.41527982  s
    2   2   1  -1       1.31525242  p_y
    2   2   1   0       1.13244866  p_z
    2   2   1   1       1.16948551  p_x
    3   1   0   0       0.82302400  s
    4   1   0   0       0.73512971  s
    5   1   0   0       0.71956321  s
    6   1   0   0       0.84329910  s

Fermi level:                        -0.4934254163 H          -13.4268 eV
Band energy:                        -8.9797730501 H         -244.3521 eV
TS:                                  0.0000000000 H            0.0000 eV
Band free energy (E-TS):            -8.9797730501 H         -244.3521 eV
Extrapolated E(0K):                 -8.9797730501 H         -244.3521 eV
Input / Output electrons (q):     12.0000000000     12.0000000000

Energy H0:                          -5.5656710241 H         -151.4496 eV
Energy SCC:                          0.1349934586 H            3.6734 eV
Total Electronic energy:            -5.4306775655 H         -147.7763 eV
Repulsive energy:                    0.2023756242 H            5.5069 eV
Total energy:                       -5.2283019413 H         -142.2693 eV
Extrapolated to 0:                  -5.2283019413 H         -142.2693 eV
Total Mermin free energy:           -5.2283019413 H         -142.2693 eV
Force related energy:               -5.2283019413 H         -142.2693 eV

SCC converged

Excitation Energy:                   0.1515796303 H            4.1247 eV

Total Forces
    1      0.011429802974      0.001092448017     -0.011416864702
    2     -0.010210166533     -0.012134390986     -0.000817151730
    3     -0.008009108731     -0.002979872816      0.003949769675
    4      0.000123045114      0.009101421927      0.008858547734
    5      0.009977903334     -0.001021528632     -0.000774935434
    6     -0.003311476158      0.005941922491      0.000200634457

Maximal derivative component:        0.121344E-01 au


