 Fermi distribution function

Calculation with static geometry


********************************************************************************
 iSCC Total electronic   Diff electronic      SCC error    
   10   -0.54289741E+01   -0.17319479E-12    0.27283521E-06
********************************************************************************

 Total charge:     1.00000000

 Atomic gross charges (e)
 Atom           Charge
    1       0.22457421
    2      -0.11209303
    3       0.14263436
    4       0.30165675
    5       0.27301763
    6       0.17021007

Nr. of electrons (up):     12.00000000
Atom populations (up)
 Atom       Population
    1       3.77542579
    2       5.11209303
    3       0.85736564
    4       0.69834325
    5       0.72698237
    6       0.82978993

l-shell populations (up)
 Atom Sh.   l       Population
    1   1   0       1.27749825
    1   2   1       2.49792754
    2   1   0       1.39982616
    2   2   1       3.71226686
    3   1   0       0.85736564
    4   1   0       0.69834325
    5   1   0       0.72698237
    6   1   0       0.82978993

Orbital populations (up)
 Atom Sh.   l   m       Population  Label
    1   1   0   0       1.27749825  s
    1   2   1  -1       0.56824974  p_y
    1   2   1   0       0.90494759  p_z
    1   2   1   1       1.02473021  p_x
    2   1   0   0       1.39982616  s
    2   2   1  -1       1.28890090  p_y
    2   2   1   0       1.11818146  p_z
    2   2   1   1       1.30518451  p_x
    3   1   0   0       0.85736564  s
    4   1   0   0       0.69834325  s
    5   1   0   0       0.72698237  s
    6   1   0   0       0.82978993  s

Fermi level:                        -0.4822885659 H          -13.1237 eV
Band energy:                        -8.9575383149 H         -243.7470 eV
TS:                                  0.0000000000 H            0.0000 eV
Band free energy (E-TS):            -8.9575383149 H         -243.7470 eV
Extrapolated E(0K):                 -8.9575383149 H         -243.7470 eV
Input / Output electrons (q):     12.0000000000     12.0000000000

Energy H0:                          -5.5632743217 H         -151.3844 eV
Energy SCC:                          0.1343001874 H            3.6545 eV
Total Electronic energy:            -5.4289741343 H         -147.7299 eV
Repulsive energy:                    0.2275910689 H            6.1931 eV
Total energy:                       -5.2013830654 H         -141.5368 eV
Extrapolated to 0:                  -5.2013830654 H         -141.5368 eV
Total Mermin free energy:           -5.2013830654 H         -141.5368 eV
Force related energy:               -5.2013830654 H         -141.5368 eV

SCC converged

Excitation Energy:                   0.1065129677 H            2.8984 eV

Total Forces
    1     -0.015900556177     -0.002749066655     -0.054500119602
    2      0.002933884917     -0.007001156214      0.046165485106
    3      0.004176790785      0.014239734648      0.002951527478
    4     -0.006443241408     -0.008213074902      0.005192244913
    5      0.010314593651      0.011534849171      0.001562312863
    6      0.004918528232     -0.007811286047     -0.001371450758

Maximal derivative component:        0.545001E-01 au


