|===============================================================================
|
|  DFTB+ release 20.1
|
|  Copyright (C) 2006 - 2020  DFTB+ developers group
|
|===============================================================================
|
|  When publishing results obtained with DFTB+, please cite the following
|  reference:
|
|  * DFTB+, a software package for efficient approximate density functional
|    theory based atomistic simulations, J. Chem. Phys. 152, 124101 (2020).
|    [doi: 10.1063/1.5143190]
|
|  You should also cite additional publications crediting the parametrization
|  data you use. Please consult the documentation of the SK-files for the
|  references.
|
|===============================================================================

Reading input file 'dftb_in.hsd'
Parser version: 8

--------------------------------------------------------------------------------
Reading SK-files:
Done.


Processed input in HSD format written to 'dftb_pin.hsd'

Starting initialization...
--------------------------------------------------------------------------------
WARNING!
-> Excited state forces are not implemented yet for fractional occupations, kT=  0.3158E-02K
OpenMP threads:              1
Chosen random seed:          433435638
Mode:                        Static calculation
Self consistent charges:     Yes
SCC-tolerance:                 0.100000E-05
Max. scc iterations:                    100
Shell resolved Hubbard:      No
Spin polarisation:           No
Nr. of up electrons:             6.000000
Nr. of down electrons:           6.000000
Periodic boundaries:         No
Electronic solver:           Relatively robust
Mixer:                       Broyden mixer
Mixing parameter:                  0.200000
Maximal SCC-cycles:                     100
Nr. of chrg. vec. in memory:              0
Electronic temperature:        0.100000E-07 H      0.272114E-06 eV
Initial charges:             Set automatically (system chrg:   0.100E+01)
Included shells:             C:  s, p
                             N:  s, p
                             H:  s
Extra options:
                             Mulliken analysis
                             Force calculation
Force type                   original
                             Eigenvector printing

--------------------------------------------------------------------------------

***  Geometry step: 0

 iSCC Total electronic   Diff electronic      SCC error    
    1   -0.54213058E+01    0.00000000E+00    0.73062585E+00
    2   -0.54254545E+01   -0.41487294E-02    0.50705400E+00
    3   -0.54287297E+01   -0.32751511E-02    0.61360683E-01
    4   -0.54289184E+01   -0.18874015E-03    0.42206059E-01
    5   -0.54289733E+01   -0.54893683E-04    0.10208613E-01
    6   -0.54289741E+01   -0.77656338E-06    0.14528545E-02
    7   -0.54289741E+01   -0.27056385E-07    0.11104176E-03
    8   -0.54289741E+01   -0.41651482E-09    0.30811900E-04
    9   -0.54289741E+01   -0.30384584E-10    0.22108868E-05
   10   -0.54289741E+01   -0.17319479E-12    0.27283521E-06
>> Charges saved for restart in charges.bin

Total Energy:                       -5.0948700977 H         -138.6385 eV
Extrapolated to 0:                  -5.2013830654 H         -141.5368 eV
Total Mermin free energy:           -5.0948700977 H         -138.6385 eV
Force related energy:               -5.2013830654 H         -141.5368 eV

--------------------------------------------------------------------------------
DFTB+ running times                          cpu [s]             wall clock [s]
--------------------------------------------------------------------------------
SCC                                    +     0.01  ( 46.6%)      0.04  ( 58.7%)
Post-SCC processing                    +     0.01  ( 46.6%)      0.02  ( 34.9%)
--------------------------------------------------------------------------------
Missing                                +     0.00  (  6.9%)      0.00  (  6.3%)
Total                                  =     0.02  (100.0%)      0.06  (100.0%)
--------------------------------------------------------------------------------
