     6
  Step:   120            Position(A)                                  Velocity(au)
C        -0.03876765    -0.03341322    -0.00762426     0.00013050     0.00003109     0.00038304
N        -0.05458739    -0.10339794     1.32728710    -0.00007944     0.00011839    -0.00036578
H         0.70565915     0.74809005    -0.38586351    -0.00102015     0.00076815     0.00023345
H         0.80103652    -0.28304648     1.89685818    -0.00056706    -0.00177152    -0.00039675
H        -0.58076601     0.73764991     1.72596244     0.00098576     0.00068873     0.00034403
H        -0.91834319    -0.03743856    -0.69851754     0.00015029    -0.00170111     0.00033791
