     6
  Step:     0            Position(A)                                  Velocity(au)
C        -0.04037398     0.00925301     0.00682645    -0.00005539    -0.00003782    -0.00004892
N        -0.04153897    -0.06168473     1.31090911     0.00019571    -0.00008630     0.00011210
H         0.91441467     0.02428425    -0.47412149     0.00067368     0.00015842    -0.00061615
H         0.88010826    -0.08973283     1.80001697    -0.00144917     0.00065262    -0.00074471
H        -0.96310159    -0.00164570     1.84066376    -0.00124218     0.00036955     0.00048045
H        -0.98602030     0.14425022    -0.57271678    -0.00004196     0.00046944    -0.00009446
     6
  Step:     1            Position(A)                                  Velocity(au)
C        -0.04070693     0.00904100     0.00625006    -0.00006557    -0.00003978    -0.00016142
N        -0.04048784    -0.06218664     1.31179505     0.00018628    -0.00009709     0.00021065
H         0.91844186     0.02529088    -0.47769971     0.00078870     0.00020949    -0.00068537
H         0.87207179    -0.08604325     1.79600356    -0.00146828     0.00069643    -0.00071153
H        -0.96958293     0.00048280     1.84320531    -0.00111486     0.00040771     0.00044193
H        -0.98616914     0.14692706    -0.57310984    -0.00001289     0.00050966    -0.00004896
     6
  Step:     2            Position(A)                                  Velocity(au)
C        -0.04109128     0.00881786     0.00506062    -0.00007403    -0.00004186    -0.00027248
N        -0.03950111    -0.06274686     1.31321360     0.00017211    -0.00010753     0.00030616
H         0.92304279     0.02657600    -0.48161916     0.00088203     0.00025982    -0.00074036
H         0.86404575    -0.08211409     1.79223311    -0.00144326     0.00073975    -0.00065468
H        -0.97529772     0.00281453     1.84549837    -0.00096336     0.00044342     0.00039079
H        -0.98616135     0.14982572    -0.57325238     0.00001495     0.00055010    -0.00000344
     6
  Step:     3            Position(A)                                  Velocity(au)
C        -0.04151702     0.00858298     0.00326834    -0.00008055    -0.00004401    -0.00038098
N        -0.03860440    -0.06336329     1.31514536     0.00015332    -0.00011751     0.00039743
H         0.92809381     0.02813401    -0.48580138     0.00095189     0.00030873    -0.00078089
H         0.85627833    -0.07794819     1.78883944    -0.00137187     0.00078227    -0.00057285
H        -0.98012486     0.00533515     1.84748170    -0.00079167     0.00047619     0.00032979
H        -0.98600554     0.15294673    -0.57314753     0.00004082     0.00059028     0.00004087
     6
  Step:     4            Position(A)                                  Velocity(au)
C        -0.04197310     0.00833600     0.00088956    -0.00008495    -0.00004622    -0.00048567
N        -0.03782252    -0.06403332     1.31756476     0.00013013    -0.00012692     0.00048328
H         0.93346416     0.02995598    -0.49016846     0.00099736     0.00035559    -0.00080729
H         0.84902637    -0.07354972     1.78596145    -0.00125340     0.00082368    -0.00046571
H        -0.98396503     0.00802797     1.84910890    -0.00060395     0.00050559     0.00026161
H        -0.98571443     0.15628815    -0.57280490     0.00006392     0.00062968     0.00008280
     6
  Step:     5            Position(A)                                  Velocity(au)
C        -0.04244767     0.00807665    -0.00205256    -0.00008711    -0.00004843    -0.00058515
N        -0.03717876    -0.06475380     1.32044008     0.00010292    -0.00013567     0.00056253
H         0.93902064     0.03202981    -0.49464590     0.00101836     0.00039981    -0.00082036
H         0.84254632    -0.06892414     1.78373726    -0.00108921     0.00086368    -0.00033421
H        -0.98674158     0.01087429     1.85034787    -0.00040466     0.00053125     0.00018895
H        -0.98530525     0.15984538    -0.57224037     0.00008335     0.00066776     0.00012118
     6
  Step:     6            Position(A)                                  Velocity(au)
C        -0.04292840     0.00780486    -0.00552735    -0.00008698    -0.00005064    -0.00067791
N        -0.03669389    -0.06552108     1.32373360     0.00007230    -0.00014364     0.00063403
H         0.94463182     0.03434042    -0.49916474     0.00101555     0.00044079    -0.00082118
H         0.83708172    -0.06407829     1.78229640    -0.00088322     0.00090193    -0.00018090
H        -0.98840261     0.01385386     1.85118094    -0.00019869     0.00055291     0.00011448
H        -0.98480037     0.16361100    -0.57147599     0.00009814     0.00070393     0.00015489
     6
  Step:     7            Position(A)                                  Velocity(au)
C        -0.04340269     0.00752065    -0.00949609    -0.00008453    -0.00005280    -0.00076239
N        -0.03638494    -0.06633097     1.32740179     0.00003910    -0.00015073     0.00069671
H         0.95017151     0.03686977    -0.50366254     0.00099012     0.00047797    -0.00081090
H         0.83284847    -0.05902083     1.78175091    -0.00064217     0.00093796    -0.00001002
H        -0.98892328     0.01694527     1.85160493     0.00000857     0.00057037     0.00004097
H        -0.98422764     0.16757462    -0.57053965     0.00010730     0.00073758     0.00018289
     6
  Step:     8            Position(A)                                  Velocity(au)
C        -0.04385799     0.00722418    -0.01391179    -0.00007981    -0.00005489    -0.00083703
N        -0.03626383    -0.06717875     1.33139570     0.00000444    -0.00015683     0.00074958
H         0.95552081     0.03959695    -0.50808271     0.00094363     0.00051078    -0.00079046
H         0.83001934    -0.05376296     1.78218624    -0.00037563     0.00097116     0.00017262
H        -0.98830837     0.02012655     1.85163146     0.00021132     0.00058357    -0.00002884
H        -0.98362033     0.17172266    -0.56946462     0.00010992     0.00076809     0.00020427
     6
  Step:     9            Position(A)                                  Velocity(au)
C        -0.04428208     0.00691577    -0.01871938    -0.00007293    -0.00005689    -0.00090041
N        -0.03633599    -0.06805909     1.33566150    -0.00003037    -0.00016183     0.00079185
H         0.96056943     0.04249810    -0.51237264     0.00087794     0.00053870    -0.00076051
H         0.82870940    -0.04831953     1.78365297    -0.00009553     0.00100075     0.00035984
H        -0.98659469     0.02337571     1.85128716     0.00040341     0.00059260    -0.00009216
H        -0.98301645     0.17603822    -0.56828878     0.00010529     0.00079482     0.00021831
     6
  Step:    10            Position(A)                                  Velocity(au)
C        -0.04466345     0.00659590    -0.02385637    -0.00006409    -0.00005874    -0.00095132
N        -0.03659930    -0.06896611     1.34014130    -0.00006390    -0.00016564     0.00082295
H         0.96521728     0.04554661    -0.51648220     0.00079547     0.00056129    -0.00072190
H         0.82896429    -0.04271017     1.78616046     0.00018457     0.00102578     0.00054369
H        -0.98385285     0.02667149     1.85061361     0.00057858     0.00059768    -0.00014633
H        -0.98245741     0.18050101    -0.56705352     0.00009304     0.00081719     0.00022454
     6
  Step:    11            Position(A)                                  Velocity(au)
C        -0.04499178     0.00626525    -0.02925404    -0.00005356    -0.00006044    -0.00098896
N        -0.03704360    -0.06989339     1.34477459    -0.00009468    -0.00016820     0.00084270
H         0.96937831     0.04871366    -0.52036682     0.00069930     0.00057831    -0.00067595
H         0.83075330    -0.03696034     1.78967361     0.00045066     0.00104527     0.00071612
H        -0.98018765     0.02999429     1.84966678     0.00073080     0.00059930    -0.00018890
H        -0.98198614     0.18508760    -0.56580224     0.00007318     0.00083479     0.00022286
     6
  Step:    12            Position(A)                                  Velocity(au)
C        -0.04525832     0.00592470    -0.03483972    -0.00004171    -0.00006195    -0.00101317
N        -0.03765077    -0.07083416     1.34950021    -0.00012137    -0.00016952     0.00085142
H         0.97298360     0.05196929    -0.52398928     0.00059299     0.00058982    -0.00062432
H         0.83396923    -0.03110146     1.79411363     0.00068968     0.00105843     0.00086988
H        -0.97573663     0.03332731     1.84851573     0.00085475     0.00059822    -0.00021781
H        -0.98164473     0.18977211    -0.56457849     0.00004618     0.00084744     0.00021352
     6
  Step:    13            Position(A)                                  Velocity(au)
C        -0.04545639     0.00557522    -0.04054015    -0.00002894    -0.00006327    -0.00102456
N        -0.03839558    -0.07178171     1.35425894    -0.00014291    -0.00016968     0.00085005
H         0.97598387     0.05528389    -0.52732141     0.00048046     0.00059622    -0.00056896
H         0.83843592    -0.02517001     1.79936363     0.00089103     0.00106486     0.00099940
H        -0.97066621     0.03665816     1.84724054     0.00094638     0.00059554    -0.00023156
H        -0.98147173     0.19452762    -0.56342375     0.00001298     0.00085538     0.00019722
     6
  Step:    14            Position(A)                                  Velocity(au)
C        -0.04558164     0.00521783    -0.04628590    -0.00001570    -0.00006445    -0.00102465
N        -0.03924737    -0.07272981     1.35899678    -0.00015865    -0.00016890     0.00084013
H         0.97835123     0.05863019    -0.53034560     0.00036567     0.00059839    -0.00051201
H         0.84392362    -0.01920501     1.80527877     0.00104772     0.00106481     0.00110147
H        -0.96516389     0.03998055     1.84592883     0.00100348     0.00059267    -0.00022940
H        -0.98149977     0.19932822    -0.56237519    -0.00002517     0.00085931     0.00017500
     6
  Step:    15            Position(A)                                  Velocity(au)
C        -0.04563223     0.00485336    -0.05201603    -0.00000241    -0.00006555    -0.00101572
N        -0.04017238    -0.07367333     1.36366821    -0.00016836    -0.00016747     0.00082372
H         0.98007925     0.06198569    -0.53305578     0.00025221     0.00059756    -0.00045560
H         0.85017012    -0.01324441     1.81169985     0.00115691     0.00105918     0.00117551
H        -0.95942748     0.04329594     1.84467129     0.00102594     0.00059129    -0.00021139
H        -0.98175366     0.20415171    -0.56146382    -0.00006684     0.00086042     0.00014812
     6
  Step:    16            Position(A)                                  Velocity(au)
C        -0.04560863     0.00448233    -0.05768224     0.00001059    -0.00006666    -0.00100047
N        -0.04113632    -0.07460881     1.36823890    -0.00017225    -0.00016576     0.00080311
H         0.98118104     0.06533477    -0.53545739     0.00014304     0.00059524    -0.00040164
H         0.85690410    -0.00732107     1.81846789     0.00121959     0.00104941     0.00122325
H        -0.95365294     0.04661476     1.84355704     0.00101546     0.00059314    -0.00017822
H        -0.98224973     0.20898204    -0.56071331    -0.00011063     0.00086014     0.00011789
     6
  Step:    17            Position(A)                                  Velocity(au)
C        -0.04551329     0.00410474    -0.06325106     0.00002303    -0.00006788    -0.00098156
N        -0.04210669    -0.07553477     1.37268696    -0.00017080    -0.00016412     0.00078045
H         0.98168551     0.06867002    -0.53756604     0.00004022     0.00059291    -0.00035159
H         0.86386577    -0.00145983     1.82543664     0.00123943     0.00103705     0.00124794
H        -0.94802419     0.04995673     1.84266999     0.00097484     0.00059985    -0.00013094
H        -0.98299603     0.21381087    -0.56013992    -0.00015529     0.00085991     0.00008550
     6
  Step:    18            Position(A)                                  Velocity(au)
C        -0.04535009     0.00372009    -0.06870361     0.00003471    -0.00006929    -0.00096114
N        -0.04305418    -0.07645167     1.37700212    -0.00016461    -0.00016285     0.00075740
H         0.98163263     0.07199224    -0.53940522    -0.00005495     0.00059185    -0.00030643
H         0.87082087     0.00432339     1.83248024     0.00122132     0.00102338     0.00125324
H        -0.94270702     0.05335014     1.84208683     0.00090727     0.00061271    -0.00007077
H        -0.98399342     0.21863744    -0.55975329    -0.00019974     0.00086076     0.00005189
     6
  Step:    19            Position(A)                                  Velocity(au)
C        -0.04512394     0.00332747    -0.07403273     0.00004549    -0.00007092    -0.00094057
N        -0.04395323    -0.07736150     1.38118313    -0.00015425    -0.00016209     0.00073497
H         0.98106911     0.07530917    -0.54100343    -0.00014168     0.00059291    -0.00026664
H         0.87756599     0.01001996     1.83949496     0.00117016     0.00100904     0.00124244
H        -0.93784682     0.05682990     1.84187608     0.00081589     0.00063251     0.00000094
H        -0.98523659     0.22346653    -0.55955789    -0.00024296     0.00086315     0.00001776
     6
  Step:    20            Position(A)                                  Velocity(au)
C        -0.04484055     0.00292575    -0.07923864     0.00005523    -0.00007276    -0.00092044
N        -0.04478186    -0.07826719     1.38523425    -0.00014025    -0.00016190     0.00071357
H         0.98004567     0.07863326    -0.54239172    -0.00021940     0.00059655    -0.00023238
H         0.88392741     0.01562529     1.84639639     0.00109031     0.00099408     0.00121809
H        -0.93356855     0.06043467     1.84209740     0.00070380     0.00065948     0.00008268
H        -0.98671468     0.22830530    -0.55955435    -0.00028394     0.00086690    -0.00001633
     6
  Step:    21            Position(A)                                  Velocity(au)
C        -0.04450637     0.00251385    -0.08432467     0.00006377    -0.00007478    -0.00090074
N        -0.04552140    -0.07917184     1.38916188    -0.00012311    -0.00016224     0.00069315
H         0.97861594     0.08197949    -0.54360181    -0.00028746     0.00060289    -0.00020366
H         0.88975738     0.02113534     1.85311506     0.00098561     0.00097807     0.00118206
H        -0.92997722     0.06420389     1.84280057     0.00057436     0.00069336     0.00017256
H        -0.98841142     0.23315984    -0.55974050    -0.00032160     0.00087135    -0.00004995
     6
  Step:    22            Position(A)                                  Velocity(au)
C        -0.04412868     0.00209092    -0.08929401     0.00007093    -0.00007691    -0.00088115
N        -0.04615618    -0.08007829     1.39297218    -0.00010335    -0.00016297     0.00067348
H         0.97683662     0.08536362    -0.54466526    -0.00034515     0.00061191    -0.00018041
H         0.89493019     0.02654393     1.85959220     0.00085960     0.00096034     0.00113582
H        -0.92715672     0.06817496     1.84402372     0.00043149     0.00073349     0.00026824
H        -0.99030483     0.23803251    -0.56011193    -0.00035484     0.00087553    -0.00008269
     6
  Step:    23            Position(A)                                  Velocity(au)
C        -0.04371568     0.00165643    -0.09414799     0.00007652    -0.00007908    -0.00086125
N        -0.04667362    -0.08098871     1.39666999    -0.00008156    -0.00016398     0.00065426
H         0.97476812     0.08880124    -0.54561309    -0.00039165     0.00062351    -0.00016257
H         0.89934039     0.03184151     1.86577746     0.00071588     0.00094023     0.00108075
H        -0.92516686     0.07238106     1.84579096     0.00027987     0.00077891     0.00036693
H        -0.99236725     0.24292045    -0.56066235    -0.00038258     0.00087840    -0.00011420
     6
  Step:    24            Position(A)                                  Velocity(au)
C        -0.04327645     0.00121027    -0.09888555     0.00008040    -0.00008121    -0.00084064
N        -0.04706448    -0.08190450     1.40025850    -0.00005836    -0.00016511     0.00063524
H         0.97247484     0.09230758    -0.54647575    -0.00042619     0.00063765    -0.00015005
H         0.90290279     0.03701509     1.87162825     0.00055825     0.00091718     0.00101830
H        -0.92403988     0.07684955     1.84811012     0.00012483     0.00082847     0.00046549
H        -0.99456556     0.24781503    -0.56138377    -0.00040388     0.00087895    -0.00014419
     6
  Step:    25            Position(A)                                  Velocity(au)
C        -0.04282096     0.00075265    -0.10350341     0.00008240    -0.00008326    -0.00081903
N        -0.04732312    -0.08282625     1.40373956    -0.00003444    -0.00016624     0.00061629
H         0.97002507     0.09589760    -0.54728304    -0.00044810     0.00065434    -0.00014277
H         0.90555315     0.04204877     1.87711004     0.00039069     0.00089082     0.00095008
H        -0.92377765     0.08160101     1.85097129    -0.00002791     0.00088090     0.00056061
H        -0.99686199     0.25270221    -0.56226698    -0.00041799     0.00087630    -0.00017244
     6
  Step:    26            Position(A)                                  Velocity(au)
C        -0.04235982     0.00028409    -0.10799654     0.00008244    -0.00008518    -0.00079621
N        -0.04744760    -0.08375381     1.40711412    -0.00001048    -0.00016725     0.00059730
H         0.96749020     0.09958648    -0.54806393    -0.00045690     0.00067368    -0.00014055
H         0.90724883     0.04692459     1.88219699     0.00021720     0.00086088     0.00087778
H        -0.92435035     0.08664879     1.85434636    -0.00017260     0.00093493     0.00064903
H        -0.99921526     0.25756308    -0.56330199    -0.00042440     0.00086969    -0.00019887
     6
  Step:    27            Position(A)                                  Velocity(au)
C        -0.04190412    -0.00019469    -0.11235863     0.00008044    -0.00008695    -0.00077204
N        -0.04743966    -0.08468632     1.41038256     0.00001287    -0.00016802     0.00057824
H         0.96494361     0.10339004    -0.54884625    -0.00045238     0.00069587    -0.00014318
H         0.90796880     0.05162326     1.88687242     0.00004179     0.00082726     0.00080318
H        -0.92569729     0.09199906     1.85818960    -0.00030387     0.00098933     0.00072772
H        -1.00158200     0.26237460    -0.56447880    -0.00042289     0.00085848    -0.00022356
     6
  Step:    28            Position(A)                                  Velocity(au)
C        -0.04146521    -0.00068285    -0.11658250     0.00007640    -0.00008854    -0.00074642
N        -0.04730451    -0.08562236     1.41354486     0.00003500    -0.00016847     0.00055908
H         0.96245925     0.10732535    -0.54965622    -0.00043458     0.00072120    -0.00015032
H         0.90771355     0.05612467     1.89112931    -0.00013168     0.00078986     0.00072813
H        -0.92772969     0.09765131     1.86243947    -0.00041701     0.00104301     0.00079406
H        -1.00391828     0.26711037    -0.56578821    -0.00041353     0.00084217    -0.00024673
     6
  Step:    29            Position(A)                                  Velocity(au)
C        -0.04105439    -0.00117949    -0.12066031     0.00007034    -0.00008999    -0.00071927
N        -0.04705038    -0.08656001     1.41660069     0.00005542    -0.00016852     0.00053977
H         0.96011021     0.11141126    -0.55051806    -0.00040380     0.00075009    -0.00016158
H         0.90650428     0.06040812     1.89497066    -0.00029950     0.00074863     0.00065449
H        -0.93033531     0.10359940     1.86702112    -0.00050833     0.00109511     0.00084595
H        -1.00618125     0.27174121    -0.56722291    -0.00039668     0.00082035    -0.00026884
     6
  Step:    30            Position(A)                                  Velocity(au)
C        -0.04068281    -0.00168383    -0.12458348     0.00006230    -0.00009130    -0.00069046
N        -0.04668800    -0.08749695     1.41954912     0.00007373    -0.00016812     0.00052018
H         0.95796754     0.11566917    -0.55145359    -0.00036050     0.00078311    -0.00017654
H         0.90438197     0.06445220     1.89840962    -0.00045823     0.00070341     0.00058414
H        -0.93338425     0.10983295     1.87184962    -0.00057527     0.00114507     0.00088194
H        -1.00833080     0.27623567    -0.56877875    -0.00037302     0.00079268    -0.00029063
     6
  Step:    31            Position(A)                                  Velocity(au)
C        -0.04036123    -0.00219527    -0.12834231     0.00005237    -0.00009254    -0.00065971
N        -0.04623003    -0.08843052     1.42238818     0.00008966    -0.00016722     0.00050005
H         0.95609935     0.12012402    -0.55248216    -0.00030525     0.00082102    -0.00019478
H         0.90140609     0.06823420     1.90146976    -0.00060468     0.00065392     0.00051902
H        -0.93673564     0.11633927     1.87683347    -0.00061647     0.00119269     0.00090119
H        -1.01033137     0.28056041    -0.57045641    -0.00034356     0.00075888    -0.00031317
     6
  Step:    32            Position(A)                                  Velocity(au)
C        -0.04010001    -0.00271365    -0.13192479     0.00004063    -0.00009382    -0.00062643
N        -0.04569031    -0.08935775     1.42511373     0.00010303    -0.00016574     0.00047885
H         0.95457065     0.12480553    -0.55362109    -0.00023853     0.00086484    -0.00021609
H         0.89765304     0.07172903     1.90418528    -0.00073597     0.00059958     0.00046106
H        -0.94024435     0.12310535     1.88187809    -0.00063176     0.00123811     0.00090347
H        -1.01215393     0.28468053    -0.57226377    -0.00030974     0.00071876    -0.00033809
     6
  Step:    33            Position(A)                                  Velocity(au)
C        -0.03990898    -0.00323952    -0.13531458     0.00002718    -0.00009531    -0.00058956
N        -0.04508324    -0.09027528     1.42771783     0.00011383    -0.00016361     0.00045567
H         0.95344449     0.12974980    -0.55488731    -0.00016042     0.00091586    -0.00024079
H         0.89321466     0.07490755     1.90660142    -0.00084951     0.00053956     0.00041230
H        -0.94376724     0.13011957     1.88688914    -0.00062211     0.00128162     0.00088918
H        -1.01377879     0.28856030    -0.57421935    -0.00027365     0.00067241    -0.00036774
     6
  Step:    34            Position(A)                                  Velocity(au)
C        -0.03979746    -0.00377466    -0.13848749     0.00001217    -0.00009732    -0.00054719
N        -0.04442320    -0.09117903     1.43018612     0.00012207    -0.00016066     0.00042902
H         0.95278487     0.13500050    -0.55630151    -0.00007041     0.00097527    -0.00027033
H         0.88819662     0.07773523     1.90877482    -0.00094294     0.00047308     0.00037474
H        -0.94716947     0.13737185     1.89177616    -0.00058952     0.00132307     0.00085950
H        -1.01520007     0.29216559    -0.57635729    -0.00023841     0.00062081    -0.00040546
     6
  Step:    35            Position(A)                                  Velocity(au)
C        -0.03977354    -0.00432287    -0.14140605    -0.00000400    -0.00010026    -0.00049651
N        -0.04372434    -0.09206378     1.43249386     0.00012771    -0.00015662     0.00039672
H         0.95266061     0.14060682    -0.55789675     0.00003226     0.00104292    -0.00030808
H         0.88271752     0.08017408     1.91077316    -0.00101402     0.00040072     0.00035000
H        -0.95032997     0.14484844     1.89645742    -0.00053680     0.00136029     0.00081664
H        -1.01643286     0.29547143    -0.57873307    -0.00020853     0.00056724    -0.00045505
     6
  Step:    36            Position(A)                                  Velocity(au)
C        -0.03984200    -0.00489079    -0.14401477    -0.00002038    -0.00010461    -0.00043488
N        -0.04300147    -0.09292251     1.43460248     0.00013047    -0.00015121     0.00035669
H         0.95314404     0.14661042    -0.55973110     0.00014645     0.00111499    -0.00035875
H         0.87690842     0.08219610     1.91267110    -0.00106074     0.00032691     0.00033831
H        -0.95314526     0.15251479     1.90086709    -0.00046710     0.00138735     0.00076414
H        -1.01752141     0.29848022    -0.58142303    -0.00018886     0.00051864    -0.00051835
     6
  Step:    37            Position(A)                                  Velocity(au)
C        -0.04000039    -0.00548724    -0.14624659    -0.00003556    -0.00011047    -0.00036229
N        -0.04227208    -0.09374692     1.43646408     0.00012981    -0.00014443     0.00030872
H         0.95429074     0.15301752    -0.56188996     0.00026623     0.00118371    -0.00042485
H         0.87091068     0.08381283     1.91453885    -0.00108196     0.00026018     0.00033783
H        -0.95552914     0.16029076     1.90496289    -0.00038301     0.00139619     0.00070599
H        -1.01853500     0.30124430    -0.58450276    -0.00018138     0.00048341    -0.00059203
     6
  Step:    38            Position(A)                                  Velocity(au)
C        -0.04023773    -0.00612014    -0.14804637    -0.00004836    -0.00011747    -0.00028223
N        -0.04155693    -0.09452977     1.43803799     0.00012535    -0.00013661     0.00025509
H         0.95610668     0.15978302    -0.56445893     0.00038201     0.00124162    -0.00050367
H         0.86486818     0.08509139     1.91643055    -0.00107808     0.00020848     0.00034570
H        -0.95740744     0.16805189     1.90872349    -0.00028635     0.00138187     0.00064487
H        -1.01953986     0.30385973    -0.58801128    -0.00018326     0.00046617    -0.00066869
     6
  Step:    39            Position(A)                                  Velocity(au)
C        -0.04053836    -0.00679404    -0.14938621    -0.00006741    -0.00014468    -0.00023049
N        -0.04087760    -0.09526659     1.43930181     0.00013558    -0.00014837     0.00023007
H         0.95854042     0.16682992    -0.56749300     0.00056122     0.00148708    -0.00068209
H         0.85891759     0.08613204     1.91838460    -0.00121607     0.00020301     0.00041613
H        -0.95871468     0.17566343     1.91213678    -0.00020688     0.00155603     0.00067335
H        -1.02057370     0.30643026    -0.59194161    -0.00021907     0.00053971    -0.00085802
     6
  Step:    40            Position(A)                                  Velocity(au)
C        -0.04091072    -0.00759126    -0.15063094    -0.00006732    -0.00014165    -0.00021906
N        -0.04016946    -0.09608527     1.44055912     0.00011875    -0.00014624     0.00022303
H         0.96161390     0.17497083    -0.57131971     0.00053858     0.00144797    -0.00068453
H         0.85226622     0.08740721     1.92064097    -0.00116586     0.00024864     0.00040282
H        -0.95948724     0.18409451     1.91569364    -0.00006623     0.00148407     0.00059921
H        -1.02162682     0.30945979    -0.59656802    -0.00015441     0.00053950    -0.00080649
     6
  Step:    41            Position(A)                                  Velocity(au)
C        -0.04128707    -0.00836932    -0.15182244    -0.00006870    -0.00013804    -0.00021008
N        -0.03955701    -0.09689297     1.44178219     0.00010131    -0.00014435     0.00021687
H         0.96453000     0.18293293    -0.57510566     0.00050645     0.00142228    -0.00067023
H         0.84595199     0.08889714     1.92286439    -0.00109590     0.00028124     0.00040406
H        -0.95945124     0.19216789     1.91880067     0.00008172     0.00142637     0.00051349
H        -1.02229094     0.31243010    -0.60091062    -0.00008153     0.00052100    -0.00075763
     6
  Step:    42            Position(A)                                  Velocity(au)
C        -0.04167454    -0.00912607    -0.15296682    -0.00007108    -0.00013417    -0.00020151
N        -0.03904300    -0.09769033     1.44297044     0.00008343    -0.00014254     0.00021013
H         0.96724503     0.19078505    -0.57877192     0.00046716     0.00140741    -0.00064388
H         0.84008100     0.09053428     1.92513365    -0.00100796     0.00030341     0.00041857
H        -0.95857866     0.19995412     1.92140313     0.00023291     0.00137961     0.00041966
H        -1.02253333     0.31525269    -0.60499203    -0.00000450     0.00048921    -0.00071323
     6
  Step:    43            Position(A)                                  Velocity(au)
C        -0.04207719    -0.00986077    -0.15406239    -0.00007396    -0.00013024    -0.00019242
N        -0.03862960    -0.09847741     1.44411797     0.00006523    -0.00014074     0.00020222
H         0.96972289     0.19857746    -0.58226295     0.00042159     0.00140010    -0.00060894
H         0.83474765     0.09226982     1.92751718    -0.00090441     0.00031832     0.00044424
H        -0.95686227     0.20750338     1.92346557     0.00038394     0.00134056     0.00032089
H        -1.02234091     0.31786804    -0.60883877     0.00007377     0.00044873    -0.00067343
     6
  Step:    44            Position(A)                                  Velocity(au)
C        -0.04249643    -0.01057329    -0.15510498    -0.00007692    -0.00012630    -0.00018258
N        -0.03831815    -0.09925423     1.44521749     0.00004689    -0.00013895     0.00019304
H         0.97192980     0.20634310    -0.58553851     0.00037004     0.00139761    -0.00056760
H         0.83003115     0.09407152     1.93007013    -0.00078818     0.00032845     0.00047862
H        -0.95431232     0.21485057     1.92496883     0.00053187     0.00130705     0.00021978
H        -1.02171361     0.32023904    -0.61247521     0.00015131     0.00040294    -0.00063771
     6