    14
  Step:     0            Position(A)                                  Velocity(au)
C        -6.03024105    -0.78721552    -0.21510872    -0.00009182    -0.00012781    -0.00002398
C        -4.70509395    -0.74808149     0.15637708    -0.00023741    -0.00023592    -0.00005378
H        -6.51513657     0.18993717    -0.51205731     0.00012132     0.00035307    -0.00018693
H        -6.70865283    -1.63462541    -0.04204379     0.00038101    -0.00094480     0.00087175
H        -4.13185661    -1.66314575     0.42174235     0.00007995     0.00052841    -0.00046265
C        -3.90749779     0.47596563     0.06031372     0.00009650     0.00034235     0.00022112
C        -2.55076803     0.50204382     0.26358452    -0.00018376     0.00000295    -0.00023423
H        -4.32359155     1.45179155    -0.30835786     0.00041014     0.00034057     0.00007906
H        -1.93600518    -0.40161537     0.51864815    -0.00023713     0.00051325     0.00009841
C        -1.78427827     1.67251025    -0.03478654     0.00020959    -0.00018974    -0.00007012
H        -2.35263808     2.57091101    -0.42146109    -0.00006676    -0.00039344     0.00028064
N        -0.55985637     1.81090658     0.16021500     0.00016679     0.00014026    -0.00001143
H        -0.06869872     2.69005145    -0.03947570    -0.00021555    -0.00094489     0.00063701
H        -0.01533568     0.98352505     0.42515390    -0.00032536     0.00107933     0.00075995
    14
  Step:     1            Position(A)                                  Velocity(au)
C        -6.03142155    -0.78848659    -0.21534657    -0.00012466    -0.00010560    -0.00001917
C        -4.70745820    -0.75057714     0.15574430    -0.00019452    -0.00021755    -0.00006240
H        -6.51334886     0.19240123    -0.51407874     0.00020393     0.00008809    -0.00018167
H        -6.70399586    -1.64484292    -0.03274395     0.00047394    -0.00090570     0.00082334
H        -4.13165760    -1.65685239     0.41672413    -0.00003473     0.00060129    -0.00044982
C        -3.90695656     0.47964365     0.06265948     0.00000261     0.00032933     0.00020803
C        -2.55219312     0.50207928     0.26104763    -0.00007761     0.00000358    -0.00022956
H        -4.31941576     1.45428516    -0.30694321     0.00034834     0.00011984     0.00017885
H        -1.93963956    -0.39529473     0.51985046    -0.00042044     0.00062673     0.00012503
C        -1.78301726     1.67041923    -0.03572113     0.00002247    -0.00019196    -0.00010080
H        -2.35270089     2.56556306    -0.41785279     0.00005300    -0.00057533     0.00037340
N        -0.55722407     1.81249557     0.16020693     0.00030919     0.00014810     0.00001025
H        -0.07123421     2.67899973    -0.03234685    -0.00021677    -0.00101200     0.00065175
H        -0.01875688     0.99604098     0.43344081    -0.00027473     0.00117024     0.00076643
    14
  Step:     2            Position(A)                                  Velocity(au)
C        -6.03296812    -0.78952575    -0.21552815    -0.00015779    -0.00008580    -0.00001348
C        -4.70934937    -0.75284086     0.15501202    -0.00015168    -0.00019327    -0.00007211
H        -6.51067520     0.19186426    -0.51603164     0.00027943    -0.00018739    -0.00017624
H        -6.69828440    -1.65443927    -0.02403160     0.00057111    -0.00083457     0.00076475
H        -4.13261646    -1.64999133     0.41190172    -0.00012863     0.00062908    -0.00042581
C        -3.90744068     0.48317038     0.06486471    -0.00009008     0.00031404     0.00019568
C        -2.55246580     0.50212205     0.25856253     0.00002543     0.00000461    -0.00022493
H        -4.31597094     1.45441318    -0.30444522     0.00027419    -0.00008539     0.00027450
H        -1.94520311    -0.38790451     0.52138331    -0.00058423     0.00070317     0.00016032
C        -1.78378671     1.66831071    -0.03699171    -0.00015700    -0.00019298    -0.00013066
H        -2.35147865     2.55832460    -0.41329227     0.00016217    -0.00073139     0.00045130
N        -0.55309228     1.81414661     0.16043916     0.00043724     0.00015104     0.00003187
H        -0.07344105     2.66791209    -0.02521743    -0.00015066    -0.00094330     0.00063589
H        -0.02134600     1.00912622     0.44192095    -0.00017055     0.00117880     0.00079783
    14
  Step:     3            Position(A)                                  Velocity(au)
C        -6.03487346    -0.79036355    -0.21564136    -0.00018924    -0.00006912    -0.00000646
C        -4.71077641    -0.75480531     0.15416669    -0.00011041    -0.00016277    -0.00008318
H        -6.50723587     0.18830176    -0.51793436     0.00034016    -0.00045680    -0.00017434
H        -6.69150182    -1.66310084    -0.01601357     0.00066687    -0.00073873     0.00069700
H        -4.13447171    -1.64309007     0.40740881    -0.00019645     0.00060706    -0.00038886
C        -3.90892727     0.48651381     0.06694030    -0.00017975     0.00029523     0.00018455
C        -2.55163676     0.50218018     0.25612691     0.00012232     0.00000666    -0.00022067
H        -4.31341740     1.45241699    -0.30093793     0.00018332    -0.00026230     0.00036092
H        -1.95242078    -0.37991155     0.52335785    -0.00071768     0.00073191     0.00020720
C        -1.78645204     1.66619747    -0.03857951    -0.00032014    -0.00019292    -0.00015799
H        -2.34915319     2.54956261    -0.40797984     0.00024871    -0.00084622     0.00050751
N        -0.54765869     1.81579983     0.16090407     0.00054463     0.00014828     0.00005219
H        -0.07453010     2.65836333    -0.01843549    -0.00001273    -0.00073147     0.00058903
H        -0.02248794     1.02182954     0.45089483    -0.00001086     0.00110075     0.00085767
    14
  Step:     4            Position(A)                                  Velocity(au)
C        -6.03710820    -0.79103795    -0.21566957    -0.00021705    -0.00005623     0.00000226
C        -4.71176469    -0.75640168     0.15319235    -0.00007206    -0.00012608    -0.00009576
H        -6.50323345     0.18187082    -0.51984575     0.00037878    -0.00070360    -0.00017973
H        -6.68369530    -1.67060044    -0.00878341     0.00075540    -0.00062643     0.00062147
H        -4.13691414    -1.63671071     0.40339470    -0.00023517     0.00053416    -0.00033807
C        -3.91137307     0.48962915     0.06890200    -0.00026471     0.00027179     0.00017502
C        -2.54978973     0.50226783     0.25373486     0.00021033     0.00001025    -0.00021709
H        -4.31196054     1.44867476    -0.29654938     0.00007196    -0.00039898     0.00043348
H        -1.96090383    -0.37189257     0.52591629    -0.00081140     0.00070421     0.00026829
C        -1.79079030     1.66409018    -0.04044813    -0.00045980    -0.00019213    -0.00018133
H        -2.34603755     2.53981192    -0.40218943     0.00030101    -0.00090483     0.00053558
N        -0.54117755     1.81739044     0.16158093     0.00062773     0.00013988     0.00007011
H        -0.07371957     2.65190986    -0.01233116     0.00018951    -0.00039023     0.00051535
H        -0.02158353     1.03320713     0.46068414     0.00019876     0.00094287     0.00094560
    14
  Step:     5            Position(A)                                  Velocity(au)
C        -6.03962178    -0.79159365    -0.21559198    -0.00023937    -0.00004769     0.00001304
C        -4.71235282    -0.75756345     0.15207175    -0.00003760    -0.00008356    -0.00010991
H        -6.49894942     0.17290927    -0.52186632     0.00038833    -0.00091157    -0.00019624
H        -6.67497608    -1.67680528    -0.00241767     0.00083096    -0.00050649     0.00053988
H        -4.13961654    -1.63140425     0.40001278    -0.00024481     0.00041385    -0.00027374
C        -3.91471822     0.49245978     0.07076928    -0.00034381     0.00024268     0.00016736
C        -2.54703548     0.50240437     0.25137766     0.00028749     0.00001578    -0.00021436
H        -4.31184322     1.44368861    -0.29145479    -0.00006273    -0.00048524     0.00048844
H        -1.97017166    -0.36450551     0.52922728    -0.00085868     0.00061489     0.00034554
C        -1.79651104     1.66199429    -0.04254652    -0.00057097    -0.00019121    -0.00019951
H        -2.34256812     2.52976763    -0.39626292     0.00030885    -0.00089388     0.00053000
N        -0.53392597     1.81885996     0.16243789     0.00068605     0.00012695     0.00008476
H        -0.07038413     2.64982639    -0.00716120     0.00043514     0.00004269     0.00042388
H        -0.01813977     1.04245664     0.47158157     0.00044448     0.00072428     0.00105626
    14
  Step:     6            Position(A)                                  Velocity(au)
C        -6.04234484    -0.79208116    -0.21538434    -0.00025466    -0.00004395     0.00002615
C        -4.71258720    -0.75822975     0.15078785    -0.00000740    -0.00003587    -0.00012553
H        -6.49473796     0.16192846    -0.52413888     0.00036267    -0.00106566    -0.00022765
H        -6.66551640    -1.68168078     0.00302740     0.00088827    -0.00038788     0.00045416
H        -4.14226980    -1.62765701     0.39740608    -0.00022887     0.00025474    -0.00019755
C        -3.91889452     0.49493817     0.07256331    -0.00041681     0.00020695     0.00016158
C        -2.54350031     0.50261297     0.24904530     0.00035310     0.00002350    -0.00021251
H        -4.31333292     1.43805918    -0.28586380    -0.00022210    -0.00051406     0.00052360
H        -1.97968911    -0.35844074     0.53347559    -0.00085686     0.00046404     0.00043963
C        -1.80328147     1.65990718    -0.04481290    -0.00065106    -0.00019095    -0.00021178
H        -2.33928078     2.52025669    -0.39059460     0.00026523    -0.00080402     0.00048727
N        -0.52616890     1.82016769     0.16343521     0.00072206     0.00011147     0.00009561
H        -0.06420015     2.65284389    -0.00305792     0.00069231     0.00050958     0.00032735
H        -0.01185974     1.04905216     0.48379194     0.00070538     0.00047476     0.00117923
    14
  Step:     7            Position(A)                                  Velocity(au)
C        -6.04519306    -0.79255523    -0.21501988    -0.00026184    -0.00004530     0.00004175
C        -4.71251481    -0.75834819     0.14932548     0.00001885     0.00001615    -0.00014237
H        -6.49101524     0.14959587    -0.52684657     0.00029703    -0.00115329    -0.00027729
H        -6.65554343    -1.68529098     0.00751787     0.00092270    -0.00027948     0.00036641
H        -4.14462341    -1.62583129     0.39569102    -0.00019432     0.00007055    -0.00011262
C        -3.92383678     0.49698726     0.07430415    -0.00048455     0.00016385     0.00015744
C        -2.53931068     0.50291852     0.24672869     0.00040790     0.00003342    -0.00021132
H        -4.31670212     1.43244255    -0.27999998    -0.00040546    -0.00048303     0.00053890
H        -1.98891703    -0.35435366     0.53884505    -0.00080842     0.00025888     0.00054932
C        -1.81075432     1.65781684    -0.04717970    -0.00069998    -0.00019213    -0.00021787
H        -2.33676579     2.51217820    -0.38560286     0.00016831    -0.00063315     0.00040717
N        -0.51812948     1.82129857     0.16452965     0.00074036     0.00009581     0.00010258
H        -0.05523849     2.66097434     0.00000012     0.00092500     0.00094413     0.00023955
H        -0.00270826     1.05284291     0.49737956     0.00095656     0.00023001     0.00130026
    14
  Step:     8            Position(A)                                  Velocity(au)
C        -6.04807307    -0.79307213    -0.21447093    -0.00026044    -0.00005165     0.00005980
C        -4.71217481    -0.75787640     0.14767313     0.00004221     0.00007154    -0.00016002
H        -6.48823989     0.13669796    -0.53020514     0.00018901    -0.00116657    -0.00034739
H        -6.64533049    -1.68779499     0.01104329     0.00093057    -0.00018957     0.00027885
H        -4.14652096    -1.62611353     0.39494224    -0.00015075    -0.00012118    -0.00002333
C        -3.92949495     0.49852272     0.07600761    -0.00054866     0.00011295     0.00015445
C        -2.53457666     0.50334411     0.24442234     0.00045381     0.00004510    -0.00021036
H        -4.32220307     1.42749202    -0.27407440    -0.00060951    -0.00039580     0.00053681
H        -1.99737476    -0.35277732     0.54549309    -0.00072138     0.00001453     0.00067081
C        -1.81859480     1.65570396    -0.04957930    -0.00071994    -0.00019507    -0.00021808
H        -2.33559875     2.50640525    -0.38168701     0.00002334    -0.00038957     0.00029385
N        -0.50997213     1.82226380     0.16567945     0.00074646     0.00008209     0.00010603
H        -0.04396393     2.67349848     0.00218273     0.00110151     0.00128670     0.00017227
H         0.00906691     1.05408408     0.51223766     0.00117356     0.00002494     0.00140385
    14
  Step:     9            Position(A)                                  Velocity(au)
C        -6.05089071    -0.79368510    -0.21371164    -0.00025079    -0.00006246     0.00007998
C        -4.71159134    -0.75678318     0.14582480     0.00006412     0.00012905    -0.00017787
H        -6.48688025     0.12407486    -0.53444637     0.00003969    -0.00110467    -0.00043840
H        -6.63518536    -1.68943829     0.01361834     0.00090932    -0.00012535     0.00019393
H        -4.14792128    -1.62848238     0.39518070    -0.00010872    -0.00030138     0.00006499
C        -3.93583986     0.49945827     0.07768299    -0.00061050     0.00005466     0.00015203
C        -2.52938268     0.50390523     0.24212672     0.00049268     0.00005737    -0.00020904
H        -4.33003639     1.42378366    -0.26825634    -0.00082798    -0.00026315     0.00052225
H        -2.00469863    -0.35403574     0.55352023    -0.00060825    -0.00024689     0.00079751
C        -1.82650435     1.65354923    -0.05195061    -0.00071484    -0.00019911    -0.00021331
H        -2.33625509     2.50365571    -0.37917423    -0.00015678    -0.00009351     0.00015623
N        -0.50179918     1.82309434     0.16684917     0.00074562     0.00007162     0.00010666
H        -0.03114077     2.68912340     0.00376876     0.00120110     0.00149664     0.00013282
H         0.02296571     1.05338847     0.52809157     0.00133660    -0.00011286     0.00147626
    14
  Step:    10            Position(A)                                  Velocity(au)
C        -6.05355949    -0.79443854    -0.21272131    -0.00023382    -0.00007661     0.00010165
C        -4.71077212    -0.75505322     0.14378190     0.00008564     0.00018679    -0.00019522
H        -6.48737158     0.11253108    -0.53979600    -0.00014547    -0.00097580    -0.00054818
H        -6.62543748    -1.69053730     0.01528597     0.00085774    -0.00009230     0.00011431
H        -4.14889952    -1.63270671     0.39636409    -0.00007798    -0.00045216     0.00014661
C        -3.94285076     0.49971856     0.07933350    -0.00066953    -0.00000913     0.00014974
C        -2.52379844     0.50459922     0.23984921     0.00052458     0.00006791    -0.00020671
H        -4.34031669     1.42173516    -0.26264908    -0.00105181    -0.00010263     0.00050173
H        -2.01068135    -0.35817852     0.56294017    -0.00048386    -0.00049926     0.00092032
C        -1.83423337     1.65134809    -0.05424595    -0.00068908    -0.00020197    -0.00020507
H        -2.33902871     2.50435956    -0.37826920    -0.00035287     0.00022416     0.00000699
N        -0.49366021     1.82383071     0.16801281     0.00074179     0.00006485     0.00010538
H        -0.01768752     2.70624033     0.00508847     0.00121649     0.00155739     0.00012332
H         0.03830750     1.05161495     0.54453377     0.00143345    -0.00016728     0.00150793
    14
  Step:    11            Position(A)                                  Velocity(au)
C        -6.05600592    -0.79536109    -0.21148775    -0.00021082    -0.00009237     0.00012399
C        -4.70971772    -0.75269680     0.14155390     0.00010695     0.00024220    -0.00021140
H        -6.49006275     0.10272744    -0.54643886    -0.00035635    -0.00079770    -0.00067147
H        -6.61642057    -1.69145756     0.01611901     0.00077634    -0.00009362     0.00004243
H        -4.14962714    -1.63837427     0.39838815    -0.00006583    -0.00055927     0.00021626
C        -3.95048713     0.49925852     0.08095893    -0.00072329    -0.00007512     0.00014732
C        -2.51790640     0.50539091     0.23760452     0.00054763     0.00007345    -0.00020267
H        -4.35304678     1.42153848    -0.25728008    -0.00127016     0.00006374     0.00048242
H        -2.01528391    -0.36495801     0.57365391    -0.00036268    -0.00071654     0.00102877
C        -1.84157931     1.64913085    -0.05643692    -0.00064649    -0.00019994    -0.00019518
H        -2.34397483     2.50855972    -0.37902142    -0.00054272     0.00052694    -0.00013956
N        -0.48557100     1.82451309     0.16915465     0.00073715     0.00006144     0.00010306
H        -0.00452772     2.72319434     0.00646663     0.00115218     0.00147421     0.00014146
H         0.05432515     1.04972888     0.56108043     0.00146021    -0.00013454     0.00149452
    14
  Step:    12            Position(A)                                  Velocity(au)
C        -6.05817167    -0.79645932    -0.21000884    -0.00018335    -0.00010758     0.00014600
C        -4.70843247    -0.74975455     0.13915723     0.00012746     0.00029273    -0.00022585
H        -6.49516750     0.09507994    -0.55448570    -0.00057893    -0.00059589    -0.00079983
H        -6.60845365    -1.69258551     0.01621418     0.00066757    -0.00012964    -0.00002014
H        -4.15033959    -1.64494189     0.40109516    -0.00007636    -0.00061346     0.00026996
C        -3.95867419     0.49807523     0.08255638    -0.00076910    -0.00013951     0.00014443
C        -2.51181804     0.50620618     0.23541547     0.00055958     0.00007083    -0.00019617
H        -4.36810391     1.42312957    -0.25209522    -0.00147174     0.00021315     0.00047156
H        -2.01861577    -0.37385417     0.58544649    -0.00025639    -0.00087695     0.00111306
C        -1.84837668     1.64697391    -0.05851599    -0.00059024    -0.00018916    -0.00018541
H        -2.35090164     2.51588746    -0.38132225    -0.00070547     0.00077990    -0.00027014
N        -0.47753364     1.82517478     0.17026739     0.00073230     0.00006065     0.00010030
H         0.00751872     2.73849147     0.00818308     0.00102065     0.00126774     0.00018220
H         0.07025234     1.04867172     0.57722937     0.00142032    -0.00002161     0.00143687
    14
  Step:    13            Position(A)                                  Velocity(au)
C        -6.06001704    -0.79771452    -0.20829382    -0.00015329    -0.00012001     0.00016662
C        -4.70692926    -0.74629284     0.13661310     0.00014641     0.00033635    -0.00023822
H        -6.50272802     0.08969130    -0.56393678    -0.00079697    -0.00039965    -0.00092231
H        -6.60181630    -1.69429360     0.01567848     0.00053621    -0.00019714    -0.00007310
H        -4.15129761    -1.65179480     0.40429409    -0.00011026    -0.00061081     0.00030552
C        -3.96731275     0.49620654     0.08411867    -0.00080539    -0.00019891     0.00014066
C        -2.50566450     0.50694056     0.23331295     0.00055932     0.00005799    -0.00018657
H        -4.38524394     1.42620149    -0.24696371    -0.00164631     0.00032566     0.00047538
H        -2.02089293    -0.38414292     0.59800417    -0.00017233    -0.00096608     0.00116572
C        -1.85449202     1.64499260    -0.06049310    -0.00052313    -0.00016685    -0.00017707
H        -2.35940823     2.52562161    -0.38493125    -0.00082525     0.00095636    -0.00037482
N        -0.46955048     1.82584001     0.17134895     0.00072691     0.00006168     0.00009746
H         0.01780088     2.75092854     0.01045261     0.00083858     0.00096734     0.00023932
H         0.08539728     1.04925601     0.59251474     0.00132282     0.00015669     0.00134015
    14
  Step:    14            Position(A)                                  Velocity(au)
C        -6.06152526    -0.79908478    -0.20636369    -0.00012284    -0.00012789     0.00018485
C        -4.70522955    -0.74239620     0.13394578     0.00016299     0.00037168    -0.00024829
H        -6.51260268     0.08633689    -0.57466297    -0.00099438    -0.00023676    -0.00102728
H        -6.59672296    -1.69689842     0.01461499     0.00038927    -0.00028915    -0.00011734
H        -4.15275173    -1.65830449     0.40777905    -0.00016524    -0.00055246     0.00032228
C        -3.97629361     0.49372366     0.08563368    -0.00083155    -0.00025062     0.00013563
C        -2.49958190     0.50747477     0.23133382     0.00054678     0.00003424    -0.00017351
H        -4.40412018     1.43025401    -0.24169537    -0.00178589     0.00038691     0.00049801
H        -2.02238589    -0.39498904     0.61094889    -0.00011326    -0.00097821     0.00118266
C        -1.85982120     1.64332378    -0.06238976    -0.00044765    -0.00013186    -0.00017094
H        -2.36895548     2.53680962    -0.38952211    -0.00089298     0.00104152    -0.00044807
N        -0.46163110     1.82652420     0.17239954     0.00072012     0.00006376     0.00009464
H         0.02586423     2.75965388     0.01341868     0.00062410     0.00060593     0.00030631
H         0.09919163     1.05209960     0.60654770     0.00118032     0.00038100     0.00121268
    14
  Step:    15            Position(A)                                  Velocity(au)
C        -6.06270439    -0.80051242    -0.20424991    -0.00009420    -0.00013025     0.00019984
C        -4.70336345    -0.73816174     0.13118130     0.00017641     0.00039772    -0.00025597
H        -6.52448195     0.08451168    -0.58641047    -0.00115758    -0.00012874    -0.00110462
H        -6.59330029    -1.70061935     0.01311136     0.00023543    -0.00039525    -0.00015454
H        -4.15491262    -1.66388081     0.41134455    -0.00023669    -0.00044381     0.00032082
C        -3.98550447     0.49072376     0.08708573    -0.00084742    -0.00029257     0.00012911
C        -2.49370262     0.50768953     0.22951707     0.00052258     0.00000016    -0.00015696
H        -4.42431370     1.43466584    -0.23606884    -0.00188547     0.00038943     0.00054093
H        -2.02337065    -0.40554311     0.62387706    -0.00007809    -0.00091558     0.00116312
C        -1.86428523     1.64210781    -0.06423271    -0.00036587    -0.00008465    -0.00016723
H        -2.37894398     2.54840695    -0.39473367    -0.00090632     0.00103283    -0.00048876
N        -0.45379645     1.82723496     0.17341933     0.00071076     0.00006621     0.00009173
H         0.03145434     2.76418448     0.01715376     0.00039527     0.00021715     0.00037685
H         0.11121908     1.05759106     0.61904435     0.00100734     0.00062982     0.00106483
    14
  Step:    16            Position(A)                                  Velocity(au)
C        -6.06358603    -0.80193434    -0.20199171    -0.00006935    -0.00012708     0.00021107
C        -4.70137025    -0.73369532     0.12834603     0.00018581     0.00041380    -0.00026126
H        -6.53792687     0.08352043    -0.59882870    -0.00127708    -0.00008800    -0.00114727
H        -6.59157257    -1.70554531     0.01123410     0.00008428    -0.00050280    -0.00018679
H        -4.15792985    -1.66801374     0.41479764    -0.00031855    -0.00029344     0.00030268
C        -3.99483253     0.48732309     0.08845821    -0.00085300    -0.00032330     0.00012112
C        -2.48814936     0.50747833     0.22790003     0.00048780    -0.00004260    -0.00013724
H        -4.44536851     1.43877357    -0.22986145    -0.00194311     0.00033249     0.00060316
H        -2.02409420    -0.41501911     0.63639436    -0.00006319    -0.00078660     0.00110927
C        -1.86782536     1.64147187    -0.06604832    -0.00027947    -0.00002696    -0.00016572
H        -2.38878288     2.55940476    -0.40021475    -0.00086811     0.00093753    -0.00049920
N        -0.44608195     1.82797275     0.17440642     0.00069738     0.00006837     0.00008851
H         0.03451161     2.76440448     0.02166303     0.00016959    -0.00016556     0.00044494
H         0.12122915     1.06587805     0.62984299     0.00081924     0.00088115     0.00090826
    14
  Step:    17            Position(A)                                  Velocity(au)
C        -6.06422164    -0.80329250    -0.19963242    -0.00004988    -0.00011920     0.00021831
C        -4.69929850    -0.72910911     0.12546574     0.00019036     0.00041945    -0.00026426
H        -6.55242059     0.08258650    -0.61150909    -0.00134817    -0.00011737    -0.00115185
H        -6.59145659    -1.71161910     0.00902500    -0.00005466    -0.00059864    -0.00021625
H        -4.16188149    -1.67030028     0.41796636    -0.00040409    -0.00011192     0.00027008
C        -4.00416540     0.48365097     0.08973544    -0.00084833    -0.00034187     0.00011181
C        -2.48303104     0.50675751     0.22651476     0.00044383    -0.00009164    -0.00011495
H        -4.46682305     1.44193966    -0.22287358    -0.00195955     0.00022098     0.00068177
H        -2.02475296    -0.42275146     0.64814442    -0.00006352    -0.00060378     0.00102548
C        -1.87039919     1.64151795    -0.06785821    -0.00018983     0.00003851    -0.00016583
H        -2.39793551     2.56891719    -0.40565461    -0.00078457     0.00076932    -0.00048391
N        -0.43853991     1.82873067     0.17535556     0.00067838     0.00006952     0.00008459
H         0.03516439     2.76056256     0.02688777    -0.00003604    -0.00050891     0.00050490
H         0.12914162     1.07686796     0.63891418     0.00063158     0.00111339     0.00075532
    14
  Step:    18            Position(A)                                  Velocity(au)
C        -6.06467721    -0.80454208    -0.19721580    -0.00003685    -0.00010802     0.00022165
C        -4.69720578    -0.72451912     0.12256476     0.00018926     0.00041442    -0.00026515
H        -6.56742070     0.08095280    -0.62402754    -0.00137043    -0.00021175    -0.00111854
H        -6.59276847    -1.71864172     0.00650324    -0.00017301    -0.00067092    -0.00024469
H        -4.16677013    -1.67046216     0.42070610    -0.00048643     0.00008882     0.00022573
C        -4.01339136     0.47984413     0.09090432    -0.00083351    -0.00034781     0.00010147
C        -2.47843964     0.50547355     0.22538529     0.00039234    -0.00014398    -0.00009092
H        -4.48823745     1.44360795    -0.21494652    -0.00193767     0.00006403     0.00077256
H        -2.02548375    -0.42822799     0.65882875    -0.00007358    -0.00038185     0.00091763
C        -1.87197816     1.64231427    -0.06967623    -0.00009813     0.00010846    -0.00016677
H        -2.40594684     2.57623509    -0.41080111    -0.00066363     0.00054530    -0.00044856
N        -0.43124117     1.82949360     0.17625708     0.00065201     0.00006887     0.00007956
H         0.03372306     2.75327101     0.03270872    -0.00020537    -0.00077991     0.00055140
H         0.13504623     1.09023549     0.64636715     0.00045965     0.00130590     0.00061883
    14
  Step:    19            Position(A)                                  Velocity(au)
C        -6.06502772    -0.80565559    -0.19478347    -0.00003082    -0.00009515     0.00022137
C        -4.69515800    -0.72004285     0.11966513     0.00018182     0.00039873    -0.00026416
H        -6.58240135     0.07795401    -0.63597930    -0.00134685    -0.00036059    -0.00105038
H        -6.59524142    -1.72629668     0.00367197    -0.00026434    -0.00071067    -0.00027315
H        -4.17252302    -1.66835715     0.42290467    -0.00055880     0.00029605     0.00017279
C        -4.02239999     0.47604205     0.09195531    -0.00080868    -0.00034107     0.00009045
C        -2.47444791     0.50360768     0.22452572     0.00033509    -0.00019635    -0.00006611
H        -4.50921325     1.44334045    -0.20597230    -0.00188183    -0.00012661     0.00087077
H        -2.02636260    -0.43110513     0.66821936    -0.00008787    -0.00013652     0.00079257
C        -1.87254594     1.64389073    -0.07150669    -0.00000544     0.00017931    -0.00016764
H        -2.41245374     2.58084673    -0.41546763    -0.00051389     0.00028385    -0.00039925
N        -0.42427601     1.83023729     0.17709605     0.00061657     0.00006559     0.00007290
H         0.03067155     2.74350045     0.03895068    -0.00032353    -0.00094731     0.00057975
H         0.13919724     1.10543710     0.65245225     0.00031779     0.00144000     0.00051140
    14
  Step:    20            Position(A)                                  Velocity(au)
C        -6.06535139    -0.80662357    -0.19237300    -0.00003186    -0.00008214     0.00021787
C        -4.69322811    -0.71579610     0.11678585     0.00016746     0.00037270    -0.00026160
H        -6.59688572     0.07306427    -0.64700665    -0.00128282    -0.00055021    -0.00095241
H        -6.59855140    -1.73418898     0.00052766    -0.00032476    -0.00071282    -0.00030179
H        -4.17899505    -1.66398558     0.42448623    -0.00061482     0.00049658     0.00011473
C        -4.03108278     0.47238253     0.09288297    -0.00077408    -0.00032202     0.00007912
C        -2.47110892     0.50117809     0.22393894     0.00027386    -0.00024537    -0.00004158
H        -4.52940602     1.44083812    -0.19589674    -0.00179740    -0.00033765     0.00097149
H        -2.02740607    -0.43121463     0.67616772    -0.00010107     0.00011615     0.00065784
C        -1.87209723     1.64623710    -0.07334357     0.00008730     0.00024743    -0.00016747
H        -2.41718925     2.58244490    -0.41953555    -0.00034418     0.00000356    -0.00034221
N        -0.41775248     1.83092852     0.17785189     0.00057066     0.00005898     0.00006410