     6
  Step:   120            Position(A)                                  Velocity(au)
C        -0.06792009    -0.05859345    -0.02911192    -0.00011652     0.00001752    -0.00001711
N        -0.03349704    -0.05510847     1.33941787     0.00001141     0.00007511    -0.00009609
H         0.91234565    -0.03907825    -0.62489105     0.00006128    -0.00129908     0.00034947
H         0.75357228     0.38820897     1.85838122    -0.00085106     0.00085499     0.00022623
H        -0.90846275    -0.35031099     1.86183537     0.00090928    -0.00156091     0.00034299
H        -0.69556550     0.79543912    -0.46941183     0.00111042     0.00075250     0.00062058
