     6
  Step:     0            Position(A)                                  Velocity(au)
C        -0.04037398     0.00925301     0.00682645    -0.00005539    -0.00003782    -0.00004892
N        -0.04153897    -0.06168473     1.31090911     0.00019571    -0.00008630     0.00011210
H         0.91441467     0.02428425    -0.47412149     0.00067368     0.00015842    -0.00061615
H         0.88010826    -0.08973283     1.80001697    -0.00144917     0.00065262    -0.00074471
H        -0.96310159    -0.00164570     1.84066376    -0.00124218     0.00036955     0.00048045
H        -0.98602030     0.14425022    -0.57271678    -0.00004196     0.00046944    -0.00009446
     6
  Step:     1            Position(A)                                  Velocity(au)
C        -0.04070693     0.00904100     0.00625006    -0.00006557    -0.00003978    -0.00016142
N        -0.04048784    -0.06218664     1.31179505     0.00018628    -0.00009709     0.00021065
H         0.91844186     0.02529088    -0.47769971     0.00078870     0.00020949    -0.00068537
H         0.87207179    -0.08604325     1.79600356    -0.00146828     0.00069643    -0.00071153
H        -0.96958293     0.00048280     1.84320531    -0.00111486     0.00040771     0.00044193
H        -0.98616914     0.14692706    -0.57310984    -0.00001289     0.00050966    -0.00004896
     6
  Step:     2            Position(A)                                  Velocity(au)
C        -0.04109128     0.00881786     0.00506062    -0.00007403    -0.00004186    -0.00027248
N        -0.03950111    -0.06274686     1.31321360     0.00017211    -0.00010753     0.00030616
H         0.92304279     0.02657600    -0.48161916     0.00088203     0.00025982    -0.00074036
H         0.86404575    -0.08211409     1.79223311    -0.00144326     0.00073975    -0.00065468
H        -0.97529772     0.00281453     1.84549837    -0.00096336     0.00044342     0.00039079
H        -0.98616135     0.14982572    -0.57325238     0.00001495     0.00055010    -0.00000344
     6
  Step:     3            Position(A)                                  Velocity(au)
C        -0.04151702     0.00858298     0.00326834    -0.00008055    -0.00004401    -0.00038098
N        -0.03860440    -0.06336329     1.31514536     0.00015332    -0.00011751     0.00039743
H         0.92809381     0.02813401    -0.48580138     0.00095189     0.00030873    -0.00078089
H         0.85627833    -0.07794819     1.78883944    -0.00137187     0.00078227    -0.00057285
H        -0.98012486     0.00533515     1.84748170    -0.00079167     0.00047619     0.00032979
H        -0.98600554     0.15294673    -0.57314753     0.00004082     0.00059028     0.00004087
     6
  Step:     4            Position(A)                                  Velocity(au)
C        -0.04197310     0.00833600     0.00088956    -0.00008495    -0.00004622    -0.00048567
N        -0.03782252    -0.06403332     1.31756476     0.00013013    -0.00012692     0.00048328
H         0.93346416     0.02995598    -0.49016846     0.00099736     0.00035559    -0.00080729
H         0.84902637    -0.07354972     1.78596145    -0.00125340     0.00082368    -0.00046571
H        -0.98396503     0.00802797     1.84910890    -0.00060395     0.00050559     0.00026161
H        -0.98571443     0.15628815    -0.57280490     0.00006392     0.00062968     0.00008280
     6
  Step:     5            Position(A)                                  Velocity(au)
C        -0.04244767     0.00807665    -0.00205256    -0.00008711    -0.00004843    -0.00058515
N        -0.03717876    -0.06475380     1.32044008     0.00010292    -0.00013567     0.00056253
H         0.93902064     0.03202981    -0.49464590     0.00101836     0.00039981    -0.00082036
H         0.84254632    -0.06892414     1.78373726    -0.00108921     0.00086368    -0.00033421
H        -0.98674158     0.01087429     1.85034787    -0.00040466     0.00053125     0.00018895
H        -0.98530525     0.15984538    -0.57224037     0.00008335     0.00066776     0.00012118
     6
  Step:     6            Position(A)                                  Velocity(au)
C        -0.04292840     0.00780486    -0.00552735    -0.00008698    -0.00005064    -0.00067791
N        -0.03669389    -0.06552108     1.32373360     0.00007230    -0.00014364     0.00063403
H         0.94463182     0.03434042    -0.49916474     0.00101555     0.00044079    -0.00082118
H         0.83708172    -0.06407829     1.78229640    -0.00088322     0.00090193    -0.00018090
H        -0.98840261     0.01385386     1.85118094    -0.00019869     0.00055291     0.00011448
H        -0.98480037     0.16361100    -0.57147599     0.00009814     0.00070393     0.00015489
     6
  Step:     7            Position(A)                                  Velocity(au)
C        -0.04340269     0.00752065    -0.00949609    -0.00008453    -0.00005280    -0.00076239
N        -0.03638494    -0.06633097     1.32740179     0.00003910    -0.00015073     0.00069671
H         0.95017151     0.03686977    -0.50366254     0.00099012     0.00047797    -0.00081090
H         0.83284847    -0.05902083     1.78175091    -0.00064217     0.00093796    -0.00001002
H        -0.98892328     0.01694527     1.85160493     0.00000857     0.00057037     0.00004097
H        -0.98422764     0.16757462    -0.57053965     0.00010730     0.00073758     0.00018289
     6
  Step:     8            Position(A)                                  Velocity(au)
C        -0.04385799     0.00722418    -0.01391179    -0.00007981    -0.00005489    -0.00083703
N        -0.03626383    -0.06717875     1.33139570     0.00000444    -0.00015683     0.00074958
H         0.95552081     0.03959695    -0.50808271     0.00094363     0.00051078    -0.00079046
H         0.83001934    -0.05376296     1.78218624    -0.00037563     0.00097116     0.00017262
H        -0.98830837     0.02012655     1.85163146     0.00021132     0.00058357    -0.00002884
H        -0.98362033     0.17172266    -0.56946462     0.00010992     0.00076809     0.00020427
     6
  Step:     9            Position(A)                                  Velocity(au)
C        -0.04428208     0.00691577    -0.01871938    -0.00007293    -0.00005689    -0.00090041
N        -0.03633599    -0.06805909     1.33566150    -0.00003037    -0.00016183     0.00079185
H         0.96056943     0.04249810    -0.51237264     0.00087794     0.00053870    -0.00076051
H         0.82870940    -0.04831953     1.78365297    -0.00009553     0.00100075     0.00035984
H        -0.98659469     0.02337571     1.85128716     0.00040341     0.00059260    -0.00009216
H        -0.98301645     0.17603822    -0.56828878     0.00010529     0.00079482     0.00021831
     6
  Step:    10            Position(A)                                  Velocity(au)
C        -0.04466345     0.00659590    -0.02385637    -0.00006409    -0.00005874    -0.00095132
N        -0.03659930    -0.06896611     1.34014130    -0.00006390    -0.00016564     0.00082295
H         0.96521728     0.04554661    -0.51648220     0.00079547     0.00056129    -0.00072190
H         0.82896429    -0.04271017     1.78616046     0.00018457     0.00102578     0.00054369
H        -0.98385285     0.02667149     1.85061361     0.00057858     0.00059768    -0.00014633
H        -0.98245741     0.18050101    -0.56705352     0.00009304     0.00081719     0.00022454
     6
  Step:    11            Position(A)                                  Velocity(au)
C        -0.04499178     0.00626525    -0.02925404    -0.00005356    -0.00006044    -0.00098896
N        -0.03704360    -0.06989339     1.34477459    -0.00009468    -0.00016820     0.00084270
H         0.96937831     0.04871366    -0.52036682     0.00069930     0.00057831    -0.00067595
H         0.83075330    -0.03696034     1.78967361     0.00045066     0.00104527     0.00071612
H        -0.98018765     0.02999429     1.84966678     0.00073080     0.00059930    -0.00018890
H        -0.98198614     0.18508760    -0.56580224     0.00007318     0.00083479     0.00022286
     6
  Step:    12            Position(A)                                  Velocity(au)
C        -0.04525832     0.00592470    -0.03483972    -0.00004171    -0.00006195    -0.00101317
N        -0.03765077    -0.07083416     1.34950021    -0.00012137    -0.00016952     0.00085142
H         0.97298360     0.05196929    -0.52398928     0.00059299     0.00058982    -0.00062432
H         0.83396923    -0.03110146     1.79411363     0.00068968     0.00105843     0.00086988
H        -0.97573663     0.03332731     1.84851573     0.00085475     0.00059822    -0.00021781
H        -0.98164473     0.18977211    -0.56457849     0.00004618     0.00084744     0.00021352
     6
  Step:    13            Position(A)                                  Velocity(au)
C        -0.04545639     0.00557522    -0.04054015    -0.00002894    -0.00006327    -0.00102456
N        -0.03839558    -0.07178171     1.35425894    -0.00014291    -0.00016968     0.00085005
H         0.97598387     0.05528389    -0.52732141     0.00048046     0.00059622    -0.00056896
H         0.83843592    -0.02517001     1.79936363     0.00089103     0.00106486     0.00099940
H        -0.97066621     0.03665816     1.84724054     0.00094638     0.00059554    -0.00023156
H        -0.98147173     0.19452762    -0.56342375     0.00001298     0.00085538     0.00019722
     6
  Step:    14            Position(A)                                  Velocity(au)
C        -0.04558164     0.00521783    -0.04628590    -0.00002600    -0.00010674    -0.00169691
N        -0.03924737    -0.07272981     1.35899678    -0.00026273    -0.00027971     0.00139133
H         0.97835123     0.05863019    -0.53034560     0.00060557     0.00099098    -0.00084793
H         0.84392362    -0.01920501     1.80527877     0.00173511     0.00176341     0.00182413
H        -0.96516389     0.03998055     1.84592883     0.00166185     0.00098151    -0.00037991
H        -0.98149977     0.19932822    -0.56237519    -0.00004169     0.00142309     0.00028981
     6
  Step:    15            Position(A)                                  Velocity(au)
C        -0.04570428     0.00461348    -0.05543895    -0.00001694    -0.00010697    -0.00153554
N        -0.04073462    -0.07425564     1.36650949    -0.00025842    -0.00025949     0.00126198
H         0.98169162     0.06409220    -0.53522172     0.00057235     0.00093868    -0.00087121
H         0.85394094    -0.00951160     1.81570438     0.00176889     0.00166077     0.00183795
H        -0.95587427     0.04530944     1.84387546     0.00159466     0.00090445    -0.00033290
H        -0.98201828     0.20724964    -0.56120259    -0.00014293     0.00137692     0.00012674
     6
  Step:    16            Position(A)                                  Velocity(au)
C        -0.04577361     0.00400546    -0.06368914    -0.00000729    -0.00010718    -0.00136942
N        -0.04217624    -0.07567082     1.37329963    -0.00024526    -0.00023896     0.00112888
H         0.98483808     0.06926889    -0.54021960     0.00053305     0.00088388    -0.00088465
H         0.86397163    -0.00038239     1.82610943     0.00173097     0.00155266     0.00180614
H        -0.94709058     0.05023125     1.84215589     0.00147454     0.00083206    -0.00026138
H        -0.98311967     0.21493379    -0.56093876    -0.00024342     0.00132936    -0.00002933
     6
  Step:    17            Position(A)                                  Velocity(au)
C        -0.04578724     0.00339438    -0.07101548     0.00000250    -0.00010812    -0.00121308
N        -0.04352433    -0.07697371     1.37934996    -0.00022640    -0.00022032     0.00100370
H         0.98775482     0.07414594    -0.54528423     0.00049213     0.00083442    -0.00089613
H         0.87362992     0.00814921     1.83624834     0.00164491     0.00145241     0.00174954
H        -0.93910206     0.05477374     1.84090244     0.00131976     0.00077209    -0.00017084
H        -0.98478713     0.22237048    -0.56153620    -0.00034046     0.00129122    -0.00017530
     6
  Step:    18            Position(A)                                  Velocity(au)
C        -0.04574521     0.00277674    -0.07747548     0.00001225    -0.00011020    -0.00107265
N        -0.04474920    -0.07817475     1.38470647    -0.00020394    -0.00020457     0.00089136
H         0.99043105     0.07875191    -0.55040392     0.00045156     0.00079406    -0.00091071
H         0.88266562     0.01612396     1.84599260     0.00152748     0.00136634     0.00168190
H        -0.93209178     0.05900591     1.84021431     0.00114189     0.00072776    -0.00006477
H        -0.98698897     0.22960817    -0.56293098    -0.00043286     0.00126784    -0.00031134
     6
  Step:    19            Position(A)                                  Velocity(au)
C        -0.04564859     0.00214674    -0.08315952     0.00002185    -0.00011342    -0.00094767
N        -0.04583322    -0.07928972     1.38944151    -0.00017882    -0.00019160     0.00079138
H         0.99286722     0.08313590    -0.55559491     0.00041095     0.00076267    -0.00092970
H         0.89092334     0.02361825     1.85529008     0.00138666     0.00129415     0.00160830
H        -0.92617405     0.06301312     1.84016912     0.00094606     0.00069837     0.00005470
H        -0.98968778     0.23672442    -0.56506100    -0.00051915     0.00125895    -0.00043824
     6
  Step:    20            Position(A)                                  Velocity(au)
C        -0.04549894     0.00149860    -0.08815467     0.00003121    -0.00011750    -0.00083490
N        -0.04676428    -0.08033385     1.39362453    -0.00015142    -0.00018081     0.00070109
H         0.99506202     0.08734643    -0.56088064     0.00036879     0.00073818    -0.00095186
H         0.89829185     0.03070764     1.86411641     0.00122533     0.00123234     0.00152867
H        -0.92143070     0.06687584     1.84083069     0.00073508     0.00068122     0.00018526
H        -0.99283926     0.24379522    -0.56786952    -0.00059693     0.00126107    -0.00055592
     6
  Step:    21            Position(A)                                  Velocity(au)
C        -0.04529835     0.00082801    -0.09252985     0.00004015    -0.00012208    -0.00073118
N        -0.04753259    -0.08131896     1.39731001    -0.00012212    -0.00017153     0.00061785
H         0.99700623     0.09142064    -0.56627788     0.00032360     0.00071822    -0.00097519
H         0.90467551     0.03744907     1.87244668     0.00104538     0.00117716     0.00144178
H        -0.91792404     0.07065858     1.84224830     0.00051289     0.00067310     0.00032360
H        -0.99638733     0.25087768    -0.57130019    -0.00066335     0.00127006    -0.00066338
     6
  Step:    22            Position(A)                                  Velocity(au)
C        -0.04504967     0.00013256    -0.09633612     0.00004852    -0.00012685    -0.00063425
N        -0.04813069    -0.08225322     1.40053796    -0.00009151    -0.00016325     0.00053989
H         0.99868288     0.09538289    -0.57179248     0.00027437     0.00070095    -0.00099789
H         0.90998906     0.04387943     1.88024907     0.00084952     0.00112588     0.00134709
H        -0.91569172     0.07440742     1.84445158     0.00028545     0.00067101     0.00046547
H        -1.00026177     0.25800653    -0.57529233    -0.00071576     0.00128244    -0.00075937
     6
  Step:    23            Position(A)                                  Velocity(au)
C        -0.04475662    -0.00058846    -0.09961204     0.00005614    -0.00013157    -0.00054279
N        -0.04855443    -0.08314184     1.40333850    -0.00006037    -0.00015557     0.00046619
H         1.00006986     0.09924752    -0.57742053     0.00022061     0.00068511    -0.00101867
H         0.91416134     0.05002085     1.88748850     0.00064123     0.00107682     0.00124501
H        -0.91473665     0.07815117     1.84744585     0.00006024     0.00067226     0.00060609
H        -1.00437963     0.26519756    -0.57977941    -0.00075216     0.00129555    -0.00084281
     6
  Step:    24            Position(A)                                  Velocity(au)
C        -0.04442367    -0.00133450    -0.10238848     0.00006290    -0.00013606    -0.00045602
N        -0.04880382    -0.08398788     1.40573615    -0.00002952    -0.00014821     0.00039625
H         1.00114282     0.10302213    -0.58315109     0.00016225     0.00066991    -0.00103667
H         0.91713907     0.05588636     1.89413141     0.00042438     0.00102904     0.00113657
H        -0.91502005     0.08190337     1.85120975    -0.00015468     0.00067444     0.00074057
H        -1.00864868     0.27245245    -0.58469002    -0.00077127     0.00130752    -0.00091299
     6
  Step:    25            Position(A)                                  Velocity(au)
C        -0.04405593    -0.00210407    -0.10469188     0.00006870    -0.00014018    -0.00037347
N        -0.04888326    -0.08479285     1.40775256     0.00000022    -0.00014097     0.00032985
H         1.00187729     0.10671012    -0.58896867     0.00009949     0.00065489    -0.00105137
H         0.91888880     0.06148399     1.90014945     0.00020293     0.00098212     0.00102321
H        -0.91645976     0.08566419     1.85569553    -0.00035153     0.00067542     0.00086430
H        -1.01297128     0.27976286    -0.58994980    -0.00077251     0.00131702    -0.00096959
     6
  Step:    26            Position(A)                                  Velocity(au)
C        -0.04365890    -0.00289504    -0.10654594     0.00007348    -0.00014387    -0.00029485
N        -0.04880142    -0.08555712     1.40940803     0.00002809    -0.00013368     0.00026689
H         1.00225029     0.11031243    -0.59485496     0.00003272     0.00063977    -0.00106245
H         0.91939804     0.06681940     1.90552180    -0.00001921     0.00093591     0.00090655
H        -0.91893326     0.08942223     1.86083120    -0.00052346     0.00067336     0.00097323
H        -1.01724834     0.28711354    -0.59548355    -0.00075597     0.00132310    -0.00101265
     6
  Step:    27            Position(A)                                  Velocity(au)
C        -0.04323832    -0.00370489    -0.10797257     0.00007722    -0.00014707    -0.00021995
N        -0.04857075    -0.08628025     1.41072211     0.00005346    -0.00012624     0.00020731
H         1.00224136     0.11382863    -0.60079009    -0.00003749     0.00062441    -0.00106975
H         0.91867501     0.07189751     1.91023632    -0.00023827     0.00089044     0.00078832
H        -0.92228408     0.09315641     1.86652424    -0.00066505     0.00066673     0.00106404
H        -1.02138270     0.29448452    -0.60121719    -0.00072225     0.00132515    -0.00104252
     6
  Step:    28            Position(A)                                  Velocity(au)
C        -0.04279999    -0.00453080    -0.10899233     0.00007992    -0.00014973    -0.00014857
N        -0.04820681    -0.08696120     1.41171382     0.00007583    -0.00011855     0.00015104
H         1.00183326     0.11725757    -0.60675339    -0.00011052     0.00060875    -0.00107320
H         0.91674780     0.07672342     1.91428998    -0.00045069     0.00084584     0.00067020
H        -0.92633039     0.09683804     1.87266614    -0.00077254     0.00065437     0.00113430
H        -1.02528169     0.30185278    -0.60707915    -0.00067238     0.00132277    -0.00105976
     6
  Step:    29            Position(A)                                  Velocity(au)
C        -0.04234962    -0.00536986    -0.10962470     0.00008160    -0.00015185    -0.00008058
N        -0.04772751    -0.08759855     1.41240162     0.00009485    -0.00011059     0.00009798
H         1.00101238     0.12059786    -0.61272390    -0.00018566     0.00059278    -0.00107281
H         0.91366338     0.08130308     1.91768888    -0.00065313     0.00080234     0.00055390
H        -0.93087463     0.10043294     1.87913751    -0.00084392     0.00063551     0.00118252
H        -1.02885941     0.30919348    -0.61300153    -0.00060767     0.00131572    -0.00106509
     6
  Step:    30            Position(A)                                  Velocity(au)
C        -0.04189275    -0.00621907    -0.10988818     0.00008230    -0.00015343    -0.00001581
N        -0.04715232    -0.08819074     1.41280320     0.00011027    -0.00010233     0.00004801
H         0.99976906     0.12384801    -0.61868079    -0.00026220     0.00057650    -0.00106864
H         0.90948642     0.08564373     1.92044822    -0.00084244     0.00076023     0.00044107
H        -0.93571305     0.10390361     1.88581325    -0.00087881     0.00060974     0.00120805
H        -1.03203775     0.31648087    -0.61892070    -0.00052962     0.00130394    -0.00105931
     6
  Step:    31            Position(A)                                  Velocity(au)
C        -0.04143469    -0.00707548    -0.10980046     0.00008207    -0.00015447     0.00004585
N        -0.04650166    -0.08873618     1.41293537     0.00012199    -0.00009380     0.00000096
H         0.99809762     0.12700668    -0.62460363    -0.00033938     0.00055997    -0.00106079
H         0.90429826     0.08975431     1.92259209    -0.00101570     0.00071986     0.00033331
H        -0.94064415     0.10721128     1.89256704    -0.00087825     0.00057699     0.00121106
H        -1.03474710     0.32368900    -0.62477753    -0.00043985     0.00128746    -0.00104328
     6
  Step:    32            Position(A)                                  Velocity(au)
C        -0.04098044    -0.00793619    -0.10937851     0.00008097    -0.00015500     0.00010452
N        -0.04579627    -0.08923346     1.41281388     0.00012999    -0.00008504    -0.00004337
H         0.99599642     0.13007268    -0.63047265    -0.00041651     0.00054321    -0.00104941
H         0.89819572     0.09364579     1.92415328    -0.00117024     0.00068165     0.00023217
H        -0.94547573     0.11031755     1.89927549    -0.00084443     0.00053749     0.00119238
H        -1.03692718     0.33079242    -0.63051787    -0.00034007     0.00126645    -0.00101791
     6
  Step:    33            Position(A)                                  Velocity(au)
C        -0.04053460    -0.00879845    -0.10863863     0.00007908    -0.00015504     0.00016030
N        -0.04505671    -0.08968148     1.41245327     0.00013433    -0.00007611    -0.00008519
H         0.99346774     0.13304505    -0.63626893    -0.00049286     0.00052629    -0.00103469
H         0.89128985     0.09733148     1.92517293    -0.00130361     0.00064603     0.00013914
H        -0.95003085     0.11318601     1.90582149    -0.00078045     0.00049168     0.00115338
H        -1.03852731     0.33776681    -0.63609263    -0.00023203     0.00124115    -0.00098414
     6
  Step:    34            Position(A)                                  Velocity(au)
C        -0.04010139    -0.00965966    -0.10759655     0.00007646    -0.00015463     0.00021329
N        -0.04430305    -0.09007950     1.41186686     0.00013513    -0.00006708    -0.00012473
H         0.99051761     0.13592308    -0.64197457    -0.00056779     0.00050924    -0.00101682
H         0.88370438     0.10082720     1.92570006    -0.00141369     0.00061347     0.00005559
H        -0.95415147     0.11578325     1.91209674    -0.00069000     0.00044021     0.00109583
H        -1.03950648     0.34458941    -0.64145785    -0.00011747     0.00121190    -0.00094290
     6
  Step:    35            Position(A)                                  Velocity(au)
C        -0.03968457    -0.01051742    -0.10626752     0.00007321    -0.00015380     0.00026356
N        -0.04355449    -0.09042725     1.41106668     0.00013257    -0.00005806    -0.00016221
H         0.98715563     0.13870627    -0.64757286    -0.00064068     0.00049212    -0.00099604
H         0.87557402     0.10415137     1.92579094    -0.00149861     0.00058447    -0.00001721
H        -0.95770150     0.11807974     1.91800369    -0.00057721     0.00038383     0.00102182
H        -1.03983325     0.35123940    -0.64657469     0.00000191     0.00117908    -0.00089508
     6
  Step:    36            Position(A)                                  Velocity(au)
C        -0.03928748    -0.01136954    -0.10466634     0.00006939    -0.00015259     0.00031119
N        -0.04282918    -0.09072496     1.41006346     0.00012686    -0.00004912    -0.00019786
H         0.98339474     0.14139434    -0.65304828    -0.00071092     0.00047495    -0.00097256
H         0.86704316     0.10732514     1.92550869    -0.00155684     0.00055949    -0.00007812
H        -0.96056870     0.12005052     1.92345705    -0.00044645     0.00032340     0.00093364
H        -1.03948525     0.35769813    -0.65140915     0.00012452     0.00114309    -0.00084156
     6
  Step:    37            Position(A)                                  Velocity(au)
C        -0.03891303    -0.01221404    -0.10280748     0.00006508    -0.00015104     0.00035622
N        -0.04214400    -0.09097341     1.40886671     0.00011823    -0.00004037    -0.00023189
H         0.97925098     0.14398718    -0.65838663    -0.00077800     0.00045777    -0.00094663
H         0.85826377     0.11037227     1.92492229    -0.00158726     0.00053899    -0.00012621
H        -0.96266551     0.12167555     1.92838469    -0.00030215     0.00025982     0.00083369
H        -1.03844871     0.36394922    -0.65593192     0.00024885     0.00110435    -0.00078317
     6
  Step:    38            Position(A)                                  Velocity(au)
C        -0.03856373    -0.01304916    -0.10070512     0.00006036    -0.00014920     0.00039869
N        -0.04151440    -0.09117390     1.40748482     0.00010698    -0.00003190    -0.00026447
H         0.97474324     0.14648481    -0.66357498    -0.00084140     0.00044059    -0.00091847
H         0.84939250     0.11331876     1.92410526    -0.00158939     0.00052329    -0.00016083
H        -0.96392865     0.12293974     1.93272779    -0.00014859     0.00019398     0.00072434
H        -1.03671800     0.36997867    -0.66011814     0.00037346     0.00106329    -0.00072068
     6
  Step:    39            Position(A)                                  Velocity(au)
C        -0.03824167    -0.01387337    -0.09837329     0.00005530    -0.00014709     0.00043864
N        -0.04095422    -0.09132818     1.40592529     0.00009340    -0.00002378    -0.00029575
H         0.96989309     0.14888734    -0.66860165    -0.00090067     0.00042344    -0.00088831
H         0.84058698     0.11619219     1.92313355    -0.00156341     0.00051262    -0.00018176
H        -0.96431807     0.12383292     1.93644061     0.00001017     0.00012674     0.00060792
H        -1.03429513     0.37577491    -0.66394719     0.00049703     0.00102036    -0.00065485
     6
  Step:    40            Position(A)                                  Velocity(au)
C        -0.03794857    -0.01468530    -0.09582589     0.00004996    -0.00014475     0.00047605
N        -0.04047549    -0.09143838     1.40419501     0.00007784    -0.00001607    -0.00032580
H         0.96472451     0.15119493    -0.67345617    -0.00095537     0.00040630    -0.00085635
H         0.83200175     0.11902090     1.92208339    -0.00151026     0.00050700    -0.00018918
H        -0.96381549     0.12434956     1.93949009     0.00017030     0.00005894     0.00048670
H        -1.03118918     0.38132872    -0.66740242     0.00061832     0.00097595    -0.00058635
     6
  Step:    41            Position(A)                                  Velocity(au)
C        -0.03768580    -0.01548380    -0.09307687     0.00004441    -0.00014221     0.00051091
N        -0.04008821    -0.09150697     1.40230050     0.00006068    -0.00000883    -0.00035466
H         0.95926377     0.15340773    -0.67812919    -0.00100511     0.00038917    -0.00082278
H         0.82378411     0.12183297     1.92102879    -0.00143162     0.00050630    -0.00018370
H        -0.96242339     0.12448867     1.94185551     0.00032812    -0.00000862     0.00036287
H        -1.02741580     0.38663319    -0.67047087     0.00073616     0.00093050    -0.00051586
     6
  Step:    42            Position(A)                                  Velocity(au)
C        -0.03745440    -0.01626790    -0.09014031     0.00003869    -0.00013951     0.00054317
N        -0.03980017    -0.09153664     1.40024817     0.00004236    -0.00000209    -0.00038232
H         0.95353922     0.15552584    -0.68261243    -0.00104950     0.00037205    -0.00078779
H         0.81607013     0.12465524     1.92003913    -0.00132989     0.00051018    -0.00016640
H        -0.96016398     0.12425365     1.94352830     0.00048020    -0.00007515     0.00023862
H        -1.02299686     0.39168367    -0.67314317     0.00084945     0.00088438    -0.00044401
     6
  Step:    43            Position(A)                                  Velocity(au)
C        -0.03725507    -0.01703675    -0.08703055     0.00003288    -0.00013666     0.00057278
N        -0.03961668    -0.09153022     1.39804468     0.00002333     0.00000413    -0.00040870
H         0.94758118     0.15754926    -0.68689854    -0.00108821     0.00035492    -0.00075155
H         0.80898044     0.12751209     1.91917651    -0.00120822     0.00051809    -0.00013884
H        -0.95707802     0.12365212     1.94451167     0.00062325    -0.00013991     0.00011603
H        -1.01796013     0.39647773    -0.67541341     0.00095714     0.00083801    -0.00037142
     6
  Step:    44            Position(A)                                  Velocity(au)
C        -0.03708822    -0.01778968    -0.08376232     0.00002703    -0.00013370     0.00059965
N        -0.03954040    -0.09149062     1.39569719     0.00000409     0.00000983    -0.00043369
H         0.94142175     0.15947789    -0.69098112    -0.00112093     0.00033774    -0.00071422
H         0.80261642     0.13042425     1.91849310    -0.00107044     0.00052925    -0.00010302
H        -0.95322396     0.12269573     1.94482033     0.00075422    -0.00020217    -0.00000283
H        -1.01233892     0.40101512    -0.67727899     0.00105824     0.00079178    -0.00029869
     6