     6
  Step:   300            Position(A)                                  Velocity(au)
C        -0.01884411     0.00664190     0.01692031    -0.00002386    -0.00003576     0.00015671
N        -0.05410919    -0.05702890     1.29779743     0.00014937     0.00000687    -0.00016359
H         0.22151839    -0.87681733    -0.57929144    -0.00123772     0.00001930    -0.00048162
H        -0.05394374     0.83494666     1.80958300    -0.00217553    -0.00017645     0.00026344
H        -0.21691370    -0.91773086     1.81964070     0.00045462     0.00039985     0.00048480
H        -0.18712861     1.00317893    -0.39416415     0.00116722     0.00008800     0.00013938
