     6
  Step:   300            Position(A)                                  Velocity(au)
C        -0.03372810     0.01225464     0.02594157     0.00000240     0.00002252    -0.00011814
N        -0.04525720    -0.05375293     1.29289424     0.00001537     0.00000157     0.00007642
H         0.22389704    -0.87342185    -0.55275555     0.00038267    -0.00011639     0.00058565
H         0.05917821     0.79308267     1.85848837     0.00039549     0.00006628    -0.00028560
H        -0.19177114    -0.93649167     1.78091158    -0.00053634    -0.00020111    -0.00034588
H        -0.27343344     0.94798378    -0.47024779    -0.00048397    -0.00003886     0.00039166
