|===============================================================================
|
|  DFTB+ release 20.1
|
|  Copyright (C) 2006 - 2020  DFTB+ developers group
|
|===============================================================================
|
|  When publishing results obtained with DFTB+, please cite the following
|  reference:
|
|  * DFTB+, a software package for efficient approximate density functional
|    theory based atomistic simulations, J. Chem. Phys. 152, 124101 (2020).
|    [doi: 10.1063/1.5143190]
|
|  You should also cite additional publications crediting the parametrization
|  data you use. Please consult the documentation of the SK-files for the
|  references.
|
|===============================================================================

Reading input file 'dftb_in.hsd'
Parser version: 8

--------------------------------------------------------------------------------
Reading SK-files:
Done.


Processed input in HSD format written to 'dftb_pin.hsd'

Starting initialization...
--------------------------------------------------------------------------------
OpenMP threads:              1
Chosen random seed:          499799005
Mode:                        Static calculation
Self consistent charges:     Yes
SCC-tolerance:                 0.100000E-05
Max. scc iterations:                   1000
Shell resolved Hubbard:      No
Spin polarisation:           No
Nr. of up electrons:            16.000000
Nr. of down electrons:          16.000000
Periodic boundaries:         No
Electronic solver:           Relatively robust
Maximal SCC-cycles:                    1000
Initial charges:             Set automatically (system chrg:   0.100E+01)
Included shells:             C:  s, p
                             H:  s
                             N:  s, p
Spin coupling constants:     C   1(s)-1(s):  -0.455900E-01
                             C   1(s)-2(p):  -0.293000E-01
                             C   2(p)-1(s):  -0.293000E-01
                             C   2(p)-2(p):  -0.275500E-01
                             H   1(s)-1(s):  -0.792500E-01
                             N   1(s)-1(s):  -0.468700E-01
                             N   1(s)-2(p):  -0.317000E-01
                             N   2(p)-1(s):  -0.317000E-01
                             N   2(p)-2(p):  -0.307200E-01
Range separated hybrid:      Yes
  Screening parameter omega:   0.300000E+00
  Range separated algorithm:   MatrixBased
Extra options:
                             Mulliken analysis
                             Force calculation
Force type                   original
                             Eigenvector printing


REKS Calcuation:             Yes
SSR(2,2) Calcuation:         Yes
Energy Functional:           (PPS+OSS)/2
Number of Core Orbitals:                 15
Number of Active Orbitals:                2
Number of Basis:                         32
Number of States:                         2
State-Averaging Weight:          0.500000
                                 0.500000
State of Interest:                        1
Initial Guess:               Diagonalize H0 matrix
Newton-Raphson for FON opt:  Yes
NR max. Iterations:                      50
Level Shifting:              Yes
Shift Value:                     0.300000
W Scale Factor:              C  =    3.200000
                             H  =    3.200000
                             N  =    3.200000
Transition Dipole:           No
Gradient of Microstate:      No
CP-REKS Solver:              Preconditioned Conjugate-Gradient
CG max. Iterations:                     100
CG Tolerance:                  0.100000E-07
Memory for A and Hxc:        Direct Updating Without Saving
Non-Adiabatic Coupling:      Yes

--------------------------------------------------------------------------------

***  Geometry step: 0

  iSCC       reks energy        Diff energy         x_a       SCC error   
    1      -16.3912387542       0.0000000000     0.993383    1.22794728
    2      -16.4139583470      -0.0227195928     0.999407    0.07525325
    3      -16.4198870464      -0.0059286994     0.999857    0.03034807
    4      -16.4219586363      -0.0020715899     0.999940    0.01520245
    5      -16.4228578011      -0.0008991648     0.999965    0.01003882
    6      -16.4233274565      -0.0004696554     0.999976    0.00675639
    7      -16.4236115937      -0.0002841372     0.999982    0.00470236
    8      -16.4238032816      -0.0001916879     0.999985    0.00338249
    9      -16.4239430840      -0.0001398024     0.999987    0.00250546
   10      -16.4240507790      -0.0001076950     0.999988    0.00222254
   11      -16.4241369587      -0.0000861797     0.999989    0.00216614
   12      -16.4242077784      -0.0000708197     0.999990    0.00207654
   13      -16.4242670857      -0.0000593073     0.999991    0.00197370
   14      -16.4243174452      -0.0000503595     0.999992    0.00186749
   15      -16.4243606621      -0.0000432169     0.999992    0.00176280
   16      -16.4243980649      -0.0000374028     0.999992    0.00166198
   17      -16.4244306656      -0.0000326006     0.999993    0.00156612
   18      -16.4244592561      -0.0000285906     0.999993    0.00147561
   19      -16.4244844695      -0.0000252134     0.999993    0.00139047
   20      -16.4245068196      -0.0000223500     0.999994    0.00131056
   21      -16.4245267289      -0.0000199093     0.999994    0.00123566
   22      -16.4245445485      -0.0000178196     0.999994    0.00116549
   23      -16.4245605725      -0.0000160240     0.999994    0.00109976
   24      -16.4245750488      -0.0000144763     0.999994    0.00103820
   25      -16.4245881877      -0.0000131389     0.999995    0.00098055
   26      -16.4246001684      -0.0000119807     0.999995    0.00092655
   27      -16.4246111441      -0.0000109756     0.999995    0.00087598
   28      -16.4246212460      -0.0000101019     0.999995    0.00082861
   29      -16.4246305873      -0.0000093412     0.999995    0.00078426
   30      -16.4246392652      -0.0000086779     0.999995    0.00074273
   31      -16.4246473638      -0.0000080986     0.999995    0.00070384
   32      -16.4246549558      -0.0000075920     0.999995    0.00066745
   33      -16.4246621040      -0.0000071482     0.999996    0.00063340
   34      -16.4246688628      -0.0000067588     0.999996    0.00060154
   35      -16.4246752794      -0.0000064166     0.999996    0.00057175
   36      -16.4246813946      -0.0000061152     0.999996    0.00054391
   37      -16.4246872438      -0.0000058492     0.999996    0.00051789
   38      -16.4246928577      -0.0000056139     0.999996    0.00049359
   39      -16.4246982629      -0.0000054053     0.999996    0.00047090
   40      -16.4247034826      -0.0000052197     0.999996    0.00044972
   41      -16.4247085367      -0.0000050541     0.999996    0.00043678
   42      -16.4247134425      -0.0000049058     0.999996    0.00043275
   43      -16.4247182151      -0.0000047726     0.999996    0.00042890
   44      -16.4247228674      -0.0000046523     0.999996    0.00042520
   45      -16.4247274107      -0.0000045433     0.999996    0.00042165
   46      -16.4247318547      -0.0000044440     0.999996    0.00041822
   47      -16.4247362078      -0.0000043531     0.999996    0.00041491
   48      -16.4247404772      -0.0000042694     0.999996    0.00041171
   49      -16.4247446693      -0.0000041921     0.999996    0.00040860
   50      -16.4247487893      -0.0000041201     0.999996    0.00040557
   51      -16.4247528421      -0.0000040528     0.999996    0.00040261
   52      -16.4247568316      -0.0000039895     0.999996    0.00039972
   53      -16.4247607613      -0.0000039297     0.999996    0.00039688
   54      -16.4247646342      -0.0000038728     0.999997    0.00039410
   55      -16.4247684527      -0.0000038186     0.999997    0.00039136
   56      -16.4247722192      -0.0000037665     0.999997    0.00038866
   57      -16.4247759356      -0.0000037163     0.999997    0.00038599
   58      -16.4247796034      -0.0000036678     0.999997    0.00038335
   59      -16.4247832241      -0.0000036207     0.999997    0.00038074
   60      -16.4247867989      -0.0000035748     0.999997    0.00037815
   61      -16.4247903288      -0.0000035300     0.999997    0.00037558
   62      -16.4247938148      -0.0000034860     0.999997    0.00037302
   63      -16.4247972577      -0.0000034429     0.999997    0.00037048
   64      -16.4248006581      -0.0000034004     0.999997    0.00036794
   65      -16.4248040167      -0.0000033586     0.999997    0.00036542
   66      -16.4248073340      -0.0000033173     0.999997    0.00036290
   67      -16.4248106105      -0.0000032765     0.999997    0.00036039
   68      -16.4248138465      -0.0000032361     0.999997    0.00035788
   69      -16.4248170426      -0.0000031961     0.999997    0.00035537
   70      -16.4248201990      -0.0000031564     0.999997    0.00035287
   71      -16.4248233161      -0.0000031171     0.999997    0.00035037
   72      -16.4248263942      -0.0000030781     0.999997    0.00034787
   73      -16.4248294336      -0.0000030394     0.999997    0.00034537
   74      -16.4248324345      -0.0000030010     0.999997    0.00034287
   75      -16.4248353974      -0.0000029628     0.999997    0.00034038
   76      -16.4248383223      -0.0000029250     0.999997    0.00033788
   77      -16.4248412097      -0.0000028874     0.999997    0.00033539
   78      -16.4248440597      -0.0000028500     0.999997    0.00033289
   79      -16.4248468727      -0.0000028130     0.999997    0.00033040
   80      -16.4248496488      -0.0000027762     0.999997    0.00032791
   81      -16.4248523885      -0.0000027396     0.999997    0.00032542
   82      -16.4248550919      -0.0000027034     0.999997    0.00032293
   83      -16.4248577593      -0.0000026674     0.999997    0.00032044
   84      -16.4248603911      -0.0000026318     0.999997    0.00031796
   85      -16.4248629875      -0.0000025964     0.999997    0.00031548
   86      -16.4248655488      -0.0000025613     0.999997    0.00031300
   87      -16.4248680753      -0.0000025265     0.999997    0.00031053
   88      -16.4248705673      -0.0000024920     0.999997    0.00030806
   89      -16.4248730252      -0.0000024579     0.999997    0.00030560
   90      -16.4248754492      -0.0000024240     0.999997    0.00030315
   91      -16.4248778398      -0.0000023905     0.999997    0.00030070
   92      -16.4248801971      -0.0000023573     0.999997    0.00029826
   93      -16.4248825215      -0.0000023245     0.999997    0.00029582
   94      -16.4248848135      -0.0000022919     0.999997    0.00029340
   95      -16.4248870732      -0.0000022598     0.999997    0.00029098
   96      -16.4248893011      -0.0000022279     0.999997    0.00028857
   97      -16.4248914976      -0.0000021964     0.999997    0.00028617
   98      -16.4248936629      -0.0000021653     0.999997    0.00028378
   99      -16.4248957974      -0.0000021345     0.999997    0.00028140
  100      -16.4248979015      -0.0000021041     0.999997    0.00027903
  101      -16.4248999755      -0.0000020740     0.999997    0.00027668
  102      -16.4249020198      -0.0000020443     0.999997    0.00027434
  103      -16.4249040348      -0.0000020150     0.999997    0.00027200
  104      -16.4249060208      -0.0000019860     0.999997    0.00026969
  105      -16.4249079781      -0.0000019574     0.999998    0.00026738
  106      -16.4249099073      -0.0000019291     0.999998    0.00026509
  107      -16.4249118085      -0.0000019013     0.999998    0.00026281
  108      -16.4249136823      -0.0000018737     0.999998    0.00026055
  109      -16.4249155288      -0.0000018466     0.999998    0.00025830
  110      -16.4249173486      -0.0000018198     0.999998    0.00025606
  111      -16.4249191420      -0.0000017934     0.999998    0.00025384
  112      -16.4249209093      -0.0000017673     0.999998    0.00025164
  113      -16.4249226509      -0.0000017416     0.999998    0.00024945
  114      -16.4249243672      -0.0000017163     0.999998    0.00024728
  115      -16.4249260585      -0.0000016913     0.999998    0.00024513
  116      -16.4249277252      -0.0000016667     0.999998    0.00024299
  117      -16.4249293676      -0.0000016424     0.999998    0.00024087
  118      -16.4249309861      -0.0000016185     0.999998    0.00023876
  119      -16.4249325810      -0.0000015949     0.999998    0.00023667
  120      -16.4249341527      -0.0000015717     0.999998    0.00023460
  121      -16.4249357015      -0.0000015488     0.999998    0.00023255
  122      -16.4249372278      -0.0000015263     0.999998    0.00023051
  123      -16.4249387320      -0.0000015041     0.999998    0.00022849
  124      -16.4249402143      -0.0000014823     0.999998    0.00022649
  125      -16.4249416750      -0.0000014608     0.999998    0.00022451
  126      -16.4249431146      -0.0000014396     0.999998    0.00022254
  127      -16.4249445333      -0.0000014187     0.999998    0.00022059
  128      -16.4249459315      -0.0000013982     0.999998    0.00021866
  129      -16.4249473095      -0.0000013780     0.999998    0.00021675
  130      -16.4249486676      -0.0000013581     0.999998    0.00021485
  131      -16.4249500061      -0.0000013385     0.999998    0.00021298
  132      -16.4249513253      -0.0000013192     0.999998    0.00021112
  133      -16.4249526256      -0.0000013003     0.999998    0.00020928
  134      -16.4249539072      -0.0000012816     0.999998    0.00020745
  135      -16.4249551705      -0.0000012633     0.999998    0.00020565
  136      -16.4249564156      -0.0000012452     0.999998    0.00020386
  137      -16.4249576431      -0.0000012274     0.999998    0.00020209
  138      -16.4249588530      -0.0000012099     0.999998    0.00020034
  139      -16.4249600457      -0.0000011927     0.999998    0.00019861
  140      -16.4249612215      -0.0000011758     0.999998    0.00019689
  141      -16.4249623807      -0.0000011592     0.999998    0.00019519
  142      -16.4249635235      -0.0000011428     0.999998    0.00019351
  143      -16.4249646502      -0.0000011267     0.999998    0.00019185
  144      -16.4249657610      -0.0000011109     0.999998    0.00019020
  145      -16.4249668563      -0.0000010953     0.999998    0.00018857
  146      -16.4249679363      -0.0000010800     0.999998    0.00018696
  147      -16.4249690012      -0.0000010649     0.999998    0.00018537
  148      -16.4249700513      -0.0000010501     0.999998    0.00018379
  149      -16.4249710868      -0.0000010355     0.999998    0.00018223
  150      -16.4249721080      -0.0000010212     0.999998    0.00018068
  151      -16.4249731151      -0.0000010071     0.999998    0.00017916
  152      -16.4249741083      -0.0000009932     0.999998    0.00017765
  153      -16.4249750879      -0.0000009796     0.999998    0.00017615
  154      -16.4249760542      -0.0000009662     0.999998    0.00017467
  155      -16.4249770072      -0.0000009531     0.999998    0.00017321
  156      -16.4249779473      -0.0000009401     0.999998    0.00017177
  157      -16.4249788747      -0.0000009274     0.999998    0.00017034
  158      -16.4249797896      -0.0000009149     0.999998    0.00016892
  159      -16.4249806921      -0.0000009026     0.999998    0.00016753
  160      -16.4249815826      -0.0000008905     0.999998    0.00016614
  161      -16.4249824611      -0.0000008786     0.999998    0.00016478
  162      -16.4249833280      -0.0000008669     0.999998    0.00016343
  163      -16.4249841834      -0.0000008554     0.999998    0.00016209
  164      -16.4249850274      -0.0000008440     0.999998    0.00016077
  165      -16.4249858603      -0.0000008329     0.999998    0.00015946
  166      -16.4249866823      -0.0000008220     0.999998    0.00015817
  167      -16.4249874936      -0.0000008112     0.999998    0.00015689
  168      -16.4249882942      -0.0000008007     0.999998    0.00015563
  169      -16.4249890845      -0.0000007903     0.999998    0.00015438
  170      -16.4249898646      -0.0000007801     0.999998    0.00015314
  171      -16.4249906346      -0.0000007700     0.999998    0.00015192
  172      -16.4249913947      -0.0000007601     0.999998    0.00015072
  173      -16.4249921452      -0.0000007504     0.999998    0.00014952
  174      -16.4249928860      -0.0000007409     0.999998    0.00014835
  175      -16.4249936175      -0.0000007315     0.999998    0.00014718
  176      -16.4249943398      -0.0000007223     0.999998    0.00014603
  177      -16.4249950530      -0.0000007132     0.999998    0.00014489
  178      -16.4249957572      -0.0000007043     0.999998    0.00014376
  179      -16.4249964527      -0.0000006955     0.999998    0.00014265
  180      -16.4249971395      -0.0000006868     0.999998    0.00014155
  181      -16.4249978179      -0.0000006784     0.999998    0.00014046
  182      -16.4249984879      -0.0000006700     0.999998    0.00013938
  183      -16.4249991497      -0.0000006618     0.999998    0.00013832
  184      -16.4249998034      -0.0000006537     0.999998    0.00013727
  185      -16.4250004492      -0.0000006458     0.999998    0.00013623
  186      -16.4250010872      -0.0000006380     0.999998    0.00013520
  187      -16.4250017175      -0.0000006303     0.999998    0.00013419
  188      -16.4250023402      -0.0000006227     0.999998    0.00013318
  189      -16.4250029555      -0.0000006153     0.999998    0.00013219
  190      -16.4250035635      -0.0000006080     0.999998    0.00013121
  191      -16.4250041644      -0.0000006008     0.999998    0.00013024
  192      -16.4250047581      -0.0000005938     0.999998    0.00012928
  193      -16.4250053449      -0.0000005868     0.999998    0.00012833
  194      -16.4250059249      -0.0000005800     0.999998    0.00012739
  195      -16.4250064982      -0.0000005733     0.999998    0.00012647
  196      -16.4250070648      -0.0000005666     0.999998    0.00012555
  197      -16.4250076249      -0.0000005601     0.999999    0.00012465
  198      -16.4250081787      -0.0000005537     0.999999    0.00012375
  199      -16.4250087261      -0.0000005474     0.999999    0.00012287
  200      -16.4250092673      -0.0000005412     0.999999    0.00012199
  201      -16.4250098025      -0.0000005351     0.999999    0.00012113
  202      -16.4250103316      -0.0000005291     0.999999    0.00012027
  203      -16.4250108548      -0.0000005232     0.999999    0.00011943
  204      -16.4250113723      -0.0000005174     0.999999    0.00011859
  205      -16.4250118840      -0.0000005117     0.999999    0.00011776
  206      -16.4250123901      -0.0000005061     0.999999    0.00011695
  207      -16.4250128907      -0.0000005006     0.999999    0.00011614
  208      -16.4250133858      -0.0000004951     0.999999    0.00011534
  209      -16.4250138756      -0.0000004898     0.999999    0.00011455
  210      -16.4250143601      -0.0000004845     0.999999    0.00011377
  211      -16.4250148394      -0.0000004793     0.999999    0.00011300
  212      -16.4250153136      -0.0000004742     0.999999    0.00011224
  213      -16.4250157828      -0.0000004692     0.999999    0.00011148
  214      -16.4250162471      -0.0000004643     0.999999    0.00011074
  215      -16.4250167065      -0.0000004594     0.999999    0.00011000
  216      -16.4250171611      -0.0000004546     0.999999    0.00010927
  217      -16.4250176110      -0.0000004499     0.999999    0.00010855
  218      -16.4250180562      -0.0000004453     0.999999    0.00010784
  219      -16.4250184969      -0.0000004407     0.999999    0.00010713
  220      -16.4250189331      -0.0000004362     0.999999    0.00010643
  221      -16.4250193649      -0.0000004318     0.999999    0.00010574
  222      -16.4250197923      -0.0000004274     0.999999    0.00010506
  223      -16.4250202154      -0.0000004231     0.999999    0.00010439
  224      -16.4250206343      -0.0000004189     0.999999    0.00010372
  225      -16.4250210491      -0.0000004147     0.999999    0.00010306
  226      -16.4250214597      -0.0000004107     0.999999    0.00010241
  227      -16.4250218663      -0.0000004066     0.999999    0.00010177
  228      -16.4250222690      -0.0000004027     0.999999    0.00010113
  229      -16.4250226678      -0.0000003988     0.999999    0.00010050
  230      -16.4250230627      -0.0000003949     0.999999    0.00009987
  231      -16.4250234538      -0.0000003911     0.999999    0.00009926
  232      -16.4250238412      -0.0000003874     0.999999    0.00009865
  233      -16.4250242249      -0.0000003837     0.999999    0.00009804
  234      -16.4250246050      -0.0000003801     0.999999    0.00009745
  235      -16.4250249816      -0.0000003765     0.999999    0.00009686
  236      -16.4250253546      -0.0000003730     0.999999    0.00009627
  237      -16.4250257242      -0.0000003696     0.999999    0.00009569
  238      -16.4250260904      -0.0000003662     0.999999    0.00009512
  239      -16.4250264532      -0.0000003628     0.999999    0.00009456
  240      -16.4250268127      -0.0000003595     0.999999    0.00009400
  241      -16.4250271690      -0.0000003563     0.999999    0.00009345
  242      -16.4250275221      -0.0000003531     0.999999    0.00009290
  243      -16.4250278720      -0.0000003499     0.999999    0.00009236
  244      -16.4250282189      -0.0000003468     0.999999    0.00009182
  245      -16.4250285626      -0.0000003438     0.999999    0.00009130
  246      -16.4250289034      -0.0000003407     0.999999    0.00009077
  247      -16.4250292411      -0.0000003378     0.999999    0.00009025
  248      -16.4250295760      -0.0000003348     0.999999    0.00008974
  249      -16.4250299079      -0.0000003320     0.999999    0.00008923
  250      -16.4250302370      -0.0000003291     0.999999    0.00008873
  251      -16.4250305634      -0.0000003263     0.999999    0.00008824
  252      -16.4250308869      -0.0000003236     0.999999    0.00008775
  253      -16.4250312078      -0.0000003208     0.999999    0.00008726
  254      -16.4250315259      -0.0000003182     0.999999    0.00008678
  255      -16.4250318415      -0.0000003155     0.999999    0.00008631
  256      -16.4250321544      -0.0000003129     0.999999    0.00008583
  257      -16.4250324648      -0.0000003104     0.999999    0.00008537
  258      -16.4250327726      -0.0000003078     0.999999    0.00008491
  259      -16.4250330780      -0.0000003054     0.999999    0.00008445
  260      -16.4250333809      -0.0000003029     0.999999    0.00008400
  261      -16.4250336814      -0.0000003005     0.999999    0.00008356
  262      -16.4250339795      -0.0000002981     0.999999    0.00008312
  263      -16.4250342752      -0.0000002958     0.999999    0.00008272
  264      -16.4250345687      -0.0000002934     0.999999    0.00008245
  265      -16.4250348598      -0.0000002912     0.999999    0.00008218
  266      -16.4250351487      -0.0000002889     0.999999    0.00008192
  267      -16.4250354354      -0.0000002867     0.999999    0.00008166
  268      -16.4250357199      -0.0000002845     0.999999    0.00008140
  269      -16.4250360023      -0.0000002824     0.999999    0.00008114
  270      -16.4250362825      -0.0000002802     0.999999    0.00008088
  271      -16.4250365607      -0.0000002781     0.999999    0.00008063
  272      -16.4250368368      -0.0000002761     0.999999    0.00008038
  273      -16.4250371108      -0.0000002741     0.999999    0.00008013
  274      -16.4250373829      -0.0000002720     0.999999    0.00007989
  275      -16.4250376529      -0.0000002701     0.999999    0.00007965
  276      -16.4250379211      -0.0000002681     0.999999    0.00007941
  277      -16.4250381873      -0.0000002662     0.999999    0.00007917
  278      -16.4250384516      -0.0000002643     0.999999    0.00007894
  279      -16.4250387140      -0.0000002624     0.999999    0.00007870
  280      -16.4250389746      -0.0000002606     0.999999    0.00007847
  281      -16.4250392334      -0.0000002588     0.999999    0.00007825
  282      -16.4250394904      -0.0000002570     0.999999    0.00007802
  283      -16.4250397456      -0.0000002552     0.999999    0.00007780
  284      -16.4250399991      -0.0000002535     0.999999    0.00007758
  285      -16.4250402509      -0.0000002518     0.999999    0.00007736
  286      -16.4250405010      -0.0000002501     0.999999    0.00007715
  287      -16.4250407494      -0.0000002484     0.999999    0.00007693
  288      -16.4250409962      -0.0000002468     0.999999    0.00007672
  289      -16.4250412413      -0.0000002451     0.999999    0.00007651
  290      -16.4250414849      -0.0000002435     0.999999    0.00007631
  291      -16.4250417268      -0.0000002420     0.999999    0.00007610
  292      -16.4250419672      -0.0000002404     0.999999    0.00007590
  293      -16.4250422061      -0.0000002389     0.999999    0.00007570
  294      -16.4250424435      -0.0000002374     0.999999    0.00007550
  295      -16.4250426794      -0.0000002359     0.999999    0.00007531
  296      -16.4250429138      -0.0000002344     0.999999    0.00007511
  297      -16.4250431467      -0.0000002330     0.999999    0.00007492
  298      -16.4250433783      -0.0000002315     0.999999    0.00007473
  299      -16.4250436084      -0.0000002301     0.999999    0.00007454
  300      -16.4250438371      -0.0000002287     0.999999    0.00007436
  301      -16.4250440645      -0.0000002273     0.999999    0.00007418
  302      -16.4250442904      -0.0000002260     0.999999    0.00007400
  303      -16.4250445151      -0.0000002247     0.999999    0.00007382
  304      -16.4250447385      -0.0000002233     0.999999    0.00007364
  305      -16.4250449605      -0.0000002220     0.999999    0.00007346
  306      -16.4250451813      -0.0000002208     0.999999    0.00007329
  307      -16.4250454008      -0.0000002195     0.999999    0.00007312
  308      -16.4250456190      -0.0000002183     0.999999    0.00007295
  309      -16.4250458360      -0.0000002170     0.999999    0.00007278
  310      -16.4250460519      -0.0000002158     0.999999    0.00007262
  311      -16.4250462665      -0.0000002146     0.999999    0.00007246
  312      -16.4250464799      -0.0000002134     0.999999    0.00007229
  313      -16.4250466922      -0.0000002123     0.999999    0.00007213
  314      -16.4250469033      -0.0000002111     0.999999    0.00007198
  315      -16.4250471133      -0.0000002100     0.999999    0.00007182
  316      -16.4250473222      -0.0000002089     0.999999    0.00007167
  317      -16.4250475300      -0.0000002078     0.999999    0.00007151
  318      -16.4250477367      -0.0000002067     0.999999    0.00007136
  319      -16.4250479423      -0.0000002056     0.999999    0.00007122
  320      -16.4250481469      -0.0000002046     0.999999    0.00007107
  321      -16.4250483504      -0.0000002035     0.999999    0.00007092
  322      -16.4250485529      -0.0000002025     0.999999    0.00007078
  323      -16.4250487544      -0.0000002015     0.999999    0.00007064
  324      -16.4250489549      -0.0000002005     0.999999    0.00007050
  325      -16.4250491544      -0.0000001995     0.999999    0.00007036
  326      -16.4250493529      -0.0000001985     0.999999    0.00007022
  327      -16.4250495505      -0.0000001976     0.999999    0.00007009
  328      -16.4250497471      -0.0000001966     0.999999    0.00006996
  329      -16.4250499428      -0.0000001957     0.999999    0.00006982
  330      -16.4250501376      -0.0000001948     0.999999    0.00006970
  331      -16.4250503315      -0.0000001939     0.999999    0.00006957
  332      -16.4250505244      -0.0000001930     0.999999    0.00006944
  333      -16.4250507165      -0.0000001921     0.999999    0.00006932
  334      -16.4250509078      -0.0000001912     0.999999    0.00006919
  335      -16.4250510981      -0.0000001904     0.999999    0.00006907
  336      -16.4250512877      -0.0000001895     0.999999    0.00006895
  337      -16.4250514764      -0.0000001887     0.999999    0.00006883
  338      -16.4250516642      -0.0000001879     0.999999    0.00006872
  339      -16.4250518513      -0.0000001871     0.999999    0.00006860
  340      -16.4250520376      -0.0000001863     0.999999    0.00006849
  341      -16.4250522230      -0.0000001855     0.999999    0.00006837
  342      -16.4250524077      -0.0000001847     0.999999    0.00006826
  343      -16.4250525917      -0.0000001839     0.999999    0.00006815
  344      -16.4250527748      -0.0000001832     0.999999    0.00006805
  345      -16.4250529573      -0.0000001824     0.999999    0.00006794
  346      -16.4250531390      -0.0000001817     0.999999    0.00006784
  347      -16.4250533200      -0.0000001810     0.999999    0.00006773
  348      -16.4250535002      -0.0000001803     0.999999    0.00006763
  349      -16.4250536798      -0.0000001796     0.999999    0.00006753
  350      -16.4250538586      -0.0000001789     0.999999    0.00006743
  351      -16.4250540368      -0.0000001782     0.999999    0.00006734
  352      -16.4250542144      -0.0000001775     0.999999    0.00006724
  353      -16.4250543912      -0.0000001769     0.999999    0.00006714
  354      -16.4250545674      -0.0000001762     0.999999    0.00006705
  355      -16.4250547430      -0.0000001756     0.999999    0.00006696
  356      -16.4250549179      -0.0000001749     0.999999    0.00006687
  357      -16.4250550922      -0.0000001743     0.999999    0.00006678
  358      -16.4250552659      -0.0000001737     0.999999    0.00006669
  359      -16.4250554389      -0.0000001731     0.999999    0.00006661
  360      -16.4250556114      -0.0000001725     0.999999    0.00006652
  361      -16.4250557833      -0.0000001719     0.999999    0.00006644
  362      -16.4250559546      -0.0000001713     0.999999    0.00006636
  363      -16.4250561253      -0.0000001707     0.999999    0.00006628
  364      -16.4250562955      -0.0000001702     0.999999    0.00006620
  365      -16.4250564651      -0.0000001696     0.999999    0.00006612
  366      -16.4250566342      -0.0000001691     0.999999    0.00006604
  367      -16.4250568027      -0.0000001685     0.999999    0.00006597
  368      -16.4250569708      -0.0000001680     0.999999    0.00006589
  369      -16.4250571382      -0.0000001675     0.999999    0.00006582
  370      -16.4250573052      -0.0000001670     0.999999    0.00006575
  371      -16.4250574717      -0.0000001665     0.999999    0.00006568
  372      -16.4250576377      -0.0000001660     0.999999    0.00006561
  373      -16.4250578031      -0.0000001655     0.999999    0.00006554
  374      -16.4250579681      -0.0000001650     0.999999    0.00006548
  375      -16.4250581327      -0.0000001645     0.999999    0.00006541
  376      -16.4250582967      -0.0000001641     0.999999    0.00006535
  377      -16.4250584603      -0.0000001636     0.999999    0.00006529
  378      -16.4250586235      -0.0000001632     0.999999    0.00006522
  379      -16.4250587862      -0.0000001627     0.999999    0.00006516
  380      -16.4250589485      -0.0000001623     0.999999    0.00006511
  381      -16.4250591103      -0.0000001618     0.999999    0.00006505
  382      -16.4250592718      -0.0000001614     0.999999    0.00006499
  383      -16.4250594328      -0.0000001610     0.999999    0.00006494
  384      -16.4250595934      -0.0000001606     0.999999    0.00006488
  385      -16.4250597536      -0.0000001602     0.999999    0.00006483
  386      -16.4250599134      -0.0000001598     0.999999    0.00006478
  387      -16.4250600728      -0.0000001594     0.999999    0.00006473
  388      -16.4250602318      -0.0000001590     0.999999    0.00006468
  389      -16.4250603905      -0.0000001587     0.999999    0.00006463
  390      -16.4250605488      -0.0000001583     0.999999    0.00006458
  391      -16.4250607068      -0.0000001579     0.999999    0.00006454
  392      -16.4250608643      -0.0000001576     0.999999    0.00006449
  393      -16.4250610216      -0.0000001572     0.999999    0.00006445
  394      -16.4250611785      -0.0000001569     0.999999    0.00006441
  395      -16.4250613351      -0.0000001566     0.999999    0.00006437
  396      -16.4250614913      -0.0000001562     0.999999    0.00006433
  397      -16.4250616472      -0.0000001559     0.999999    0.00006429
  398      -16.4250618028      -0.0000001556     0.999999    0.00006425
  399      -16.4250619581      -0.0000001553     0.999999    0.00006422
  400      -16.4250621131      -0.0000001550     0.999999    0.00006418
  401      -16.4250622678      -0.0000001547     0.999999    0.00006415
  402      -16.4250624222      -0.0000001544     0.999999    0.00006411
  403      -16.4250625763      -0.0000001541     0.999999    0.00006408
  404      -16.4250627302      -0.0000001538     0.999999    0.00006405
  405      -16.4250628837      -0.0000001536     0.999999    0.00006402
  406      -16.4250630370      -0.0000001533     0.999999    0.00006399
  407      -16.4250631901      -0.0000001530     0.999999    0.00006397
  408      -16.4250633429      -0.0000001528     0.999999    0.00006394
  409      -16.4250634954      -0.0000001525     0.999999    0.00006391
  410      -16.4250636477      -0.0000001523     0.999999    0.00006389
  411      -16.4250637997      -0.0000001521     0.999999    0.00006387
  412      -16.4250639516      -0.0000001518     0.999999    0.00006384
  413      -16.4250641032      -0.0000001516     0.999999    0.00006382
  414      -16.4250642545      -0.0000001514     0.999999    0.00006380
  415      -16.4250644057      -0.0000001512     0.999999    0.00006378
  416      -16.4250645566      -0.0000001509     0.999999    0.00006377
  417      -16.4250647074      -0.0000001507     0.999999    0.00006375
  418      -16.4250648579      -0.0000001505     0.999999    0.00006373
  419      -16.4250650083      -0.0000001503     0.999999    0.00006372
  420      -16.4250651584      -0.0000001502     0.999999    0.00006371
  421      -16.4250653084      -0.0000001500     0.999999    0.00006369
  422      -16.4250654582      -0.0000001498     0.999999    0.00006368
  423      -16.4250656078      -0.0000001496     0.999999    0.00006367
  424      -16.4250657572      -0.0000001495     0.999999    0.00006366
  425      -16.4250659065      -0.0000001493     0.999999    0.00006365
  426      -16.4250660557      -0.0000001491     0.999999    0.00006365
  427      -16.4250662046      -0.0000001490     0.999999    0.00006364
  428      -16.4250663535      -0.0000001488     0.999999    0.00006363
  429      -16.4250665022      -0.0000001487     0.999999    0.00006363
  430      -16.4250666507      -0.0000001485     0.999999    0.00006363
  431      -16.4250667991      -0.0000001484     0.999999    0.00006362
  432      -16.4250669474      -0.0000001483     0.999999    0.00006362
  433      -16.4250670956      -0.0000001482     0.999999    0.00006362
  434      -16.4250672436      -0.0000001480     0.999999    0.00006362
  435      -16.4250673916      -0.0000001479     0.999999    0.00006362
  436      -16.4250675394      -0.0000001478     0.999999    0.00006363
  437      -16.4250676871      -0.0000001477     0.999999    0.00006363
  438      -16.4250678347      -0.0000001476     0.999999    0.00006364
  439      -16.4250679823      -0.0000001475     0.999999    0.00006364
  440      -16.4250681297      -0.0000001474     0.999999    0.00006365
  441      -16.4250682770      -0.0000001474     0.999999    0.00006366
  442      -16.4250684243      -0.0000001473     0.999999    0.00006366
  443      -16.4250685715      -0.0000001472     0.999999    0.00006367
  444      -16.4250687186      -0.0000001471     0.999999    0.00006369
  445      -16.4250688657      -0.0000001471     0.999999    0.00006370
  446      -16.4250690127      -0.0000001470     0.999999    0.00006371
  447      -16.4250691596      -0.0000001469     0.999999    0.00006372
  448      -16.4250693065      -0.0000001469     0.999999    0.00006374
  449      -16.4250694534      -0.0000001468     0.999999    0.00006375
  450      -16.4250696002      -0.0000001468     0.999999    0.00006377
  451      -16.4250697469      -0.0000001468     0.999999    0.00006379
  452      -16.4250698937      -0.0000001467     0.999999    0.00006381
  453      -16.4250700404      -0.0000001467     0.999999    0.00006382
  454      -16.4250701870      -0.0000001467     0.999999    0.00006385
  455      -16.4250703337      -0.0000001467     0.999999    0.00006387
  456      -16.4250704803      -0.0000001466     0.999999    0.00006389
  457      -16.4250706269      -0.0000001466     0.999999    0.00006391
  458      -16.4250707736      -0.0000001466     0.999999    0.00006394
  459      -16.4250709202      -0.0000001466     0.999999    0.00006396
  460      -16.4250710668      -0.0000001466     0.999999    0.00006399
  461      -16.4250712134      -0.0000001466     0.999999    0.00006401
  462      -16.4250713600      -0.0000001466     0.999999    0.00006404
  463      -16.4250715067      -0.0000001466     0.999999    0.00006407
  464      -16.4250716533      -0.0000001467     0.999999    0.00006410
  465      -16.4250718000      -0.0000001467     0.999999    0.00006413
  466      -16.4250719467      -0.0000001467     0.999999    0.00006416
  467      -16.4250720935      -0.0000001467     0.999999    0.00006420
  468      -16.4250722402      -0.0000001468     0.999999    0.00006423
  469      -16.4250723871      -0.0000001468     0.999999    0.00006427
  470      -16.4250725339      -0.0000001469     0.999999    0.00006430
  471      -16.4250726808      -0.0000001469     0.999999    0.00006434
  472      -16.4250728278      -0.0000001470     0.999999    0.00006437
  473      -16.4250729748      -0.0000001470     0.999999    0.00006441
  474      -16.4250731219      -0.0000001471     0.999999    0.00006445
  475      -16.4250732690      -0.0000001471     0.999999    0.00006449
  476      -16.4250734163      -0.0000001472     0.999999    0.00006453
  477      -16.4250735636      -0.0000001473     1.000000    0.00006458
  478      -16.4250737109      -0.0000001474     1.000000    0.00006462
  479      -16.4250738584      -0.0000001474     1.000000    0.00006466
  480      -16.4250740059      -0.0000001475     1.000000    0.00006471
  481      -16.4250741535      -0.0000001476     1.000000    0.00006475
  482      -16.4250743013      -0.0000001477     1.000000    0.00006480
  483      -16.4250744491      -0.0000001478     1.000000    0.00006485
  484      -16.4250745970      -0.0000001479     1.000000    0.00006490
  485      -16.4250747450      -0.0000001480     1.000000    0.00006495
  486      -16.4250748932      -0.0000001481     1.000000    0.00006500
  487      -16.4250750414      -0.0000001483     1.000000    0.00006505
  488      -16.4250751898      -0.0000001484     1.000000    0.00006510
  489      -16.4250753383      -0.0000001485     1.000000    0.00006515
  490      -16.4250754869      -0.0000001486     1.000000    0.00006521
  491      -16.4250756357      -0.0000001488     1.000000    0.00006526
  492      -16.4250757846      -0.0000001489     1.000000    0.00006532
  493      -16.4250759336      -0.0000001490     1.000000    0.00006537
  494      -16.4250760828      -0.0000001492     1.000000    0.00006543
  495      -16.4250762321      -0.0000001493     1.000000    0.00006549
  496      -16.4250763816      -0.0000001495     1.000000    0.00006555
  497      -16.4250765312      -0.0000001496     1.000000    0.00006561
  498      -16.4250766810      -0.0000001498     1.000000    0.00006567
  499      -16.4250768310      -0.0000001500     1.000000    0.00006573
  500      -16.4250769811      -0.0000001501     1.000000    0.00006580
  501      -16.4250771314      -0.0000001503     1.000000    0.00006586
  502      -16.4250772819      -0.0000001505     1.000000    0.00006593
  503      -16.4250774325      -0.0000001507     1.000000    0.00006599
  504      -16.4250775833      -0.0000001508     1.000000    0.00006606
  505      -16.4250777344      -0.0000001510     1.000000    0.00006613
  506      -16.4250778856      -0.0000001512     1.000000    0.00006620
  507      -16.4250780370      -0.0000001514     1.000000    0.00006627
  508      -16.4250781886      -0.0000001516     1.000000    0.00006634
  509      -16.4250783404      -0.0000001518     1.000000    0.00006641
  510      -16.4250784925      -0.0000001520     1.000000    0.00006648
  511      -16.4250786447      -0.0000001522     1.000000    0.00006655
  512      -16.4250787972      -0.0000001525     1.000000    0.00006663
  513      -16.4250789499      -0.0000001527     1.000000    0.00006670
  514      -16.4250791028      -0.0000001529     1.000000    0.00006678
  515      -16.4250792559      -0.0000001531     1.000000    0.00006686
  516      -16.4250794093      -0.0000001534     1.000000    0.00006693
  517      -16.4250795629      -0.0000001536     1.000000    0.00006701
  518      -16.4250797167      -0.0000001538     1.000000    0.00006709
  519      -16.4250798708      -0.0000001541     1.000000    0.00006717
  520      -16.4250800252      -0.0000001543     1.000000    0.00006725
  521      -16.4250801798      -0.0000001546     1.000000    0.00006733
  522      -16.4250803346      -0.0000001549     1.000000    0.00006742
  523      -16.4250804897      -0.0000001551     1.000000    0.00006750
  524      -16.4250806451      -0.0000001554     1.000000    0.00006759
  525      -16.4250808008      -0.0000001557     1.000000    0.00006767
  526      -16.4250809567      -0.0000001559     1.000000    0.00006776
  527      -16.4250811129      -0.0000001562     1.000000    0.00006785
  528      -16.4250812694      -0.0000001565     1.000000    0.00006794
  529      -16.4250814261      -0.0000001568     1.000000    0.00006802
  530      -16.4250815832      -0.0000001571     1.000000    0.00006812
  531      -16.4250817406      -0.0000001574     1.000000    0.00006821
  532      -16.4250818982      -0.0000001577     1.000000    0.00006830
  533      -16.4250820562      -0.0000001580     1.000000    0.00006839
  534      -16.4250822144      -0.0000001583     1.000000    0.00006849
  535      -16.4250823730      -0.0000001586     1.000000    0.00006858
  536      -16.4250825319      -0.0000001589     1.000000    0.00006868
  537      -16.4250826911      -0.0000001592     1.000000    0.00006877
  538      -16.4250828506      -0.0000001595     1.000000    0.00006887
  539      -16.4250830105      -0.0000001599     1.000000    0.00006897
  540      -16.4250831707      -0.0000001602     1.000000    0.00006907
  541      -16.4250833312      -0.0000001605     1.000000    0.00006917
  542      -16.4250834920      -0.0000001609     1.000000    0.00006927
  543      -16.4250836532      -0.0000001612     1.000000    0.00006937
  544      -16.4250838148      -0.0000001616     1.000000    0.00006947
  545      -16.4250839767      -0.0000001619     1.000000    0.00006958
  546      -16.4250841389      -0.0000001623     1.000000    0.00006968
  547      -16.4250843016      -0.0000001626     1.000000    0.00006979
  548      -16.4250844645      -0.0000001630     1.000000    0.00006989
  549      -16.4250846279      -0.0000001634     1.000000    0.00007000
  550      -16.4250847916      -0.0000001637     1.000000    0.00007011
  551      -16.4250849557      -0.0000001641     1.000000    0.00007022
  552      -16.4250851202      -0.0000001645     1.000000    0.00007033
  553      -16.4250852851      -0.0000001649     1.000000    0.00007044
  554      -16.4250854503      -0.0000001653     1.000000    0.00007055
  555      -16.4250856160      -0.0000001656     1.000000    0.00007066
  556      -16.4250857820      -0.0000001660     1.000000    0.00007077
  557      -16.4250859484      -0.0000001664     1.000000    0.00007089
  558      -16.4250861153      -0.0000001669     1.000000    0.00007100
  559      -16.4250862826      -0.0000001673     1.000000    0.00007112
  560      -16.4250864502      -0.0000001677     1.000000    0.00007124
  561      -16.4250866183      -0.0000001681     1.000000    0.00007135
  562      -16.4250867868      -0.0000001685     1.000000    0.00007147
  563      -16.4250869558      -0.0000001689     1.000000    0.00007159
  564      -16.4250871252      -0.0000001694     1.000000    0.00007171
  565      -16.4250872950      -0.0000001698     1.000000    0.00007183
  566      -16.4250874652      -0.0000001702     1.000000    0.00007196
  567      -16.4250876359      -0.0000001707     1.000000    0.00007208
  568      -16.4250878070      -0.0000001711     1.000000    0.00007220
  569      -16.4250879786      -0.0000001716     1.000000    0.00007233
  570      -16.4250881507      -0.0000001720     1.000000    0.00007245
  571      -16.4250883232      -0.0000001725     1.000000    0.00007258
  572      -16.4250884961      -0.0000001730     1.000000    0.00007271
  573      -16.4250886696      -0.0000001734     1.000000    0.00007283
  574      -16.4250888435      -0.0000001739     1.000000    0.00007296
  575      -16.4250890179      -0.0000001744     1.000000    0.00007309
  576      -16.4250891927      -0.0000001749     1.000000    0.00007322
  577      -16.4250893681      -0.0000001754     1.000000    0.00007336
  578      -16.4250895439      -0.0000001758     1.000000    0.00007349
  579      -16.4250897202      -0.0000001763     1.000000    0.00007362
  580      -16.4250898971      -0.0000001768     1.000000    0.00007376
  581      -16.4250900744      -0.0000001773     1.000000    0.00007389
  582      -16.4250902523      -0.0000001778     1.000000    0.00007403
  583      -16.4250904306      -0.0000001784     1.000000    0.00007416
  584      -16.4250906095      -0.0000001789     1.000000    0.00007430
  585      -16.4250907889      -0.0000001794     1.000000    0.00007444
  586      -16.4250909688      -0.0000001799     1.000000    0.00007458
  587      -16.4250911492      -0.0000001804     1.000000    0.00007472
  588      -16.4250913302      -0.0000001810     1.000000    0.00007486
  589      -16.4250915117      -0.0000001815     1.000000    0.00007500
  590      -16.4250916937      -0.0000001820     1.000000    0.00007514
  591      -16.4250918763      -0.0000001826     1.000000    0.00007528
  592      -16.4250920595      -0.0000001831     1.000000    0.00007543
  593      -16.4250922431      -0.0000001837     1.000000    0.00007557
  594      -16.4250924274      -0.0000001842     1.000000    0.00007572
  595      -16.4250926122      -0.0000001848     1.000000    0.00007587
  596      -16.4250927976      -0.0000001854     1.000000    0.00007601
  597      -16.4250929835      -0.0000001859     1.000000    0.00007616
  598      -16.4250931700      -0.0000001865     1.000000    0.00007631
  599      -16.4250933571      -0.0000001871     1.000000    0.00007646
  600      -16.4250935448      -0.0000001877     1.000000    0.00007661
  601      -16.4250937331      -0.0000001883     1.000000    0.00007676
  602      -16.4250939219      -0.0000001889     1.000000    0.00007691
  603      -16.4250941114      -0.0000001895     1.000000    0.00007707
  604      -16.4250943014      -0.0000001900     1.000000    0.00007722
  605      -16.4250944921      -0.0000001907     1.000000    0.00007738
  606      -16.4250946834      -0.0000001913     1.000000    0.00007753
  607      -16.4250948752      -0.0000001919     1.000000    0.00007769
  608      -16.4250950677      -0.0000001925     1.000000    0.00007784
  609      -16.4250952608      -0.0000001931     1.000000    0.00007800
  610      -16.4250954546      -0.0000001937     1.000000    0.00007816
  611      -16.4250956489      -0.0000001944     1.000000    0.00007832
  612      -16.4250958439      -0.0000001950     1.000000    0.00007848
  613      -16.4250960395      -0.0000001956     1.000000    0.00007864
  614      -16.4250962358      -0.0000001963     1.000000    0.00007880
  615      -16.4250964327      -0.0000001969     1.000000    0.00007896
  616      -16.4250966303      -0.0000001976     1.000000    0.00007912
  617      -16.4250968285      -0.0000001982     1.000000    0.00007929
  618      -16.4250970274      -0.0000001989     1.000000    0.00007945
  619      -16.4250972269      -0.0000001995     1.000000    0.00007962
  620      -16.4250974271      -0.0000002002     1.000000    0.00007978
  621      -16.4250976279      -0.0000002009     1.000000    0.00007995
  622      -16.4250978295      -0.0000002015     1.000000    0.00008012
  623      -16.4250980317      -0.0000002022     1.000000    0.00008028
  624      -16.4250982346      -0.0000002029     1.000000    0.00008045
  625      -16.4250984382      -0.0000002036     1.000000    0.00008062
  626      -16.4250986424      -0.0000002043     1.000000    0.00008079
  627      -16.4250988474      -0.0000002050     1.000000    0.00008096
  628      -16.4250990530      -0.0000002057     1.000000    0.00008113
  629      -16.4250992594      -0.0000002064     1.000000    0.00008131
  630      -16.4250994664      -0.0000002071     1.000000    0.00008148
  631      -16.4250996742      -0.0000002078     1.000000    0.00008165
  632      -16.4250998827      -0.0000002085     1.000000    0.00008182
  633      -16.4251000919      -0.0000002092     1.000000    0.00008200
  634      -16.4251003018      -0.0000002099     1.000000    0.00008217
  635      -16.4251005124      -0.0000002106     1.000000    0.00008235
  636      -16.4251007238      -0.0000002114     1.000000    0.00008253
  637      -16.4251009359      -0.0000002121     1.000000    0.00008270
  638      -16.4251011487      -0.0000002128     1.000000    0.00008288
  639      -16.4251013623      -0.0000002136     1.000000    0.00008306
  640      -16.4251015766      -0.0000002143     1.000000    0.00008324
  641      -16.4251017916      -0.0000002150     1.000000    0.00008342
  642      -16.4251020074      -0.0000002158     1.000000    0.00008360
  643      -16.4251022239      -0.0000002165     1.000000    0.00008378
  644      -16.4251024412      -0.0000002173     1.000000    0.00008396
  645      -16.4251026593      -0.0000002181     1.000000    0.00008414
  646      -16.4251028781      -0.0000002188     1.000000    0.00008432
  647      -16.4251030977      -0.0000002196     1.000000    0.00008451
  648      -16.4251033181      -0.0000002204     1.000000    0.00008469
  649      -16.4251035392      -0.0000002211     1.000000    0.00008487
  650      -16.4251037611      -0.0000002219     1.000000    0.00008506
  651      -16.4251039838      -0.0000002227     1.000000    0.00008524
  652      -16.4251042072      -0.0000002235     1.000000    0.00008543
  653      -16.4251044315      -0.0000002242     1.000000    0.00008561
  654      -16.4251046565      -0.0000002250     1.000000    0.00008580
  655      -16.4251048823      -0.0000002258     1.000000    0.00008599
  656      -16.4251051089      -0.0000002266     1.000000    0.00008617
  657      -16.4251053364      -0.0000002274     1.000000    0.00008636
  658      -16.4251055646      -0.0000002282     1.000000    0.00008655
  659      -16.4251057936      -0.0000002290     1.000000    0.00008674
  660      -16.4251060234      -0.0000002298     1.000000    0.00008693
  661      -16.4251062540      -0.0000002306     1.000000    0.00008711
  662      -16.4251064855      -0.0000002314     1.000000    0.00008730
  663      -16.4251067177      -0.0000002323     1.000000    0.00008749
  664      -16.4251069508      -0.0000002331     1.000000    0.00008768
  665      -16.4251071847      -0.0000002339     1.000000    0.00008787
  666      -16.4251074194      -0.0000002347     1.000000    0.00008807
  667      -16.4251076549      -0.0000002355     1.000000    0.00008826
  668      -16.4251078913      -0.0000002364     1.000000    0.00008845
  669      -16.4251081285      -0.0000002372     1.000000    0.00008864
  670      -16.4251083665      -0.0000002380     1.000000    0.00008883
  671      -16.4251086054      -0.0000002389     1.000000    0.00008903
  672      -16.4251088451      -0.0000002397     1.000000    0.00008922
  673      -16.4251090856      -0.0000002405     1.000000    0.00008941
  674      -16.4251093269      -0.0000002414     1.000000    0.00008961
  675      -16.4251095691      -0.0000002422     1.000000    0.00008980
  676      -16.4251098122      -0.0000002430     1.000000    0.00008999
  677      -16.4251100561      -0.0000002439     1.000000    0.00009019
  678      -16.4251103008      -0.0000002447     1.000000    0.00009038
  679      -16.4251105464      -0.0000002456     1.000000    0.00009058
  680      -16.4251107929      -0.0000002464     1.000000    0.00009077
  681      -16.4251110401      -0.0000002473     1.000000    0.00009096
  682      -16.4251112883      -0.0000002481     1.000000    0.00009116
  683      -16.4251115373      -0.0000002490     1.000000    0.00009135
  684      -16.4251117871      -0.0000002499     1.000000    0.00009155
  685      -16.4251120379      -0.0000002507     1.000000    0.00009174
  686      -16.4251122894      -0.0000002516     1.000000    0.00009194
  687      -16.4251125418      -0.0000002524     1.000000    0.00009213
  688      -16.4251127951      -0.0000002533     1.000000    0.00009233
  689      -16.4251130493      -0.0000002541     1.000000    0.00009252
  690      -16.4251133043      -0.0000002550     1.000000    0.00009272
  691      -16.4251135602      -0.0000002559     1.000000    0.00009292
  692      -16.4251138169      -0.0000002567     1.000000    0.00009311
  693      -16.4251140745      -0.0000002576     1.000000    0.00009331
  694      -16.4251143330      -0.0000002585     1.000000    0.00009350
  695      -16.4251145923      -0.0000002593     1.000000    0.00009370
  696      -16.4251148525      -0.0000002602     1.000000    0.00009389
  697      -16.4251151135      -0.0000002611     1.000000    0.00009409
  698      -16.4251153755      -0.0000002619     1.000000    0.00009428
  699      -16.4251156382      -0.0000002628     1.000000    0.00009447
  700      -16.4251159019      -0.0000002636     1.000000    0.00009467
  701      -16.4251161664      -0.0000002645     1.000000    0.00009486
  702      -16.4251164318      -0.0000002654     1.000000    0.00009506
  703      -16.4251166980      -0.0000002662     1.000000    0.00009525
  704      -16.4251169651      -0.0000002671     1.000000    0.00009544
  705      -16.4251172331      -0.0000002680     1.000000    0.00009564
  706      -16.4251175019      -0.0000002688     1.000000    0.00009583
  707      -16.4251177716      -0.0000002697     1.000000    0.00009602
  708      -16.4251180421      -0.0000002705     1.000000    0.00009621
  709      -16.4251183135      -0.0000002714     1.000000    0.00009641
  710      -16.4251185858      -0.0000002723     1.000000    0.00009660
  711      -16.4251188589      -0.0000002731     1.000000    0.00009679
  712      -16.4251191329      -0.0000002740     1.000000    0.00009698
  713      -16.4251194077      -0.0000002748     1.000000    0.00009717
  714      -16.4251196834      -0.0000002757     1.000000    0.00009736
  715      -16.4251199599      -0.0000002765     1.000000    0.00009755
  716      -16.4251202373      -0.0000002774     1.000000    0.00009774
  717      -16.4251205155      -0.0000002782     1.000000    0.00009793
  718      -16.4251207945      -0.0000002791     1.000000    0.00009811
  719      -16.4251210744      -0.0000002799     1.000000    0.00009830
  720      -16.4251213551      -0.0000002807     1.000000    0.00009849
  721      -16.4251216367      -0.0000002816     1.000000    0.00009867
  722      -16.4251219191      -0.0000002824     1.000000    0.00009886
  723      -16.4251222023      -0.0000002832     1.000000    0.00009904
  724      -16.4251224864      -0.0000002840     1.000000    0.00009923
  725      -16.4251227712      -0.0000002849     1.000000    0.00009941
  726      -16.4251230569      -0.0000002857     1.000000    0.00009959
  727      -16.4251233434      -0.0000002865     1.000000    0.00009978
  728      -16.4251236307      -0.0000002873     1.000000    0.00009996
  729      -16.4251239189      -0.0000002881     1.000000    0.00010014
  730      -16.4251242078      -0.0000002889     1.000000    0.00010032
  731      -16.4251244975      -0.0000002897     1.000000    0.00010049
  732      -16.4251247880      -0.0000002905     1.000000    0.00010067
  733      -16.4251250793      -0.0000002913     1.000000    0.00010085
  734      -16.4251253714      -0.0000002921     1.000000    0.00010102
  735      -16.4251256643      -0.0000002929     1.000000    0.00010120
  736      -16.4251259580      -0.0000002937     1.000000    0.00010137
  737      -16.4251262524      -0.0000002944     1.000000    0.00010155
  738      -16.4251265476      -0.0000002952     1.000000    0.00010172
  739      -16.4251268435      -0.0000002960     1.000000    0.00010189
  740      -16.4251271402      -0.0000002967     1.000000    0.00010206
  741      -16.4251274377      -0.0000002975     1.000000    0.00010223
  742      -16.4251277359      -0.0000002982     1.000000    0.00010239
  743      -16.4251280348      -0.0000002989     1.000000    0.00010256
  744      -16.4251283345      -0.0000002997     1.000000    0.00010273
  745      -16.4251286349      -0.0000003004     1.000000    0.00010289
  746      -16.4251289360      -0.0000003011     1.000000    0.00010305
  747      -16.4251292378      -0.0000003018     1.000000    0.00010321
  748      -16.4251295404      -0.0000003025     1.000000    0.00010337
  749      -16.4251298436      -0.0000003032     1.000000    0.00010353
  750      -16.4251301475      -0.0000003039     1.000000    0.00010369
  751      -16.4251304521      -0.0000003046     1.000000    0.00010384
  752      -16.4251307574      -0.0000003053     1.000000    0.00010400
  753      -16.4251310633      -0.0000003059     1.000000    0.00010415
  754      -16.4251313699      -0.0000003066     1.000000    0.00010430
  755      -16.4251316772      -0.0000003073     1.000000    0.00010445
  756      -16.4251319851      -0.0000003079     1.000000    0.00010460
  757      -16.4251322937      -0.0000003085     1.000000    0.00010475
  758      -16.4251326028      -0.0000003092     1.000000    0.00010489
  759      -16.4251329126      -0.0000003098     1.000000    0.00010504
  760      -16.4251332230      -0.0000003104     1.000000    0.00010518
  761      -16.4251335340      -0.0000003110     1.000000    0.00010532
  762      -16.4251338456      -0.0000003116     1.000000    0.00010546
  763      -16.4251341578      -0.0000003122     1.000000    0.00010560
  764      -16.4251344705      -0.0000003127     1.000000    0.00010573
  765      -16.4251347838      -0.0000003133     1.000000    0.00010586
  766      -16.4251350977      -0.0000003139     1.000000    0.00010600
  767      -16.4251354121      -0.0000003144     1.000000    0.00010613
  768      -16.4251357270      -0.0000003149     1.000000    0.00010625
  769      -16.4251360425      -0.0000003155     1.000000    0.00010638
  770      -16.4251363584      -0.0000003160     1.000000    0.00010650
  771      -16.4251366749      -0.0000003165     1.000000    0.00010663
  772      -16.4251369919      -0.0000003170     1.000000    0.00010675
  773      -16.4251373093      -0.0000003174     1.000000    0.00010686
  774      -16.4251376272      -0.0000003179     1.000000    0.00010698
  775      -16.4251379456      -0.0000003184     1.000000    0.00010709
  776      -16.4251382644      -0.0000003188     1.000000    0.00010721
  777      -16.4251385836      -0.0000003192     1.000000    0.00010732
  778      -16.4251389033      -0.0000003197     1.000000    0.00010742
  779      -16.4251392234      -0.0000003201     1.000000    0.00010753
  780      -16.4251395438      -0.0000003205     1.000000    0.00010763
  781      -16.4251398647      -0.0000003208     1.000000    0.00010773
  782      -16.4251401859      -0.0000003212     1.000000    0.00010783
  783      -16.4251405075      -0.0000003216     1.000000    0.00010793
  784      -16.4251408294      -0.0000003219     1.000000    0.00010802
  785      -16.4251411516      -0.0000003223     1.000000    0.00010811
  786      -16.4251414742      -0.0000003226     1.000000    0.00010820
  787      -16.4251417971      -0.0000003229     1.000000    0.00010829
  788      -16.4251421202      -0.0000003232     1.000000    0.00010838
  789      -16.4251424437      -0.0000003234     1.000000    0.00010846
  790      -16.4251427674      -0.0000003237     1.000000    0.00010854
  791      -16.4251430914      -0.0000003240     1.000000    0.00010861
  792      -16.4251434156      -0.0000003242     1.000000    0.00010869
  793      -16.4251437400      -0.0000003244     1.000000    0.00010876
  794      -16.4251440646      -0.0000003246     1.000000    0.00010883
  795      -16.4251443894      -0.0000003248     1.000000    0.00010890
  796      -16.4251447144      -0.0000003250     1.000000    0.00010896
  797      -16.4251450396      -0.0000003252     1.000000    0.00010902
  798      -16.4251453649      -0.0000003253     1.000000    0.00010908
  799      -16.4251456903      -0.0000003254     1.000000    0.00010914
  800      -16.4251460159      -0.0000003256     1.000000    0.00010919
  801      -16.4251463416      -0.0000003257     1.000000    0.00010924
  802      -16.4251466673      -0.0000003257     1.000000    0.00010929
  803      -16.4251469931      -0.0000003258     1.000000    0.00010933
  804      -16.4251473190      -0.0000003259     1.000000    0.00010937
  805      -16.4251476449      -0.0000003259     1.000000    0.00010941
  806      -16.4251479708      -0.0000003259     1.000000    0.00010945
  807      -16.4251482968      -0.0000003259     1.000000    0.00010948
  808      -16.4251486227      -0.0000003259     1.000000    0.00010951
  809      -16.4251489486      -0.0000003259     1.000000    0.00010954
  810      -16.4251492745      -0.0000003259     1.000000    0.00010957
  811      -16.4251496003      -0.0000003258     1.000000    0.00010959
  812      -16.4251499261      -0.0000003257     1.000000    0.00010961
  813      -16.4251502517      -0.0000003256     1.000000    0.00010962
  814      -16.4251505772      -0.0000003255     1.000000    0.00010963
  815      -16.4251509027      -0.0000003254     1.000000    0.00010964
  816      -16.4251512279      -0.0000003253     1.000000    0.00010965
  817      -16.4251515531      -0.0000003251     1.000000    0.00010965
  818      -16.4251518780      -0.0000003249     1.000000    0.00010965
  819      -16.4251522027      -0.0000003247     1.000000    0.00010965
  820      -16.4251525273      -0.0000003245     1.000000    0.00010964
  821      -16.4251528516      -0.0000003243     1.000000    0.00010963
  822      -16.4251531756      -0.0000003241     1.000000    0.00010962
  823      -16.4251534995      -0.0000003238     1.000000    0.00010961
  824      -16.4251538230      -0.0000003235     1.000000    0.00010959
  825      -16.4251541462      -0.0000003232     1.000000    0.00010956
  826      -16.4251544691      -0.0000003229     1.000000    0.00010954
  827      -16.4251547917      -0.0000003226     1.000000    0.00010951
  828      -16.4251551139      -0.0000003222     1.000000    0.00010948
  829      -16.4251554358      -0.0000003219     1.000000    0.00010944
  830      -16.4251557573      -0.0000003215     1.000000    0.00010940
  831      -16.4251560783      -0.0000003211     1.000000    0.00010936
  832      -16.4251563990      -0.0000003207     1.000000    0.00010932
  833      -16.4251567192      -0.0000003202     1.000000    0.00010927
  834      -16.4251570390      -0.0000003198     1.000000    0.00010922
  835      -16.4251573583      -0.0000003193     1.000000    0.00010916
  836      -16.4251576771      -0.0000003188     1.000000    0.00010910
  837      -16.4251579954      -0.0000003183     1.000000    0.00010904
  838      -16.4251583131      -0.0000003178     1.000000    0.00010897
  839      -16.4251586304      -0.0000003172     1.000000    0.00010890
  840      -16.4251589470      -0.0000003167     1.000000    0.00010883
  841      -16.4251592631      -0.0000003161     1.000000    0.00010876
  842      -16.4251595786      -0.0000003155     1.000000    0.00010868
  843      -16.4251598935      -0.0000003149     1.000000    0.00010859
  844      -16.4251602077      -0.0000003142     1.000000    0.00010851
  845      -16.4251605213      -0.0000003136     1.000000    0.00010842
  846      -16.4251608342      -0.0000003129     1.000000    0.00010833
  847      -16.4251611465      -0.0000003122     1.000000    0.00010823
  848      -16.4251614580      -0.0000003115     1.000000    0.00010813
  849      -16.4251617689      -0.0000003108     1.000000    0.00010803
  850      -16.4251620789      -0.0000003101     1.000000    0.00010792
  851      -16.4251623883      -0.0000003093     1.000000    0.00010781
  852      -16.4251626969      -0.0000003086     1.000000    0.00010770
  853      -16.4251630046      -0.0000003078     1.000000    0.00010758
  854      -16.4251633116      -0.0000003070     1.000000    0.00010746
  855      -16.4251636178      -0.0000003062     1.000000    0.00010733
  856      -16.4251639231      -0.0000003053     1.000000    0.00010721
  857      -16.4251642276      -0.0000003045     1.000000    0.00010708
  858      -16.4251645312      -0.0000003036     1.000000    0.00010694
  859      -16.4251648339      -0.0000003027     1.000000    0.00010681
  860      -16.4251651357      -0.0000003018     1.000000    0.00010666
  861      -16.4251654366      -0.0000003009     1.000000    0.00010652
  862      -16.4251657366      -0.0000003000     1.000000    0.00010637
  863      -16.4251660356      -0.0000002990     1.000000    0.00010622
  864      -16.4251663337      -0.0000002981     1.000000    0.00010607
  865      -16.4251666307      -0.0000002971     1.000000    0.00010591
  866      -16.4251669268      -0.0000002961     1.000000    0.00010575
  867      -16.4251672219      -0.0000002951     1.000000    0.00010558
  868      -16.4251675159      -0.0000002940     1.000000    0.00010541
  869      -16.4251678089      -0.0000002930     1.000000    0.00010524
  870      -16.4251681009      -0.0000002919     1.000000    0.00010507
  871      -16.4251683917      -0.0000002909     1.000000    0.00010489
  872      -16.4251686815      -0.0000002898     1.000000    0.00010471
  873      -16.4251689702      -0.0000002887     1.000000    0.00010452
  874      -16.4251692577      -0.0000002876     1.000000    0.00010434
  875      -16.4251695442      -0.0000002864     1.000000    0.00010415
  876      -16.4251698295      -0.0000002853     1.000000    0.00010395
  877      -16.4251701136      -0.0000002841     1.000000    0.00010375
  878      -16.4251703966      -0.0000002830     1.000000    0.00010355
  879      -16.4251706784      -0.0000002818     1.000000    0.00010335
  880      -16.4251709590      -0.0000002806     1.000000    0.00010314
  881      -16.4251712384      -0.0000002794     1.000000    0.00010293
  882      -16.4251715165      -0.0000002782     1.000000    0.00010272
  883      -16.4251717935      -0.0000002769     1.000000    0.00010250
  884      -16.4251720691      -0.0000002757     1.000000    0.00010228
  885      -16.4251723436      -0.0000002744     1.000000    0.00010206
  886      -16.4251726167      -0.0000002732     1.000000    0.00010183
  887      -16.4251728886      -0.0000002719     1.000000    0.00010160
  888      -16.4251731592      -0.0000002706     1.000000    0.00010137
  889      -16.4251734284      -0.0000002693     1.000000    0.00010114
  890      -16.4251736964      -0.0000002680     1.000000    0.00010090
  891      -16.4251739630      -0.0000002666     1.000000    0.00010066
  892      -16.4251742283      -0.0000002653     1.000000    0.00010041
  893      -16.4251744923      -0.0000002639     1.000000    0.00010017
  894      -16.4251747548      -0.0000002626     1.000000    0.00009992
  895      -16.4251750161      -0.0000002612     1.000000    0.00009966
  896      -16.4251752759      -0.0000002598     1.000000    0.00009941
  897      -16.4251755344      -0.0000002585     1.000000    0.00009915
  898      -16.4251757914      -0.0000002571     1.000000    0.00009889
  899      -16.4251760471      -0.0000002557     1.000000    0.00009863
  900      -16.4251763013      -0.0000002542     1.000000    0.00009836
  901      -16.4251765541      -0.0000002528     1.000000    0.00009809
  902      -16.4251768055      -0.0000002514     1.000000    0.00009782
  903      -16.4251770555      -0.0000002499     1.000000    0.00009755
  904      -16.4251773040      -0.0000002485     1.000000    0.00009727
  905      -16.4251775510      -0.0000002470     1.000000    0.00009699
  906      -16.4251777966      -0.0000002456     1.000000    0.00009671
  907      -16.4251780407      -0.0000002441     1.000000    0.00009642
  908      -16.4251782834      -0.0000002426     1.000000    0.00009614
  909      -16.4251785245      -0.0000002412     1.000000    0.00009585
  910      -16.4251787642      -0.0000002397     1.000000    0.00009555
  911      -16.4251790024      -0.0000002382     1.000000    0.00009526
  912      -16.4251792390      -0.0000002367     1.000000    0.00009496
  913      -16.4251794742      -0.0000002352     1.000000    0.00009466
  914      -16.4251797079      -0.0000002337     1.000000    0.00009436
  915      -16.4251799400      -0.0000002321     1.000000    0.00009406
  916      -16.4251801706      -0.0000002306     1.000000    0.00009375
  917      -16.4251803997      -0.0000002291     1.000000    0.00009345
  918      -16.4251806273      -0.0000002276     1.000000    0.00009314
  919      -16.4251808533      -0.0000002260     1.000000    0.00009282
  920      -16.4251810778      -0.0000002245     1.000000    0.00009251
  921      -16.4251813008      -0.0000002229     1.000000    0.00009219
  922      -16.4251815222      -0.0000002214     1.000000    0.00009187
  923      -16.4251817420      -0.0000002199     1.000000    0.00009155
  924      -16.4251819603      -0.0000002183     1.000000    0.00009123
  925      -16.4251821771      -0.0000002167     1.000000    0.00009091
  926      -16.4251823923      -0.0000002152     1.000000    0.00009058
  927      -16.4251826059      -0.0000002136     1.000000    0.00009025
  928      -16.4251828180      -0.0000002121     1.000000    0.00008992
  929      -16.4251830285      -0.0000002105     1.000000    0.00008959
  930      -16.4251832374      -0.0000002089     1.000000    0.00008926
  931      -16.4251834448      -0.0000002074     1.000000    0.00008892
  932      -16.4251836506      -0.0000002058     1.000000    0.00008859
  933      -16.4251838549      -0.0000002042     1.000000    0.00008825
  934      -16.4251840576      -0.0000002027     1.000000    0.00008791
  935      -16.4251842587      -0.0000002011     1.000000    0.00008757
  936      -16.4251844582      -0.0000001995     1.000000    0.00008722
  937      -16.4251846562      -0.0000001980     1.000000    0.00008688
  938      -16.4251848526      -0.0000001964     1.000000    0.00008653
  939      -16.4251850474      -0.0000001948     1.000000    0.00008619
  940      -16.4251852407      -0.0000001933     1.000000    0.00008584
  941      -16.4251854324      -0.0000001917     1.000000    0.00008549
  942      -16.4251856226      -0.0000001901     1.000000    0.00008514
  943      -16.4251858112      -0.0000001886     1.000000    0.00008478
  944      -16.4251859982      -0.0000001870     1.000000    0.00008443
  945      -16.4251861836      -0.0000001855     1.000000    0.00008408
  946      -16.4251863675      -0.0000001839     1.000000    0.00008372
  947      -16.4251865499      -0.0000001824     1.000000    0.00008336
  948      -16.4251867307      -0.0000001808     1.000000    0.00008300
  949      -16.4251869099      -0.0000001792     1.000000    0.00008264
  950      -16.4251870876      -0.0000001777     1.000000    0.00008228
  951      -16.4251872638      -0.0000001762     1.000000    0.00008192
  952      -16.4251874384      -0.0000001746     1.000000    0.00008156
  953      -16.4251876115      -0.0000001731     1.000000    0.00008120
  954      -16.4251877830      -0.0000001715     1.000000    0.00008083
  955      -16.4251879530      -0.0000001700     1.000000    0.00008047
  956      -16.4251881215      -0.0000001685     1.000000    0.00008010
  957      -16.4251882885      -0.0000001670     1.000000    0.00007974
  958      -16.4251884539      -0.0000001654     1.000000    0.00007937
  959      -16.4251886179      -0.0000001639     1.000000    0.00007900
  960      -16.4251887803      -0.0000001624     1.000000    0.00007863
  961      -16.4251889412      -0.0000001609     1.000000    0.00007826
  962      -16.4251891006      -0.0000001594     1.000000    0.00007789
  963      -16.4251892586      -0.0000001579     1.000000    0.00007752
  964      -16.4251894150      -0.0000001564     1.000000    0.00007715
  965      -16.4251895700      -0.0000001550     1.000000    0.00007678
  966      -16.4251897234      -0.0000001535     1.000000    0.00007641
  967      -16.4251898754      -0.0000001520     1.000000    0.00007604
  968      -16.4251900260      -0.0000001505     1.000000    0.00007566
  969      -16.4251901751      -0.0000001491     1.000000    0.00007529
  970      -16.4251903227      -0.0000001476     1.000000    0.00007492
  971      -16.4251904688      -0.0000001462     1.000000    0.00007454
  972      -16.4251906136      -0.0000001447     1.000000    0.00007417
  973      -16.4251907569      -0.0000001433     1.000000    0.00007380
  974      -16.4251908987      -0.0000001419     1.000000    0.00007342
  975      -16.4251910392      -0.0000001404     1.000000    0.00007305
  976      -16.4251911782      -0.0000001390     1.000000    0.00007267
  977      -16.4251913158      -0.0000001376     1.000000    0.00007230
  978      -16.4251914521      -0.0000001362     1.000000    0.00007193
  979      -16.4251915869      -0.0000001348     1.000000    0.00007155
  980      -16.4251917203      -0.0000001334     1.000000    0.00007118
  981      -16.4251918524      -0.0000001321     1.000000    0.00007080
  982      -16.4251919831      -0.0000001307     1.000000    0.00007043
  983      -16.4251921124      -0.0000001293     1.000000    0.00007005
  984      -16.4251922404      -0.0000001280     1.000000    0.00006968
  985      -16.4251923670      -0.0000001266     1.000000    0.00006930
  986      -16.4251924923      -0.0000001253     1.000000    0.00006893
  987      -16.4251926162      -0.0000001239     1.000000    0.00006856
  988      -16.4251927388      -0.0000001226     1.000000    0.00006818
  989      -16.4251928601      -0.0000001213     1.000000    0.00006781
  990      -16.4251929801      -0.0000001200     1.000000    0.00006744
  991      -16.4251930988      -0.0000001187     1.000000    0.00006707
  992      -16.4251932162      -0.0000001174     1.000000    0.00006669
  993      -16.4251933323      -0.0000001161     1.000000    0.00006632
  994      -16.4251934472      -0.0000001148     1.000000    0.00006595
  995      -16.4251935608      -0.0000001136     1.000000    0.00006558
  996      -16.4251936731      -0.0000001123     1.000000    0.00006521
  997      -16.4251937841      -0.0000001111     1.000000    0.00006484
  998      -16.4251938940      -0.0000001098     1.000000    0.00006447
  999      -16.4251940026      -0.0000001086     1.000000    0.00006410
 1000      -16.4251941099      -0.0000001074     1.000000    0.00006373

Total Energy:                      -16.4251941099 H         -446.9523 eV
Extrapolated to 0:                 -16.3733336439 H         -445.5411 eV

----------------------------------------------------------------------------------
 Solving CP-REKS equation for  1 state vector...
----------------------------------------------------------------------------------
  CG solver: Constructing Y initial guess
  CG solver: Iteration    1    eps =    0.067767739062
  CG solver: Iteration    2    eps =    0.075227173710
  CG solver: Iteration    3    eps =    0.077202787776
  CG solver: Iteration    4    eps =    0.307654279482
  CG solver: Iteration    5    eps =    0.445344177834
  CG solver: Iteration    6    eps =    0.059269541234
  CG solver: Iteration    7    eps =    0.016267291666
  CG solver: Iteration    8    eps =    0.005444338982
  CG solver: Iteration    9    eps =    0.000250799885
  CG solver: Iteration   10    eps =    0.000038673705
  CG solver: Iteration   11    eps =    0.000032115668
  CG solver: Iteration   12    eps =    0.000006642404
  CG solver: Iteration   13    eps =    0.000000576570
  CG solver: Iteration   14    eps =    0.000000070469
  CG solver: Iteration   15    eps =    0.000000005751
  Convergence reached in CG solver after   15 iterations
  CG solver: Calculating converged R, Z, Q2 matrix
----------------------------------------------------------------------------------

----------------------------------------------------------------------------------
 Solving CP-REKS equation for SI between  1 and  2 state vectors...
----------------------------------------------------------------------------------
  CG solver: Constructing Y initial guess
  CG solver: Iteration    1    eps =    0.008751010029
  CG solver: Iteration    2    eps =    0.002072501315
  CG solver: Iteration    3    eps =    0.000224477255
  CG solver: Iteration    4    eps =    0.000226544912
  CG solver: Iteration    5    eps =    0.000012157511
  CG solver: Iteration    6    eps =    0.000006206737
  CG solver: Iteration    7    eps =    0.000016510125
  CG solver: Iteration    8    eps =    0.000026151096
  CG solver: Iteration    9    eps =    0.000069401184
  CG solver: Iteration   10    eps =    0.000049427804
  CG solver: Iteration   11    eps =    0.000004545552
  CG solver: Iteration   12    eps =    0.000000522216
  CG solver: Iteration   13    eps =    0.000000057219
  CG solver: Iteration   14    eps =    0.000000004563
  Convergence reached in CG solver after   14 iterations
  CG solver: Calculating converged R, Z, Q2 matrix
----------------------------------------------------------------------------------

--------------------------------------------------
 Gradient Information
--------------------------------------------------
           1 st state (SSR)
     0.00000000     0.00000000     0.00000000
     0.00000000     0.00000000     0.00000000
     0.00000000     0.00000000     0.00000000
     0.00000000     0.00000000     0.00000000
     0.00000000     0.00000000     0.00000000
     0.00000000     0.00000000     0.00000000
     0.00000000     0.00000000     0.00000000
     0.00000000     0.00000000     0.00000000
     0.00000000     0.00000000     0.00000000
     0.00000000     0.00000000     0.00000000
     0.00000000     0.00000000     0.00000000
     0.00000000     0.00000000     0.00000000
     0.00000000     0.00000000     0.00000000
     0.00000000     0.00000000     0.00000000

           2 st state (SSR)
     0.00000000     0.00000000     0.00000000
     0.00000000     0.00000000     0.00000000
     0.00000000     0.00000000     0.00000000
     0.00000000     0.00000000     0.00000000
     0.00000000     0.00000000     0.00000000
     0.00000000     0.00000000     0.00000000
     0.00000000     0.00000000     0.00000000
     0.00000000     0.00000000     0.00000000
     0.00000000     0.00000000     0.00000000
     0.00000000     0.00000000     0.00000000
     0.00000000     0.00000000     0.00000000
     0.00000000     0.00000000     0.00000000
     0.00000000     0.00000000     0.00000000
     0.00000000     0.00000000     0.00000000
--------------------------------------------------
 Coupling Information
--------------------------------------------------
 between  1 and  2 states
--------------------------------------------------
 g vector - difference gradient
     0.55690541     2.28696826    -1.41934273
    -1.09287881    -2.82601096     1.58163157
     0.07576278    -0.11053659     0.02789239
     0.06926244    -0.13923351    -0.08031776
     0.05374940     0.14578921     0.12150142
     0.18899289     0.41109096    -0.15841223
    -0.03542700    -0.34490104     0.05569068
    -0.01712181     0.14695395     0.04339465
     0.21343336    -0.05656842    -0.01529089
    -0.14359282     0.37840661    -0.21215511
    -0.02520494    -0.07997594    -0.02941278
     0.18350692     0.19658373     0.05681746
     0.00221943    -0.01348664     0.06894074
    -0.02960725     0.00492037    -0.04093742

 h vector - derivative coupling
     0.00854510     0.01839569    -0.01416163
    -0.01430065    -0.02408072     0.01674941
     0.00191079     0.00035893     0.00111863
    -0.00110256    -0.00042547    -0.00215054
     0.00391437     0.00026214     0.00106758
    -0.01243778    -0.00024327    -0.00291772
     0.01105050    -0.00279112     0.00289136
     0.00043649     0.00405966    -0.00196071
     0.00246241    -0.00199339     0.00192466
    -0.00016356     0.00926998    -0.00118013
     0.00176568    -0.00199758    -0.00025334
    -0.00235280    -0.00072896    -0.00141302
     0.00035860    -0.00150250     0.00190977
    -0.00008658     0.00141661    -0.00162434

 G vector - GDV
     0.00000000     0.00000000     0.00000000
     0.00000000     0.00000000     0.00000000
     0.00000000     0.00000000     0.00000000
     0.00000000     0.00000000     0.00000000
     0.00000000     0.00000000     0.00000000
     0.00000000     0.00000000     0.00000000
     0.00000000     0.00000000     0.00000000
     0.00000000     0.00000000     0.00000000
     0.00000000     0.00000000     0.00000000
     0.00000000     0.00000000     0.00000000
     0.00000000     0.00000000     0.00000000
     0.00000000     0.00000000     0.00000000
     0.00000000     0.00000000     0.00000000
     0.00000000     0.00000000     0.00000000

 H vector - DCV - non-adiabatic coupling
     0.00000000     0.00000000     0.00000000
     0.00000000     0.00000000     0.00000000
     0.00000000     0.00000000     0.00000000
     0.00000000     0.00000000     0.00000000
     0.00000000     0.00000000     0.00000000
     0.00000000     0.00000000     0.00000000
     0.00000000     0.00000000     0.00000000
     0.00000000     0.00000000     0.00000000
     0.00000000     0.00000000     0.00000000
     0.00000000     0.00000000     0.00000000
     0.00000000     0.00000000     0.00000000
     0.00000000     0.00000000     0.00000000
     0.00000000     0.00000000     0.00000000
     0.00000000     0.00000000     0.00000000
--------------------------------------------------

WARNING!
-> SCC is NOT converged, maximal SCC iterations exceeded

--------------------------------------------------------------------------------
DFTB+ running times                          cpu [s]             wall clock [s]
--------------------------------------------------------------------------------
SCC                                    +     1.42  ( 78.4%)      1.43  ( 78.2%)
      Sparse to dense                        0.08  (  4.2%)      0.09  (  4.6%)
      Dense to sparse                        0.26  ( 14.5%)      0.28  ( 15.5%)
      Range separated Hamiltonian            0.13  (  7.0%)      0.13  (  7.2%)
  Density matrix creation                    0.16  (  8.7%)      0.16  (  9.0%)
  Force calculation                          0.39  ( 21.5%)      0.39  ( 21.4%)
--------------------------------------------------------------------------------
Missing                                +     0.39  ( 21.6%)      0.40  ( 21.8%)
Total                                  =     1.81  (100.0%)      1.83  (100.0%)
--------------------------------------------------------------------------------
