     6
  Step:     0            Position(A)                                  Velocity(au)
C        -0.03091955     0.00989574     0.02983601    -0.00003280    -0.00003289     0.00014919
N        -0.04735008    -0.06469695     1.28514897    -0.00012066    -0.00004765    -0.00017779
H         0.90505772     0.05144521    -0.50483182    -0.00049158     0.00008919     0.00038394
H         0.79368743    -0.06268967     1.80895829     0.00122132     0.00050817     0.00053130
H        -0.89514281     0.02230428     1.90686287     0.00058546     0.00016831    -0.00047714
H        -0.99010743     0.10029623    -0.53335760     0.00075245     0.00028848     0.00025482
     6
  Step:     1            Position(A)                                  Velocity(au)
C        -0.03113079     0.00971585     0.03023424    -0.00004435    -0.00003295    -0.00000384
N        -0.04805606    -0.06500010     1.28453073    -0.00013549    -0.00006333    -0.00004703
H         0.90273940     0.05210917    -0.50282116    -0.00035136     0.00015399     0.00034789
H         0.80100050    -0.05978503     1.81217417     0.00143158     0.00055427     0.00063183
H        -0.89189583     0.02338345     1.90401249     0.00059460     0.00022708    -0.00055990
H        -0.98602107     0.10200511    -0.53188753     0.00073653     0.00033734     0.00027957
     6
  Step:     2            Position(A)                                  Velocity(au)
C        -0.03140457     0.00953537     0.02979402    -0.00005554    -0.00003315    -0.00015678
N        -0.04883203    -0.06538957     1.28463453    -0.00014614    -0.00007920     0.00008562
H         0.90121478     0.05312948    -0.50102678    -0.00020319     0.00021945     0.00030549
H         0.80934521    -0.05662739     1.81586892     0.00159777     0.00060073     0.00070633
H        -0.88863942     0.02478790     1.90073897     0.00058814     0.00028741    -0.00063074
H        -0.98205166     0.10398591    -0.53029983     0.00070996     0.00038812     0.00029737
     6
  Step:     3            Position(A)                                  Velocity(au)
C        -0.03173823     0.00935327     0.02851969    -0.00006609    -0.00003357    -0.00030811
N        -0.04965423    -0.06586623     1.28546705    -0.00015228    -0.00009514     0.00021868
H         0.90051728     0.05450912    -0.49948025    -0.00005068     0.00028518     0.00025792
H         0.81847409    -0.05321533     1.81989879     0.00171773     0.00064700     0.00075454
H        -0.88546383     0.02652657     1.89711454     0.00056408     0.00034928    -0.00068693
H        -0.97825681     0.10624972    -0.52863546     0.00067259     0.00044081     0.00030708
     6
  Step:     4            Position(A)                                  Velocity(au)
C        -0.03212745     0.00916817     0.02642405    -0.00007566    -0.00003424    -0.00045597
N        -0.05049755    -0.06643019     1.28702639    -0.00015369    -0.00011097     0.00035031
H         0.90066045     0.05624862    -0.49820583     0.00010237     0.00035049     0.00020661
H         0.82813283    -0.04955080     1.82412168     0.00179031     0.00069219     0.00077692
H        -0.88246985     0.02860809     1.89322566     0.00052053     0.00041240    -0.00072581
H        -0.97469519     0.10880725    -0.52694110     0.00062409     0.00049508     0.00030769
     6
  Step:     5            Position(A)                                  Velocity(au)
C        -0.03256610     0.00897855     0.02353026    -0.00008388    -0.00003518    -0.00059803
N        -0.05133595    -0.06708048     1.28930027    -0.00015022    -0.00012640     0.00047819
H         0.90163742     0.05834440    -0.49721943     0.00025202     0.00041438     0.00015320
H         0.83806462    -0.04564101     1.82840020     0.00181525     0.00073503     0.00077450
H        -0.87976794     0.03103928     1.88917231     0.00045592     0.00047619    -0.00074494
H        -0.97142770     0.11166709    -0.52526853     0.00056396     0.00055024     0.00029832
     6
  Step:     6            Position(A)                                  Velocity(au)
C        -0.03304615     0.00878284     0.01987410    -0.00009040    -0.00003638    -0.00073155
N        -0.05214289    -0.06781463     1.29226381    -0.00014185    -0.00014112     0.00059965
H         0.90342073     0.06078710    -0.49652793     0.00039431     0.00047552     0.00009941
H         0.84801446    -0.04150032     1.83260439     0.00179314     0.00077398     0.00074882
H        -0.87747639     0.03382357     1.88506663     0.00036931     0.00053974    -0.00074236
H        -0.96851837     0.11483382    -0.52367370     0.00049175     0.00060528     0.00027838
     6
  Step:     7            Position(A)                                  Velocity(au)
C        -0.03355765     0.00857956     0.01550615    -0.00009487    -0.00003780    -0.00085345
N        -0.05289189    -0.06862833     1.29587763    -0.00012870    -0.00015472     0.00071171
H         0.90596249     0.06356023    -0.49612900     0.00052533     0.00053244     0.00004697
H         0.85773292    -0.03715154     1.83661372     0.00172560     0.00080732     0.00070193
H        -0.87571716     0.03695947     1.88102968     0.00026084     0.00060189    -0.00071693
H        -0.96603388     0.11830620    -0.52221503     0.00040730     0.00065887     0.00024771
     6
  Step:     8            Position(A)                                  Velocity(au)
C        -0.03408893     0.00836733     0.01049341    -0.00009702    -0.00003943    -0.00096053
N        -0.05355752    -0.06951519     1.30008651    -0.00011111    -0.00016679     0.00081128
H         0.90919492     0.06663940    -0.49601161     0.00064140     0.00058358    -0.00000255
H         0.86698131    -0.03262662     1.84031959     0.00161557     0.00083340     0.00063647
H        -0.87460940     0.04043919     1.87718648     0.00013212     0.00066126    -0.00066871
H        -0.96404149     0.12207576    -0.52095095     0.00031108     0.00070949     0.00020670
     6
  Step:     9            Position(A)                                  Velocity(au)
C        -0.03462694     0.00814501     0.00491974    -0.00009666    -0.00004120    -0.00104979
N        -0.05411648    -0.07046664     1.30481910    -0.00008966    -0.00017696     0.00089551
H         0.91303168     0.06999211    -0.49615714     0.00073929     0.00062748    -0.00004789
H         0.87553883    -0.02796629     1.84362856     0.00146760     0.00085074     0.00055577
H        -0.87426102     0.04424748     1.87365950    -0.00001349     0.00071635    -0.00059917
H        -0.96260531     0.12612581    -0.51993689     0.00020438     0.00075557     0.00015635
     6
  Step:    10            Position(A)                                  Velocity(au)
C        -0.03515778     0.00791170    -0.00111552    -0.00009373    -0.00004308    -0.00111888
N        -0.05454902    -0.07147207     1.30998936    -0.00006520    -0.00018489     0.00096213
H         0.91737020     0.07357833    -0.49654119     0.00081649     0.00066299    -0.00008815
H         0.88321060    -0.02321882     1.84646554     0.00128793     0.00085836     0.00046375
H        -0.87475861     0.04836088     1.87056062    -0.00017083     0.00076570    -0.00051139
H        -0.96178140     0.13043114    -0.51922198     0.00008948     0.00079568     0.00009830
     6
  Step:    11            Position(A)                                  Velocity(au)
C        -0.03566748     0.00766682    -0.00750113    -0.00008838    -0.00004499    -0.00116657
N        -0.05484032    -0.07251918     1.31549991    -0.00003880    -0.00019041     0.00100993
H         0.92209570     0.07735202    -0.49713570     0.00087165     0.00068943    -0.00012289
H         0.88983636    -0.01843746     1.84877672     0.00108428     0.00085599     0.00036475
H        -0.87615739     0.05274757     1.86798250    -0.00033317     0.00080803    -0.00040996
H        -0.96161193     0.13495872    -0.51884570    -0.00003037     0.00082875     0.00003470
     6
  Step:    12            Position(A)                                  Velocity(au)
C        -0.03614299     0.00741016    -0.01411993    -0.00008091    -0.00004691    -0.00119317
N        -0.05498157    -0.07359470     1.32124760    -0.00001164    -0.00019352     0.00103907
H         0.92708697     0.08126376    -0.49791115     0.00090482     0.00070688    -0.00015212
H         0.89529773    -0.01367656     1.85053158     0.00086554     0.00084430     0.00026330
H        -0.87847267     0.05736845     1.86599058    -0.00049308     0.00084264    -0.00030058
H        -0.96211996     0.13966973    -0.51883514    -0.00015137     0.00085445    -0.00003197
     6
  Step:    13            Position(A)                                  Velocity(au)
C        -0.03657313     0.00714176    -0.02085733    -0.00007179    -0.00004881    -0.00120088
N        -0.05497063    -0.07468545     1.32713113     0.00001511    -0.00019449     0.00105142
H         0.93222409     0.08526471    -0.49883850     0.00091767     0.00071632    -0.00017619
H         0.89952510    -0.00898648     1.85172402     0.00064108     0.00082500     0.00016376
H        -0.88167684     0.06217997     1.86461781    -0.00064355     0.00086965    -0.00018936
H        -0.96330638     0.14452330    -0.51920359    -0.00026972     0.00087335    -0.00009932
     6
  Step:    14            Position(A)                                  Velocity(au)
C        -0.03694948     0.00686180    -0.02761152    -0.00006158    -0.00005073    -0.00119359
N        -0.05481181    -0.07577970     1.33306003     0.00004047    -0.00019379     0.00105035
H         0.93739679     0.08931140    -0.49989057     0.00091327     0.00071958    -0.00019567
H         0.90250013    -0.00440787     1.85237138     0.00041959     0.00080072     0.00006983
H        -0.88570285     0.06713881     1.86386322    -0.00077915     0.00089017    -0.00008187
H        -0.96515020     0.14948163    -0.51995102    -0.00038227     0.00088705    -0.00016537
     6
  Step:    15            Position(A)                                  Velocity(au)
C        -0.03726682     0.00657035    -0.03430247    -0.00005086    -0.00005272    -0.00117615
N        -0.05451472    -0.07686840     1.33896270     0.00006378    -0.00019207     0.00104008
H         0.94251155     0.09337039    -0.50104261     0.00089540     0.00071903    -0.00021118
H         0.90425155     0.00003320     1.85251066     0.00020791     0.00077451    -0.00001583
H        -0.89045358     0.07220720     1.86369558    -0.00089655     0.00090599     0.00001753
H        -0.96761244     0.15451543    -0.52106643    -0.00048695     0.00089781    -0.00022876
     6
  Step:    16            Position(A)                                  Velocity(au)
C        -0.03752305     0.00626717    -0.04087673    -0.00006227    -0.00008527    -0.00179210
N        -0.05409252    -0.07794594     1.34479057     0.00013153    -0.00029514     0.00159237
H         0.94749554     0.09742099    -0.50227235     0.00134860     0.00111418    -0.00034725
H         0.90484500     0.00432751     1.85219285     0.00001634     0.00116425    -0.00014247
H        -0.89581467     0.07735709     1.86406091    -0.00154512     0.00142825     0.00016482
H        -0.97064231     0.15960757    -0.52253105    -0.00090549     0.00141087    -0.00044849
     6
  Step:    17            Position(A)                                  Velocity(au)
C        -0.03784296     0.00577712    -0.05054685    -0.00003175    -0.00005474    -0.00101034
N        -0.05330599    -0.07956015     1.35344397     0.00008983    -0.00017114     0.00091057
H         0.95518313     0.10360476    -0.50456962     0.00084506     0.00066620    -0.00028407
H         0.90445767     0.01064956     1.85125314    -0.00008866     0.00066625    -0.00011351
H        -0.90469477     0.08525594     1.86529420    -0.00097985     0.00084674     0.00016156
H        -0.97618002     0.16747435    -0.52554834    -0.00064658     0.00085138    -0.00037835
     6
  Step:    18            Position(A)                                  Velocity(au)
C        -0.03799158     0.00546175    -0.05617062    -0.00002125    -0.00005709    -0.00098344
N        -0.05275383    -0.08051900     1.35852437     0.00010452    -0.00016885     0.00089036
H         0.95981148     0.10735338    -0.50617920     0.00079325     0.00066297    -0.00028555
H         0.90347076     0.01434917     1.85044854    -0.00025194     0.00064706    -0.00016653
H        -0.91038237     0.09005925     1.86639031    -0.00102625     0.00085517     0.00022075
H        -0.98003580     0.17230567    -0.52781602    -0.00071427     0.00086154    -0.00042268
     6
  Step:    19            Position(A)                                  Velocity(au)
C        -0.03808250     0.00513345    -0.06163487    -0.00001147    -0.00005976    -0.00096147
N        -0.05212758    -0.08146389     1.36348253     0.00011693    -0.00016749     0.00087419
H         0.96412674     0.11107953    -0.50778912     0.00074042     0.00066341    -0.00028667
H         0.90161714     0.01794498     1.84937560    -0.00039815     0.00063450    -0.00020997
H        -0.91626545     0.09489768     1.86778304    -0.00105714     0.00086572     0.00026877
H        -0.98423321     0.17718794    -0.53031388    -0.00077326     0.00087605    -0.00046332
     6
  Step:    20            Position(A)                                  Velocity(au)
C        -0.03812038     0.00479065    -0.06696799    -0.00000245    -0.00006258    -0.00094223
N        -0.05144075    -0.08239996     1.36834163     0.00012673    -0.00016666     0.00086006
H         0.96812641     0.11480352    -0.50939848     0.00068531     0.00066596    -0.00028718
H         0.89899949     0.02147471     1.84809056    -0.00052593     0.00062721    -0.00024307
H        -0.92225413     0.09978131     1.86940867    -0.00106985     0.00087602     0.00030546
H        -0.98871955     0.18214380    -0.53301915    -0.00082140     0.00089257    -0.00049914
     6
  Step:    21            Position(A)                                  Velocity(au)
C        -0.03810991     0.00443262    -0.07218627     0.00000575    -0.00006540    -0.00092379
N        -0.05070844    -0.08333019     1.37311369     0.00013357    -0.00016599     0.00084612
H         0.97180101     0.11853714    -0.51100507     0.00062703     0.00066916    -0.00028686
H         0.89572761     0.02496865     1.84665358    -0.00063298     0.00062404    -0.00026482
H        -0.92824596     0.10470763     1.87120366    -0.00106216     0.00088389     0.00033060
H        -0.99343142     0.18718320    -0.53590339    -0.00085650     0.00090884    -0.00052893
     6
  Step:    22            Position(A)                                  Velocity(au)
C        -0.03805611     0.00405957    -0.07729513     0.00001303    -0.00006806    -0.00090475
N        -0.04994756    -0.08425556     1.37780047     0.00013716    -0.00016522     0.00083103
H         0.97513611     0.12228420    -0.51260528     0.00056535     0.00067191    -0.00028556
H         0.89192327     0.02845094     1.84513008    -0.00071678     0.00062426    -0.00027425
H        -0.93412814     0.10966248     1.87310452    -0.00103290     0.00088768     0.00034428
H        -0.99829450     0.19230382    -0.53893218    -0.00087690     0.00092305    -0.00055175
     6
  Step:    23            Position(A)                                  Velocity(au)
C        -0.03796439     0.00367241    -0.08229232     0.00001930    -0.00007046    -0.00088432
N        -0.04917637    -0.08517565     1.38239634     0.00013734    -0.00016419     0.00081400
H         0.97811597     0.12604244    -0.51419483     0.00050059     0.00067349    -0.00028334
H         0.88772113     0.03194169     1.84359018    -0.00077517     0.00062751    -0.00027070
H        -0.93978350     0.11462308     1.87504922    -0.00098221     0.00088639     0.00034696
H        -1.00322645     0.19749374    -0.54206648    -0.00088166     0.00093397    -0.00056702
     6
  Step:    24            Position(A)                                  Velocity(au)
C        -0.03784059     0.00327267    -0.08717110     0.00002449    -0.00007253    -0.00086216
N        -0.04841377    -0.08608927     1.38689119     0.00013409    -0.00016287     0.00079466
H         0.98072663     0.12980568    -0.51576957     0.00043350     0.00067351    -0.00028032
H         0.88326622     0.03545893     1.84210689    -0.00080677     0.00063368    -0.00025395
H        -0.94509736     0.11956161     1.87697929    -0.00091136     0.00087960     0.00033952
H        -1.00814080     0.20273432    -0.54526464    -0.00087060     0.00094084    -0.00057457
     6
  Step:    25            Position(A)                                  Velocity(au)
C        -0.03769082     0.00286219    -0.09192282     0.00002857    -0.00007424    -0.00083830
N        -0.04767851    -0.08699491     1.39127285     0.00012755    -0.00016124     0.00077298
H         0.98295823     0.13356565    -0.51732610     0.00036508     0.00067186    -0.00027676
H         0.87870932     0.03902001     1.84075356    -0.00081121     0.00064283    -0.00022424
H        -0.94996350     0.12444832     1.87884173    -0.00082254     0.00086737     0.00032318
H        -1.01295120     0.20800310    -0.54848457    -0.00084427     0.00094337    -0.00057462
     6
  Step:    26            Position(A)                                  Velocity(au)
C        -0.03752134     0.00244301    -0.09653879     0.00003153    -0.00007558    -0.00081297
N        -0.04698840    -0.08789110     1.39552901     0.00011797    -0.00015938     0.00074918
H         0.98480625     0.13731347    -0.51886229     0.00029641     0.00066863    -0.00027294
H         0.87420120     0.04264229     1.83960111    -0.00078915     0.00065507    -0.00018230
H        -0.95428891     0.12925419     1.88059068    -0.00071859     0.00085017     0.00029937
H        -1.01757522     0.21327613    -0.55168582    -0.00080380     0.00094160    -0.00056769
     6
  Step:    27            Position(A)                                  Velocity(au)
C        -0.03733829     0.00201721    -0.10101158     0.00003342    -0.00007656    -0.00078654
N        -0.04635960    -0.08877674     1.39964854     0.00010571    -0.00015737     0.00072363
H         0.98627202     0.14104077    -0.52037753     0.00022857     0.00066405    -0.00026917
H         0.86988679     0.04634357     1.83871545    -0.00074226     0.00067055    -0.00012929
H        -0.95799717     0.13395299     1.88218859    -0.00060276     0.00082870     0.00026967
H        -1.02193752     0.21852995    -0.55483115    -0.00075074     0.00093585    -0.00055451
     6
  Step:    28            Position(A)                                  Velocity(au)
C        -0.03714759     0.00158674    -0.10533574     0.00003428    -0.00007721    -0.00075946
N        -0.04580608    -0.08965114     1.40362231     0.00009121    -0.00015530     0.00069676
H         0.98736265     0.14474044    -0.52187283     0.00016254     0.00065843    -0.00026576
H         0.86589946     0.05014194     1.83815506    -0.00067317     0.00068932    -0.00006672
H        -0.96103034     0.13852271     1.88360681    -0.00047841     0.00080387     0.00023571
H        -1.02597177     0.22374296    -0.55788768    -0.00068686     0.00092659    -0.00053598
     6
  Step:    29            Position(A)                                  Velocity(au)
C        -0.03695480     0.00115337    -0.10950810     0.00003419    -0.00007758    -0.00073213
N        -0.04533920    -0.09051417     1.40744368     0.00007495    -0.00015327     0.00066906
H         0.98809046     0.14840707    -0.52335081     0.00009917     0.00065211    -0.00026299
H         0.86235567     0.05405538     1.83796896    -0.00058527     0.00071131     0.00000357
H        -0.96334944     0.14294642     1.88482567    -0.00034887     0.00077664     0.00019905
H        -1.02962181     0.22889628    -0.56082745    -0.00061401     0.00091439    -0.00051300
     6
  Step:    30            Position(A)                                  Velocity(au)
C        -0.03676502     0.00071866    -0.11352771     0.00003325    -0.00007771    -0.00070492
N        -0.04496741    -0.09136617     1.41110855     0.00005747    -0.00015137     0.00064095
H         0.98847225     0.15203712    -0.52481551     0.00003914     0.00064543    -0.00026110
H         0.85935067     0.05810097     1.83819503    -0.00048262     0.00073632     0.00007955
H        -0.96493396     0.14721268     1.88583406    -0.00021728     0.00074796     0.00016116
H        -1.03284203     0.23397427    -0.56362775    -0.00053403     0.00089983    -0.00048650
     6
  Step:    31            Position(A)                                  Velocity(au)
C        -0.03658281     0.00028388    -0.11739558     0.00003154    -0.00007764    -0.00067814
N        -0.04469614    -0.09220789     1.41461529     0.00003930    -0.00014966     0.00061282
H         0.98852835     0.15562888    -0.52627224    -0.00001701     0.00063868    -0.00026027
H         0.85695560     0.06229415     1.83885909    -0.00036962     0.00076397     0.00015905
H        -0.96578067     0.15131548     1.88662888    -0.00008654     0.00071878     0.00012337
H        -1.03559714     0.23896453    -0.56627092    -0.00044868     0.00088345    -0.00045734
     6
  Step:    32            Position(A)                                  Velocity(au)
C        -0.03641222    -0.00014995    -0.12111433     0.00002915    -0.00007742    -0.00065200
N        -0.04452777    -0.09304041     1.41796440     0.00002096    -0.00014816     0.00058501
H         0.98828189     0.15918227    -0.52772725    -0.00006888     0.00063211    -0.00026065
H         0.85521557     0.06664775     1.83997433    -0.00025094     0.00079370     0.00023981
H        -0.96590210     0.15525397     1.88721420     0.00004075     0.00068996     0.00008687
H        -1.03786153     0.24385778    -0.56874412    -0.00035955     0.00086576    -0.00042630
     6
  Step:    33            Position(A)                                  Velocity(au)
C        -0.03625676    -0.00058205    -0.12468769     0.00002619    -0.00007709    -0.00062663
N        -0.04446172    -0.09386498     1.42115820     0.00000297    -0.00014691     0.00055777
H         0.98775801     0.16269857    -0.52918746    -0.00011615     0.00062593    -0.00026234
H         0.85414900     0.07117112     1.84154120    -0.00013126     0.00082482     0.00031963
H        -0.96532493     0.15903213     1.88760046     0.00016222     0.00066228     0.00005272
H        -1.03961843     0.24864743    -0.57103877    -0.00026811     0.00084716    -0.00039409
     6
  Step:    34            Position(A)                                  Velocity(au)
C        -0.03611945    -0.00101182    -0.12812010     0.00002272    -0.00007667    -0.00060207
N        -0.04449456    -0.09468292     1.42420037    -0.00001418    -0.00014591     0.00053128
H         0.98698327     0.16618018    -0.53066019    -0.00015863     0.00062028    -0.00026535
H         0.85374803     0.07586934     1.84354782    -0.00001512     0.00085648     0.00039637
H        -0.96408845     0.16265829     1.88780364     0.00027576     0.00063647     0.00002184
H        -1.04085899     0.25332915    -0.57315011    -0.00017566     0.00082798    -0.00036133
     6
  Step:    35            Position(A)                                  Velocity(au)
C        -0.03600283    -0.00143888    -0.13141609     0.00001884    -0.00007620    -0.00057831
N        -0.04462022    -0.09549553     1.42709541    -0.00003005    -0.00014512     0.00050563
H         0.98598521     0.16963041    -0.53215287    -0.00019617     0.00061532    -0.00026968
H         0.85398006     0.08074259     1.84597080     0.00009330     0.00088775     0.00046809
H        -0.96224322     0.16614489     1.88784457     0.00037946     0.00061323    -0.00000497
H        -1.04158151     0.25790038    -0.57507676    -0.00008340     0.00080846    -0.00032858
     6
  Step:    36            Position(A)                                  Velocity(au)
C        -0.03590904    -0.00186301    -0.13458002     0.00001459    -0.00007570    -0.00055530
N        -0.04483026    -0.09630400     1.42984835    -0.00004423    -0.00014455     0.00048089
H         0.98479199     0.17305343    -0.53367262    -0.00022865     0.00061123    -0.00027522
H         0.85479021     0.08578567     1.84877654     0.00019027     0.00091756     0.00053310
H        -0.95984976     0.16950824     1.88774816     0.00047165     0.00059329    -0.00002706
H        -1.04179061     0.26235979    -0.57682042     0.00000762     0.00078870    -0.00029638
     6
  Step:    37            Position(A)                                  Velocity(au)
C        -0.03583996    -0.00228410    -0.13761605     0.00000996    -0.00007519    -0.00053303
N        -0.04511410    -0.09710940     1.43246452    -0.00005634    -0.00014415     0.00045714
H         0.98343234     0.17645483    -0.53522571    -0.00025585     0.00060859    -0.00028160
H         0.85610444     0.09098714     1.85192293     0.00027265     0.00094442     0.00059016
H        -0.95697727     0.17276905     1.88754247     0.00055085     0.00057778    -0.00004405
H        -1.04149647     0.26670626    -0.57838582     0.00009658     0.00076838    -0.00026538
     6
  Step:    38            Position(A)                                  Velocity(au)
C        -0.03579786    -0.00270210    -0.14052863     0.00000183    -0.00007876    -0.00047627
N        -0.04545901    -0.09791273     1.43494995    -0.00006423    -0.00014032     0.00040981
H         0.98193667     0.17984527    -0.53681521    -0.00022627     0.00063444    -0.00032737
H         0.85783301     0.09632535     1.85536272     0.00034414     0.00093601     0.00065244
H        -0.95370231     0.17595619     1.88725657     0.00060679     0.00057057    -0.00005391
H        -1.04071283     0.27093484    -0.57978209     0.00014619     0.00074742    -0.00029068
     6
  Step:    39            Position(A)                                  Velocity(au)
C        -0.03581956    -0.00316265    -0.14292857    -0.00000756    -0.00008669    -0.00038461
N        -0.04583058    -0.09867455     1.43703566    -0.00006903    -0.00013295     0.00033870
H         0.98090843     0.18353167    -0.53887730    -0.00014588     0.00067787    -0.00041875
H         0.85994306     0.10142780     1.85920053     0.00040464     0.00090488     0.00071459
H        -0.95020895     0.17913345     1.88694112     0.00063942     0.00055919    -0.00005202
H        -1.03986584     0.27504328    -0.58162820     0.00015128     0.00073861    -0.00036752
     6
  Step:    40            Position(A)                                  Velocity(au)
C        -0.03588219    -0.00366845    -0.14481612    -0.00001464    -0.00009480    -0.00029493
N        -0.04622856    -0.09939483     1.43872569    -0.00007269    -0.00012579     0.00026961
H         0.98031044     0.18740187    -0.54148328    -0.00007127     0.00071096    -0.00051472
H         0.86234379     0.10641260     1.86332867     0.00044689     0.00088374     0.00076100
H        -0.94657434     0.18218976     1.88667667     0.00065867     0.00053997    -0.00004010
H        -1.03902638     0.27916855    -0.58387904     0.00015034     0.00074307    -0.00043845
     6
  Step:    41            Position(A)                                  Velocity(au)
C        -0.03598263    -0.00421874    -0.14621394    -0.00002119    -0.00010278    -0.00020911
N        -0.04664037    -0.10007580     1.44003903    -0.00007408    -0.00011899     0.00020375
H         0.98011451     0.19145154    -0.54461105    -0.00000250     0.00074353    -0.00060629
H         0.86492123     0.11127233     1.86767784     0.00046857     0.00086059     0.00079516
H        -0.94287158     0.18514848     1.88649447     0.00066520     0.00052528    -0.00002291
H        -1.03819106     0.28332081    -0.58651237     0.00015065     0.00074884    -0.00050556
     6
  Step:    42            Position(A)                                  Velocity(au)
C        -0.03611807    -0.00481248    -0.14714380    -0.00002724    -0.00011055    -0.00012695
N        -0.04705310    -0.10071932     1.44099369    -0.00007317    -0.00011248     0.00014090
H         0.98028257     0.19567822    -0.54823196     0.00005869     0.00077559    -0.00069244
H         0.86755947     0.11599197     1.87217968     0.00046961     0.00083437     0.00081718
H        -0.93916996     0.18803674     1.88642165     0.00065972     0.00051541    -0.00000115
H        -1.03734949     0.28750395    -0.58950649     0.00015328     0.00075500    -0.00056882
     6
  Step:    43            Position(A)                                  Velocity(au)
C        -0.03628558    -0.00544834    -0.14762592    -0.00003275    -0.00011806    -0.00004816
N        -0.04745416    -0.10132687     1.44160616    -0.00007004    -0.00010618     0.00008078
H         0.98076732     0.20007818    -0.55231286     0.00011077     0.00080684    -0.00077238
H         0.87014458     0.12055277     1.87676704     0.00045061     0.00080449     0.00082732
H        -0.93553379     0.19088124     1.88648171     0.00064319     0.00051017     0.00002451
H        -1.03648617     0.29171843    -0.59283920     0.00015908     0.00076096    -0.00062809
     6
  Step:    44            Position(A)                                  Velocity(au)
C        -0.03648211    -0.00612471    -0.14767905    -0.00003773    -0.00012527     0.00002748
N        -0.04783160    -0.10189951     1.44189149    -0.00006484    -0.00010003     0.00002316
H         0.98151377     0.20464586    -0.55681664     0.00015249     0.00083692    -0.00084535
H         0.87256782     0.12493353     1.88137492     0.00041264     0.00077052     0.00082599
H        -0.93202119     0.19370708     1.88669402     0.00061679     0.00050922     0.00005324
H        -1.03558136     0.29596165    -0.59648745     0.00016877     0.00076611    -0.00068318
     6