 Fermi distribution function

Calculation with static geometry


********************************************************************************
 iSCC Total electronic   Diff electronic      SCC error    
   10   -0.53996977E+01   -0.52313709E-12    0.61366650E-07
********************************************************************************

 Total charge:     1.00000000

 Atomic gross charges (e)
 Atom           Charge
    1       0.15645003
    2      -0.05030021
    3       0.19815163
    4       0.27366980
    5       0.27584376
    6       0.14618499

Nr. of electrons (up):     12.00000000
Atom populations (up)
 Atom       Population
    1       3.84354997
    2       5.05030021
    3       0.80184837
    4       0.72633020
    5       0.72415624
    6       0.85381501

l-shell populations (up)
 Atom Sh.   l       Population
    1   1   0       1.32093575
    1   2   1       2.52261423
    2   1   0       1.42486963
    2   2   1       3.62543058
    3   1   0       0.80184837
    4   1   0       0.72633020
    5   1   0       0.72415624
    6   1   0       0.85381501

Orbital populations (up)
 Atom Sh.   l   m       Population  Label
    1   1   0   0       1.32093575  s
    1   2   1  -1       0.59768442  p_y
    1   2   1   0       0.87341566  p_z
    1   2   1   1       1.05151415  p_x
    2   1   0   0       1.42486963  s
    2   2   1  -1       1.31525086  p_y
    2   2   1   0       1.10159612  p_z
    2   2   1   1       1.20858360  p_x
    3   1   0   0       0.80184837  s
    4   1   0   0       0.72633020  s
    5   1   0   0       0.72415624  s
    6   1   0   0       0.85381501  s

Fermi level:                        -0.4980644259 H          -13.5530 eV
Band energy:                        -8.9246200459 H         -242.8513 eV
TS:                                  0.0000000000 H            0.0000 eV
Band free energy (E-TS):            -8.9246200459 H         -242.8513 eV
Extrapolated E(0K):                 -8.9246200459 H         -242.8513 eV
Input / Output electrons (q):     12.0000000000     12.0000000000

Energy H0:                          -5.5335167584 H         -150.5747 eV
Energy SCC:                          0.1338190542 H            3.6414 eV
Total Electronic energy:            -5.3996977042 H         -146.9333 eV
Repulsive energy:                    0.1872206899 H            5.0945 eV
Total energy:                       -5.2124770143 H         -141.8387 eV
Extrapolated to 0:                  -5.2124770143 H         -141.8387 eV
Total Mermin free energy:           -5.2124770143 H         -141.8387 eV
Force related energy:               -5.2124770143 H         -141.8387 eV

SCC converged

Excitation Energy:                   0.1296213620 H            3.5272 eV

Total Forces
    1      0.006551438299      0.007094150782      0.047014956882
    2     -0.000394585146      0.000924941921     -0.052326937950
    3     -0.005946733265      0.003606849713     -0.000986698900
    4     -0.004293095009     -0.008994282706      0.004325300491
    5      0.004294098489      0.005242650497      0.003212175776
    6     -0.000211123368     -0.007874310207     -0.001238796299

Maximal derivative component:        0.523269E-01 au


