 Fermi distribution function

Calculation with static geometry


********************************************************************************
 iSCC Total electronic   Diff electronic      SCC error    
   13   -0.52751591E+01   -0.47775384E-09    0.22117087E-06
********************************************************************************

 Total charge:     1.00000000

 Atomic gross charges (e)
 Atom           Charge
    1       0.30340121
    2      -0.19002627
    3       0.17431524
    4       0.25824598
    5       0.27157916
    6       0.18248468

Nr. of electrons (up):     12.00000000
Atom populations (up)
 Atom       Population
    1       3.69659879
    2       5.19002627
    3       0.82568476
    4       0.74175402
    5       0.72842084
    6       0.81751532

l-shell populations (up)
 Atom Sh.   l       Population
    1   1   0       1.39917990
    1   2   1       2.29741889
    2   1   0       1.52018700
    2   2   1       3.66983928
    3   1   0       0.82568476
    4   1   0       0.74175402
    5   1   0       0.72842084
    6   1   0       0.81751532

Orbital populations (up)
 Atom Sh.   l   m       Population  Label
    1   1   0   0       1.39917990  s
    1   2   1  -1       0.44545665  p_y
    1   2   1   0       0.87416620  p_z
    1   2   1   1       0.97779604  p_x
    2   1   0   0       1.52018700  s
    2   2   1  -1       1.34479995  p_y
    2   2   1   0       1.11783007  p_z
    2   2   1   1       1.20720926  p_x
    3   1   0   0       0.82568476  s
    4   1   0   0       0.74175402  s
    5   1   0   0       0.72842084  s
    6   1   0   0       0.81751532  s

Fermi level:                        -0.5172238627 H          -14.0744 eV
Band energy:                        -8.6893770268 H         -236.4500 eV
TS:                                  0.0000000000 H            0.0000 eV
Band free energy (E-TS):            -8.6893770268 H         -236.4500 eV
Extrapolated E(0K):                 -8.6893770268 H         -236.4500 eV
Input / Output electrons (q):     12.0000000000     12.0000000000

Energy H0:                          -5.4119081804 H         -147.2655 eV
Energy SCC:                          0.1367491054 H            3.7211 eV
Total Electronic energy:            -5.2751590751 H         -143.5444 eV
Repulsive energy:                    0.1373511556 H            3.7375 eV
Total energy:                       -5.1378079195 H         -139.8069 eV
Extrapolated to 0:                  -5.1378079195 H         -139.8069 eV
Total Mermin free energy:           -5.1378079195 H         -139.8069 eV
Force related energy:               -5.1378079195 H         -139.8069 eV

SCC converged

Excitation Energy:                   0.0981544481 H            2.6709 eV

Total Forces
    1     -0.000215865879     -0.005665154750      0.048328403266
    2     -0.000734608030     -0.009253653747     -0.054338282574
    3     -0.003975127208     -0.006485140471      0.001467355706
    4     -0.005993348134      0.012371668793      0.004871549252
    5      0.010636891286     -0.003748620497      0.002039043039
    6      0.000282057966      0.012780900673     -0.002368068689

Maximal derivative component:        0.543383E-01 au


