    14
  Step:     0            Position(A)                                  Velocity(au)
C        -6.04831026    -0.84551708    -0.17355263     0.00023862    -0.00029258     0.00000222
C        -4.66538890    -0.73765653     0.19182723    -0.00023002     0.00003909    -0.00008212
H        -6.37693856     0.03825361    -0.73800655    -0.00167507     0.00040265     0.00069530
H        -6.66751348    -1.67243601     0.05075932     0.00012181    -0.00011596     0.00033232
H        -4.15643078    -1.59616351     0.68568607    -0.00009706     0.00006178     0.00047771
C        -3.91818651     0.44272130    -0.07967144     0.00025825     0.00005128    -0.00011856
C        -2.62390482     0.60257197     0.27143082    -0.00005691     0.00024055     0.00007056
H        -4.45401672     1.26486679    -0.54168923    -0.00165120     0.00077788     0.00017894
H        -2.08795020    -0.27570428     0.72629935    -0.00063666    -0.00006255    -0.00024970
C        -1.79409725     1.79317565     0.00895706     0.00000664     0.00002169    -0.00014230
H        -2.34501948     2.75689322    -0.37460657     0.00082386     0.00041957     0.00018807
N        -0.51054889     1.71537272     0.16640134     0.00015978    -0.00012751     0.00022491
H         0.16040678     2.48070781    -0.08199028    -0.00019494    -0.00028382    -0.00055698
H         0.04841179     0.84887165     0.36544129    -0.00149193    -0.00014292    -0.00097144
    14
  Step:     1            Position(A)                                  Velocity(au)
C        -6.04535934    -0.84851778    -0.17352809     0.00029719    -0.00025467     0.00000120
C        -4.66809894    -0.73737714     0.19092631    -0.00026277     0.00001199    -0.00008201
H        -6.39604833     0.04203300    -0.73025587    -0.00180016     0.00026719     0.00073436
H        -6.66698215    -1.67471998     0.05462295    -0.00001764    -0.00029841     0.00037293
H        -4.15786377    -1.59484262     0.69061146    -0.00016829     0.00018340     0.00041798
C        -3.91576755     0.44326808    -0.08105839     0.00018050     0.00005176    -0.00013668
C        -2.62396187     0.60529130     0.27230036     0.00004454     0.00025614     0.00008772
H        -4.47223426     1.27364216    -0.53993026    -0.00164475     0.00078842     0.00016299
H        -2.09539018    -0.27540600     0.72319912    -0.00071418     0.00011270    -0.00031157
C        -1.79474386     1.79338174     0.00731206    -0.00012139     0.00001696    -0.00015805
H        -2.33420246     2.75946289    -0.37165272     0.00114296     0.00005407     0.00034866
N        -0.50816506     1.71400565     0.16889486     0.00027076    -0.00012024     0.00023018
H         0.15679165     2.47678869    -0.08773910    -0.00045178    -0.00042596    -0.00049502
H         0.03044173     0.84838112     0.35459654    -0.00175402     0.00001038    -0.00099937
    14
  Step:     2            Position(A)                                  Velocity(au)
C        -6.04180863    -0.85108850    -0.17352635     0.00034705    -0.00021534    -0.00000156
C        -4.67113746    -0.73739429     0.19003307    -0.00028974    -0.00001441    -0.00008090
H        -6.41632049     0.04409888    -0.72194107    -0.00188719     0.00009367     0.00079559
H        -6.66789930    -1.67896430     0.05891798    -0.00013449    -0.00046383     0.00040822
H        -4.16011249    -1.59215131     0.69483018    -0.00024385     0.00030802     0.00035103
C        -3.91423776     0.44385371    -0.08266163     0.00009668     0.00005776    -0.00015749
C        -2.62293037     0.60817543     0.27334984     0.00014077     0.00027094     0.00010303
H        -4.48999881     1.28211499    -0.53812356    -0.00157200     0.00072829     0.00018379
H        -2.10357435    -0.27323883     0.71948306    -0.00076873     0.00027332    -0.00035951
C        -1.79675290     1.79354670     0.00549943    -0.00023954     0.00001334    -0.00017234
H        -2.32001513     2.75807609    -0.36697886     0.00143251    -0.00029287     0.00049823
N        -0.50462558     1.71274213     0.17143699     0.00036787    -0.00010828     0.00023375
H         0.15052314     2.47138922    -0.09281982    -0.00066873    -0.00054343    -0.00043911
H         0.01003927     0.84909876     0.34357809    -0.00192773     0.00006347    -0.00100150
    14
  Step:     3            Position(A)                                  Velocity(au)
C        -6.03776691    -0.85322884    -0.17356225     0.00038600    -0.00017719    -0.00000531
C        -4.67443751    -0.73769243     0.18915651    -0.00031033    -0.00003874    -0.00007914
H        -6.43733415     0.04408212    -0.71285081    -0.00193605    -0.00010855     0.00087294
H        -6.66992427    -1.68486718     0.06355354    -0.00021367    -0.00059379     0.00043280
H        -4.16319854    -1.58810417     0.69829098    -0.00031894     0.00042699     0.00028197
C        -3.91365242     0.44453169    -0.08450379     0.00000898     0.00006797    -0.00017972
C        -2.62088224     0.61121869     0.27455433     0.00022916     0.00028549     0.00011566
H        -4.50662483     1.28957486    -0.53590953    -0.00144171     0.00061039     0.00023295
H        -2.11220752    -0.26942659     0.71533405    -0.00079278     0.00040798    -0.00038825
C        -1.79998419     1.79367360     0.00354184    -0.00034239     0.00000902    -0.00018393
H        -2.30286354     2.75305588    -0.36075289     0.00167705    -0.00059763     0.00062760
N        -0.50011727     1.71163690     0.17400867     0.00044548    -0.00009132     0.00023570
H         0.14216200     2.46490020    -0.09734538    -0.00082430    -0.00061504    -0.00039792
H        -0.01173106     0.84976965     0.33268690    -0.00199963    -0.00000765    -0.00097610
    14
  Step:     4            Position(A)                                  Velocity(au)
C        -6.03336409    -0.85496490    -0.17364246     0.00041244    -0.00014236    -0.00000935
C        -4.67792651    -0.73824172     0.18830177    -0.00032409    -0.00005973    -0.00007708
H        -6.45867527     0.04172412    -0.70284373    -0.00194805    -0.00032897     0.00095988
H        -6.67257369    -1.69195456     0.06838620    -0.00024493    -0.00067615     0.00044280
H        -4.16708997    -1.58281018     0.70099875    -0.00038864     0.00053187     0.00021586
C        -3.91404138     0.44534066    -0.08659340    -0.00008038     0.00008100    -0.00020212
C        -2.61791709     0.61442104     0.27588012     0.00030747     0.00030034     0.00012488
H        -4.52153896     1.29546836    -0.53302726    -0.00126491     0.00044957     0.00030141
H        -2.12091801    -0.26431359     0.71098941    -0.00078007     0.00050624    -0.00039327
C        -1.80424322     1.79374404     0.00147554    -0.00042558     0.00000182    -0.00019159
H        -2.28332651     2.74500179    -0.35324882     0.00186067    -0.00083318     0.00072654
N        -0.49487990     1.71074441     0.17659333     0.00049987    -0.00006995     0.00023643
H         0.13248989     2.45793401    -0.10152510    -0.00090073    -0.00062257    -0.00037998
H        -0.03370653     0.84893142     0.32222407    -0.00196730    -0.00021242    -0.00092536
    14
  Step:     5            Position(A)                                  Velocity(au)
C        -6.02874406    -0.85634322    -0.17376685     0.00042542    -0.00011240    -0.00001316
C        -4.68152750    -0.73899922     0.18747022    -0.00033065    -0.00007625    -0.00007507
H        -6.47995149     0.03688536    -0.69185167    -0.00192580    -0.00055657     0.00104972
H        -6.67528251    -1.69965919     0.07324063    -0.00022369    -0.00070603     0.00043635
H        -4.17170069    -1.57646856     0.70301325    -0.00044806     0.00061479     0.00015756
C        -3.91541086     0.44630377    -0.08892566    -0.00016948     0.00009541    -0.00022357
C        -2.61415585     0.61778913     0.27728624     0.00037422     0.00031616     0.00013013
H        -4.53429705     1.29941014    -0.52931568    -0.00105372     0.00026118     0.00038026
H        -2.12927307    -0.25835151     0.70673057    -0.00072611     0.00055958    -0.00037136
C        -1.80929463     1.79371351    -0.00064962    -0.00048612    -0.00001084    -0.00019411
H        -2.26215777     2.73482842    -0.34485849     0.00196792    -0.00096955     0.00078399
N        -0.48918165     1.71010665     0.17918106     0.00052978    -0.00004601     0.00023671
H         0.12245688     2.45128037    -0.10565824    -0.00088666    -0.00055369    -0.00039241
H        -0.05476943     0.84512248     0.31244289    -0.00184224    -0.00053749    -0.00085585
    14
  Step:     6            Position(A)                                  Velocity(au)
C        -6.02405713    -0.85742394    -0.17393030     0.00042468    -0.00008831    -0.00001634
C        -4.68516014    -0.73990977     0.18665951    -0.00032975    -0.00008719    -0.00007344
H        -6.50080587     0.02954803    -0.67987905    -0.00187311    -0.00078031     0.00113597
H        -6.67746730    -1.70740032     0.07793218    -0.00015065    -0.00068508     0.00041348
H        -4.17689220    -1.56936044     0.70444561    -0.00049263     0.00066885     0.00011146
C        -3.91774912     0.44742787    -0.09148444    -0.00025707     0.00010963    -0.00024313
C        -2.60973041     0.62133758     0.27872704     0.00042901     0.00033370     0.00013117
H        -4.54459106     1.30118207    -0.52470824    -0.00082070     0.00006028     0.00046121
H        -2.13680298    -0.25207163     0.70286512    -0.00062901     0.00056278    -0.00032134
C        -1.81487802     1.79350692    -0.00277094    -0.00052255    -0.00003179    -0.00019041
H        -2.24027458     2.72379113    -0.33609764     0.00198580    -0.00097683     0.00078926
N        -0.48328996     1.70973795     0.18177176     0.00053658    -0.00002258     0.00023744
H         0.11309242     2.44582104    -0.11010977    -0.00078042    -0.00040580    -0.00043913
H        -0.07400902     0.83717290     0.30350080    -0.00164920    -0.00094271    -0.00077770
    14
  Step:     7            Position(A)                                  Velocity(au)
C        -6.01945332    -0.85827513    -0.17412439     0.00041052    -0.00007059    -0.00001867
C        -4.68874132    -0.74090671     0.18586361    -0.00032112    -0.00009155    -0.00007253
H        -6.52092930     0.01981451    -0.66700022    -0.00179485    -0.00098939     0.00121241
H        -6.67857822    -1.71464658     0.08228629    -0.00003071    -0.00061993     0.00037583
H        -4.18247790    -1.56183617     0.70545174    -0.00051832     0.00068861     0.00008113
C        -3.92103471     0.44870217    -0.09424451    -0.00034270     0.00012195    -0.00026006
C        -2.60477037     0.62508943     0.28015576     0.00047276     0.00035372     0.00012807
H        -4.55225147     1.30072889    -0.51922588    -0.00057867    -0.00013828     0.00053649
H        -2.14303389    -0.24603965     0.69970072    -0.00049018     0.00051536    -0.00024462
C        -1.82072650     1.79301802    -0.00481512    -0.00053525    -0.00006354    -0.00017976
H        -2.21871459     2.71345844    -0.32759194     0.00190736    -0.00083231     0.00073453
N        -0.47744300     1.70961261     0.18437555     0.00052398    -0.00000344     0.00023942
H         0.10538376     2.44240271    -0.11526500    -0.00059232    -0.00018940    -0.00051898
H        -0.09084890     0.82449897     0.29542921    -0.00142078    -0.00136588    -0.00070240
    14
  Step:     8            Position(A)                                  Velocity(au)
C        -6.01507628    -0.85896814    -0.17433876     0.00038373    -0.00005940    -0.00002000
C        -4.69218528    -0.74191254     0.18507289    -0.00030456    -0.00008840    -0.00007262
H        -6.54007176     0.00790324    -0.65335523    -0.00169691    -0.00117349     0.00127328
H        -6.67813903    -1.72096244     0.08615427     0.00012827    -0.00052054     0.00032624
H        -4.18823154    -1.55429582     0.70622042    -0.00052218     0.00067075     0.00006876
C        -3.92524632     0.45009575    -0.09717382    -0.00042660     0.00013045    -0.00027381
C        -2.59938784     0.62907598     0.28152881     0.00050749     0.00037677     0.00012131
H        -4.55725050     1.29815686    -0.51297141    -0.00034077    -0.00031973     0.00059875
H        -2.14752654    -0.24079719     0.69751349    -0.00031470     0.00042285    -0.00014569
C        -1.82658758     1.79211686    -0.00670344    -0.00052647    -0.00010730    -0.00016205
H        -2.19854740     2.70558268    -0.32002845     0.00173577    -0.00053094     0.00061835
N        -0.47182697     1.70966273     0.18700953     0.00049728     0.00000809     0.00024297
H         0.10013421     2.44167758    -0.12146351    -0.00034496     0.00007069    -0.00062436
H        -0.10509127     0.80729163     0.28813442    -0.00118899    -0.00173642    -0.00063976
    14
  Step:     9            Position(A)                                  Velocity(au)
C        -6.01105839    -0.85957457    -0.17456191     0.00034556    -0.00005467    -0.00002025
C        -4.69540415    -0.74284059     0.18427484    -0.00027997    -0.00007712    -0.00007393
H        -6.55805246    -0.00585777    -0.63914483    -0.00158593    -0.00132304     0.00131335
H        -6.67577209    -1.72603449     0.08942345     0.00031665    -0.00039866     0.00026828
H        -4.19390160    -1.54716230     0.70695610    -0.00050271     0.00061472     0.00007483
C        -3.93036734     0.45155604    -0.10023462    -0.00050897     0.00013324    -0.00028384
C        -2.59366797     0.63333210     0.28280958     0.00053557     0.00040266     0.00011164
H        -4.55970644     1.29373429    -0.50612703    -0.00012057    -0.00046908     0.00064082
H        -2.14991850    -0.23678903     0.69651344    -0.00011131     0.00029725    -0.00003191
C        -1.83224397     1.79067073    -0.00836037    -0.00050011    -0.00016170    -0.00013814
H        -2.18074132     2.70184314    -0.31406425     0.00148689    -0.00009561     0.00044898
N        -0.46656399     1.70978953     0.18969088     0.00046240     0.00001013     0.00024775
H         0.09783701     2.44394919    -0.12892399    -0.00007008     0.00033813    -0.00074146
H        -0.11686041     0.78651148     0.28143317    -0.00097776    -0.00199294    -0.00059553
    14
  Step:    10            Position(A)                                  Velocity(au)
C        -6.00751645    -0.86016415    -0.17478169     0.00029763    -0.00005615    -0.00001936
C        -4.69831020    -0.74359978     0.18345560    -0.00024763    -0.00005774    -0.00007644
H        -6.57476696    -0.02104078    -0.62462316    -0.00146911    -0.00142953     0.00132829
H        -6.67121181    -1.72968382     0.09202350     0.00052380    -0.00026689     0.00020593
H        -4.19922930    -1.54084770     0.70785747    -0.00046030     0.00052317     0.00009784
C        -3.93638095     0.45301068    -0.10338331    -0.00058888     0.00012890    -0.00028954
C        -2.58767127     0.63788491     0.28397112     0.00055833     0.00042980     0.00009997
H        -4.55988828     1.28789493    -0.49895217     0.00006808    -0.00057129     0.00065580
H        -2.14996162    -0.23429418     0.69681549     0.00010838     0.00015599     0.00008732
C        -1.83752852     1.78857928    -0.00972552    -0.00046077    -0.00022196    -0.00010992
H        -2.16601885     2.70349105    -0.31020612     0.00118779     0.00041944     0.00024516
N        -0.46171120     1.70988429     0.19242942     0.00042473     0.00000278     0.00025282
H         0.09860107     2.44907492    -0.13768437     0.00019728     0.00057185    -0.00085268
H        -0.12648160     0.76369225     0.27510608    -0.00079942    -0.00209678    -0.00057068
    14
  Step:    11            Position(A)                                  Velocity(au)
C        -6.00454725    -0.86080297    -0.17498552     0.00024200    -0.00006340    -0.00001729
C        -4.70082156    -0.74410384     0.18260264    -0.00020843    -0.00003121    -0.00007990
H        -6.59019195    -0.03713151    -0.61008602    -0.00135390    -0.00148587     0.00131485
H        -6.66431294    -1.73187327     0.09392864     0.00073851    -0.00013837     0.00014325
H        -4.20397144    -1.53571701     0.70909653    -0.00039748     0.00040216     0.00013433
C        -3.94325027     0.45437589    -0.10656878    -0.00066353     0.00011685    -0.00029018
C        -2.58145335     0.64273491     0.28499655     0.00057512     0.00045495     0.00008719
H        -4.55821701     1.28123628    -0.49178012     0.00021169    -0.00061190     0.00063735
H        -2.14754754    -0.23337635     0.69842364     0.00033125     0.00001953     0.00020194
C        -1.84232417     1.78581492    -0.01076518    -0.00041237    -0.00028014    -0.00008015
H        -2.15475605     2.71101913    -0.30870082     0.00087082     0.00093751     0.00003303
N        -0.45727211     1.70985031     0.19522182     0.00038834    -0.00001218     0.00025690
H         0.10215284     2.45645954    -0.14757792     0.00042564     0.00073459    -0.00094027
H        -0.13434915     0.74064048     0.26894844    -0.00065572    -0.00203636    -0.00056239
    14
  Step:    12            Position(A)                                  Velocity(au)
C        -6.00222231    -0.86155121    -0.17516000     0.00018116    -0.00007575    -0.00001397
C        -4.70286992    -0.74428250     0.18170756    -0.00016382     0.00000071    -0.00008388
H        -6.60438607    -0.05354707    -0.59585822    -0.00124743    -0.00148705     0.00127118
H        -6.65505554    -1.73271089     0.09515740     0.00094923    -0.00002640     0.00008423
H        -4.20792495    -1.53204978     0.71079611    -0.00031890     0.00026101     0.00017888
C        -3.95089701     0.45556706    -0.10973147    -0.00072892     0.00009733    -0.00028505
C        -2.57508947     0.64783781     0.28587856     0.00058371     0.00047377     0.00007419
H        -4.55525719     1.27450842    -0.48500883     0.00029831    -0.00057835     0.00058034
H        -2.14271493    -0.23386700     0.70123324     0.00054443    -0.00009196     0.00030267
C        -1.84654986     1.78245059    -0.01147903    -0.00035743    -0.00032717    -0.00005178
H        -2.14696794     2.72400078    -0.30948362     0.00056557     0.00137891    -0.00016065
N        -0.45321553     1.70961777     0.19804957     0.00035551    -0.00003207     0.00025870
H         0.10791267     2.46514558    -0.15825452     0.00059267     0.00080045    -0.00099018
H        -0.14082684     0.71914302     0.26280265    -0.00054141    -0.00182335    -0.00056588
    14
  Step:    13            Position(A)                                  Velocity(au)
C        -6.00058408    -0.86246022    -0.17529110     0.00011779    -0.00009223    -0.00000938
C        -4.70440534    -0.74408829     0.18076759    -0.00011547     0.00003588    -0.00008784
H        -6.61748185    -0.06966362    -0.58227650    -0.00115563    -0.00143110     0.00119707
H        -6.64354674    -1.73245081     0.09577135     0.00114438     0.00005582     0.00003275
H        -4.21094790    -1.53000694     0.71300981    -0.00023077     0.00011148     0.00022449
C        -3.95919688     0.45650517    -0.11280482    -0.00078145     0.00007100    -0.00027372
C        -2.56868351     0.65309947     0.28661956     0.00058183     0.00048211     0.00006183
H        -4.55169090     1.26858371    -0.47908411     0.00031976    -0.00046250     0.00048189
H        -2.13563705    -0.23538809     0.70504515     0.00073694    -0.00016186     0.00038203
C        -1.85014352     1.77865747    -0.01189801    -0.00029714    -0.00035541    -0.00002724
H        -2.14238305     2.74118545    -0.31221530     0.00029274     0.00168195    -0.00031545
N        -0.44949467     1.70914868     0.20088141     0.00032703    -0.00005411     0.00025730
H         0.11511863     2.47397082    -0.16923996     0.00068766     0.00075856    -0.00099441
H        -0.14619356     0.70075117     0.25656876    -0.00044800    -0.00148465    -0.00057603
    14
  Step:    14            Position(A)                                  Velocity(au)
C        -5.99964542    -0.86356903    -0.17536516     0.00005449    -0.00011157    -0.00000363
C        -4.70539600    -0.74349757     0.17978590    -0.00006498     0.00007219    -0.00009125
H        -6.62966776    -0.08485522    -0.56967003    -0.00108234    -0.00131985     0.00109426
H        -6.63001999    -1.73148975     0.09587393     0.00131275     0.00009568    -0.00000749
H        -4.21297352    -1.52961094     0.71570721    -0.00014007    -0.00003364     0.00026334
C        -3.96799265     0.45712026    -0.11571966    -0.00081893     0.00003894    -0.00025622
C        -2.56236080     0.65838488     0.28723128     0.00056801     0.00047691     0.00005091
H        -4.54826186     1.26439034    -0.47446666     0.00027437    -0.00026418     0.00034286
H        -2.12659295    -0.23740793     0.70959093     0.00090076    -0.00017955     0.00043514
C        -1.85305028     1.77467542    -0.01207493    -0.00023188    -0.00036032    -0.00000801
H        -2.14056377     2.76079657    -0.31638463     0.00006232     0.00181508    -0.00042097
N        -0.44606112     1.70843396     0.20367843     0.00030267    -0.00007596     0.00025223
H         0.12295660     2.48174056    -0.18000906     0.00071080     0.00061267    -0.00095143
H        -0.15062759     0.68666348     0.25020084    -0.00036642    -0.00105467    -0.00058833
    14
  Step:    15            Position(A)                                  Velocity(au)
C        -5.99939205    -0.86490113    -0.17537050    -0.00000648    -0.00013223     0.00000301
C        -4.70582692    -0.74250892     0.17877122    -0.00001384     0.00010774    -0.00009366
H        -6.64116006    -0.09853791    -0.55833749    -0.00102844    -0.00115933     0.00096663
H        -6.61482785    -1.73035769     0.09560759     0.00144408     0.00008178    -0.00003318
H        -4.21401227    -1.53074282     0.71877097    -0.00005346    -0.00016210     0.00028793
C        -3.97711246     0.45735708    -0.11841020    -0.00084084     0.00000293    -0.00023317
C        -2.55625729     0.66353274     0.28773327     0.00054172     0.00045647     0.00004201
H        -4.54568859     1.26280424    -0.47158330     0.00016924     0.00000549     0.00016907
H        -2.11593128    -0.23931612     0.71456472     0.00103113    -0.00014128     0.00046004
C        -1.85521644     1.77077487    -0.01207319    -0.00016168    -0.00034063     0.00000538
H        -2.14101962     2.78089375    -0.32142473    -0.00012425     0.00177668    -0.00047618
N        -0.44287326     1.70748689     0.20639953     0.00028156    -0.00009586     0.00024351
H         0.13066879     2.48737425    -0.19005440     0.00067046     0.00037765    -0.00086520
H        -0.15420974     0.67767815     0.24369782    -0.00028833    -0.00057017    -0.00059915
    14
  Step:    16            Position(A)                                  Velocity(au)
C        -5.99978725    -0.86646178    -0.17529921    -0.00006337    -0.00015249     0.00001016
C        -4.70569886    -0.74114048     0.17773694     0.00003654     0.00014089    -0.00009469
H        -6.65216678    -0.11021780    -0.54852324    -0.00099141    -0.00095985     0.00082008
H        -6.59842799    -1.72970058     0.09514815     0.00153006     0.00000524    -0.00004181
H        -4.21414314    -1.53315724     0.72200634     0.00002357    -0.00026370     0.00029209
C        -3.98638760     0.45718426    -0.12082079    -0.00084811    -0.00003441    -0.00020577
C        -2.55050969     0.66837099     0.28815031     0.00050324     0.00042045     0.00003548
H        -4.54455942     1.26451041    -0.47076788     0.00002073     0.00032273    -0.00002836
H        -2.10403498    -0.24049860     0.71965515     0.00112623    -0.00004947     0.00045746
C        -1.85658741     1.76722347    -0.01195725    -0.00008651    -0.00029764     0.00001311
H        -2.14328198     2.79966478    -0.32680206    -0.00027052     0.00158620    -0.00048633
N        -0.43990135     1.70633684     0.20900571     0.00026250    -0.00011253     0.00023145
H         0.13762411     2.49000242    -0.19893688     0.00057995     0.00007517    -0.00074341
H        -0.15693532     0.67418988     0.23709319    -0.00020637    -0.00006770    -0.00060577
    14
  Step:    17            Position(A)                                  Velocity(au)
C        -6.00077850    -0.86823714    -0.17514832    -0.00011510    -0.00017070     0.00001734
C        -4.70502757    -0.73942673     0.17669967     0.00008482     0.00017030    -0.00009414
H        -6.66284913    -0.11953653    -0.54039668    -0.00096554    -0.00073530     0.00066215
H        -6.58135482    -1.73024300     0.09469297     0.00156562    -0.00013851    -0.00003229
H        -4.21349653    -1.53651176     0.72516110     0.00008734    -0.00033127     0.00027179
C        -3.99566654     0.45660429    -0.12291181    -0.00084272    -0.00006966    -0.00017565
C        -2.54524790     0.67273098     0.28850936     0.00045351     0.00036978     0.00003136
H        -4.54523503     1.26986465    -0.47220372    -0.00014769     0.00065318    -0.00023407
H        -2.09129284    -0.24039842     0.72457254     0.00118654     0.00008851     0.00043031
C        -1.85710891     1.76426332    -0.01178639    -0.00000656    -0.00023432     0.00001582
H        -2.14693779     2.81559487    -0.33206414    -0.00038180     0.00127356    -0.00045951
N        -0.43713058     1.70502516     0.21146297     0.00024404    -0.00012495     0.00021659
H         0.14335628     2.48901881    -0.20631790     0.00045507    -0.00026978    -0.00059609
H        -0.15872450     0.67619703     0.23044538    -0.00011398     0.00041679    -0.00060629
    14
  Step:    18            Position(A)                                  Velocity(au)
C        -6.00230518    -0.87019622    -0.17491989    -0.00016127    -0.00018555     0.00002416
C        -4.70384322    -0.73741491     0.17567750     0.00012971     0.00019496    -0.00009194
H        -6.67328981    -0.12630384    -0.53403737    -0.00094276    -0.00050172     0.00050118
H        -6.56417704    -1.73273084     0.09444173     0.00155019    -0.00034768    -0.00000554
H        -4.21223247    -1.54040445     0.72795235     0.00013614    -0.00036115     0.00022544
C        -4.00482382     0.45566031    -0.12466346    -0.00082716    -0.00009910    -0.00014465
C        -2.54058834     0.67646057     0.28883635     0.00039401     0.00030646     0.00002943
H        -4.54779050     1.27879996    -0.47588860    -0.00031014     0.00095771    -0.00043096
H        -2.07807720    -0.23856223     0.72906895     0.00121421     0.00026193     0.00038301
C        -1.85673090     1.76209727    -0.01161107     0.00007753    -0.00015462     0.00001443
H        -2.15163454     2.82752627    -0.33685464    -0.00046328     0.00087122    -0.00040439
N        -0.43456255     1.70360328     0.21374413     0.00022464    -0.00013223     0.00019963
H         0.14757965     2.48410052    -0.21197744     0.00031255    -0.00063113    -0.00043457
H        -0.15942888     0.68330802     0.22382943    -0.00000504     0.00084774    -0.00059958
    14
  Step:    19            Position(A)                                  Velocity(au)
C        -6.00430649    -0.87229633    -0.17461982    -0.00020220    -0.00019636     0.00003037
C        -4.70218999    -0.73516153     0.17468834     0.00016997     0.00021420    -0.00008818
H        -6.68347386    -0.13051258    -0.52943238    -0.00091413    -0.00027551     0.00034537
H        -6.54744138    -1.73784925     0.09457187     0.00148867    -0.00061219     0.00003500
H        -4.21051827    -1.54441256     0.73009309     0.00017018    -0.00035302     0.00015381
C        -4.01376227     0.45443622    -0.12607639    -0.00080382    -0.00011935    -0.00011451
C        -2.53662809     0.67943535     0.28915313     0.00032671     0.00023342     0.00002919
H        -4.55202000     1.29081638    -0.48163170    -0.00044381     0.00120027    -0.00060336
H        -2.06472977    -0.23466821     0.73295162     0.00121247     0.00045812     0.00032088
C        -1.85541280     1.76088060    -0.01147082     0.00016469    -0.00006312     0.00000996
H        -2.15707284     2.83465453    -0.34091090    -0.00051938     0.00041018    -0.00032911
N        -0.43221608     1.70213248     0.21583032     0.00020272    -0.00013348     0.00018138
H         0.15019392     2.47521165    -0.21582506     0.00016942    -0.00098268    -0.00027109
H        -0.15883471     0.69474288     0.21732833     0.00012630     0.00119005    -0.00058527
    14
  Step:    20            Position(A)                                  Velocity(au)
C        -6.00672859    -0.87449190    -0.17425538    -0.00023874    -0.00020332     0.00003600
C        -4.70012479    -0.73272892     0.17374837     0.00020452     0.00022762    -0.00008309
H        -6.69328810    -0.13233123    -0.52648181    -0.00087141    -0.00007152     0.00020197
H        -6.53160943    -1.74612363     0.09520737     0.00139127    -0.00091316     0.00008316
H        -4.20850947    -1.54812752     0.73131719     0.00019123    -0.00030954     0.00005973
C        -4.02240901     0.45304923    -0.12716857    -0.00077461    -0.00012794    -0.00008656
C        -2.53344089     0.68156705     0.28947483     0.00025385     0.00015424     0.00002992
H        -4.55749973     1.30505818    -0.48908834    -0.00053315     0.00135460    -0.00073982
H        -2.05155218    -0.22853990     0.73608877     0.00118532     0.00066351     0.00024963
C        -1.85312797     1.76071650    -0.01139308     0.00025348     0.00003530     0.00000358
H        -2.16299691     2.83649974    -0.34405464    -0.00055382    -0.00008113    -0.00024107
N        -0.43012768     1.70068313     0.21771219     0.00017667    -0.00012802     0.00016277