 Fermi distribution function

Calculation with static geometry


********************************************************************************
 iSCC Total electronic   Diff electronic      SCC error    
   13   -0.52768847E+01   -0.15263879E-09    0.10713601E-06
********************************************************************************

 Total charge:     1.00000000

 Atomic gross charges (e)
 Atom           Charge
    1       0.29296384
    2      -0.19481340
    3       0.18569316
    4       0.27450102
    5       0.26135530
    6       0.18030007

Nr. of electrons (up):     12.00000000
Atom populations (up)
 Atom       Population
    1       3.70703616
    2       5.19481340
    3       0.81430684
    4       0.72549898
    5       0.73864470
    6       0.81969993

l-shell populations (up)
 Atom Sh.   l       Population
    1   1   0       1.40898484
    1   2   1       2.29805132
    2   1   0       1.51424368
    2   2   1       3.68056972
    3   1   0       0.81430684
    4   1   0       0.72549898
    5   1   0       0.73864470
    6   1   0       0.81969993

Orbital populations (up)
 Atom Sh.   l   m       Population  Label
    1   1   0   0       1.40898484  s
    1   2   1  -1       0.44416018  p_y
    1   2   1   0       0.85468541  p_z
    1   2   1   1       0.99920573  p_x
    2   1   0   0       1.51424368  s
    2   2   1  -1       1.39031290  p_y
    2   2   1   0       1.08428288  p_z
    2   2   1   1       1.20597394  p_x
    3   1   0   0       0.81430684  s
    4   1   0   0       0.72549898  s
    5   1   0   0       0.73864470  s
    6   1   0   0       0.81969993  s

Fermi level:                        -0.5081982046 H          -13.8288 eV
Band energy:                        -8.6319655803 H         -234.8877 eV
TS:                                  0.0000000000 H            0.0000 eV
Band free energy (E-TS):            -8.6319655803 H         -234.8877 eV
Extrapolated E(0K):                 -8.6319655803 H         -234.8877 eV
Input / Output electrons (q):     12.0000000000     12.0000000000

Energy H0:                          -5.4101045291 H         -147.2164 eV
Energy SCC:                          0.1332198076 H            3.6251 eV
Total Electronic energy:            -5.2768847214 H         -143.5913 eV
Repulsive energy:                    0.1333188423 H            3.6278 eV
Total energy:                       -5.1435658791 H         -139.9635 eV
Extrapolated to 0:                  -5.1435658791 H         -139.9635 eV
Total Mermin free energy:           -5.1435658791 H         -139.9635 eV
Force related energy:               -5.1435658791 H         -139.9635 eV

SCC converged

Excitation Energy:                   0.1095003774 H            2.9797 eV

Total Forces
    1     -0.001399389027     -0.002532264417      0.040204910371
    2      0.012241859244     -0.004563332336     -0.032380866985
    3     -0.001022346417      0.007895975604     -0.001237244959
    4     -0.016733625592      0.000457457309     -0.010339376075
    5      0.001211309666      0.007791517159      0.002547636157
    6      0.005702192126     -0.009049353317      0.001204941491

Maximal derivative component:        0.402049E-01 au


