|===============================================================================
|
|  DFTB+ release 20.1
|
|  Copyright (C) 2006 - 2020  DFTB+ developers group
|
|===============================================================================
|
|  When publishing results obtained with DFTB+, please cite the following
|  reference:
|
|  * DFTB+, a software package for efficient approximate density functional
|    theory based atomistic simulations, J. Chem. Phys. 152, 124101 (2020).
|    [doi: 10.1063/1.5143190]
|
|  You should also cite additional publications crediting the parametrization
|  data you use. Please consult the documentation of the SK-files for the
|  references.
|
|===============================================================================

Reading input file 'dftb_in.hsd'
Parser version: 8

--------------------------------------------------------------------------------
Reading SK-files:
Done.


Processed input in HSD format written to 'dftb_pin.hsd'

Starting initialization...
--------------------------------------------------------------------------------
WARNING!
-> Excited state forces are not implemented yet for fractional occupations, kT=  0.3158E-02K
OpenMP threads:              1
Chosen random seed:          508343537
Mode:                        Static calculation
Self consistent charges:     Yes
SCC-tolerance:                 0.100000E-05
Max. scc iterations:                    100
Shell resolved Hubbard:      No
Spin polarisation:           No
Nr. of up electrons:             6.000000
Nr. of down electrons:           6.000000
Periodic boundaries:         No
Electronic solver:           Relatively robust
Mixer:                       Broyden mixer
Mixing parameter:                  0.200000
Maximal SCC-cycles:                     100
Nr. of chrg. vec. in memory:              0
Electronic temperature:        0.100000E-07 H      0.272114E-06 eV
Initial charges:             Set automatically (system chrg:   0.100E+01)
Included shells:             C:  s, p
                             N:  s, p
                             H:  s
Extra options:
                             Mulliken analysis
                             Force calculation
Force type                   original
                             Eigenvector printing

--------------------------------------------------------------------------------

***  Geometry step: 0

 iSCC Total electronic   Diff electronic      SCC error    
    1   -0.52357036E+01    0.00000000E+00    0.11123415E+01
    2   -0.52637054E+01   -0.28001861E-01    0.67023628E+00
    3   -0.52719254E+01   -0.82199343E-02    0.30614208E+00
    4   -0.47064178E+01    0.56550755E+00    0.25212979E+01
    5   -0.52764229E+01   -0.57000508E+00    0.67971348E-01
    6   -0.52768722E+01   -0.44930619E-03    0.15035290E-01
    7   -0.52768846E+01   -0.12434760E-04    0.23300194E-02
    8   -0.52768847E+01   -0.69365456E-07    0.19934321E-03
    9   -0.52768846E+01    0.11561881E-06    0.11921256E-02
   10   -0.52768847E+01   -0.12096134E-06    0.22570271E-03
   11   -0.52768847E+01   -0.40822918E-08    0.53246373E-04
   12   -0.52768847E+01   -0.67013062E-10    0.39915296E-04
   13   -0.52768847E+01   -0.15263879E-09    0.10713601E-06
>> Charges saved for restart in charges.bin

Total Energy:                       -5.0340655017 H         -136.9839 eV
Extrapolated to 0:                  -5.1435658791 H         -139.9635 eV
Total Mermin free energy:           -5.0340655017 H         -136.9839 eV
Force related energy:               -5.1435658791 H         -139.9635 eV

--------------------------------------------------------------------------------
DFTB+ running times                          cpu [s]             wall clock [s]
--------------------------------------------------------------------------------
SCC                                    +     0.02  ( 71.8%)      0.06  ( 76.7%)
Post-SCC processing                    +     0.01  ( 22.7%)      0.01  ( 17.8%)
--------------------------------------------------------------------------------
Missing                                +     0.00  (  5.5%)      0.00  (  5.5%)
Total                                  =     0.03  (100.0%)      0.07  (100.0%)
--------------------------------------------------------------------------------
