     6
  Step:   120            Position(A)                                  Velocity(au)
C        -0.05481537    -0.04720665    -0.03197102    -0.00010978    -0.00011815    -0.00001013
N        -0.04196871    -0.04364695     1.35243639     0.00002899     0.00008788    -0.00012185
H         0.90127343    -0.04727391    -0.66356933     0.00008225    -0.00075770     0.00047026
H         0.84524621     0.18189510     1.87168641    -0.00079798     0.00100265     0.00004640
H        -0.92479486    -0.27776285     1.84993055     0.00055824    -0.00146889     0.00038842
H        -0.79827886     0.64240502    -0.57896654     0.00106276     0.00141071     0.00090901
