     6
  Step:     0            Position(A)                                  Velocity(au)
C        -0.03195401    -0.00419263     0.03463192     0.00003829     0.00009550    -0.00030342
N        -0.05698557    -0.03979625     1.28736952    -0.00001189    -0.00011255     0.00026224
H         0.91453630    -0.00394772    -0.52143239    -0.00013494    -0.00022303    -0.00012357
H         0.91221079    -0.17814382     1.81136743    -0.00028323     0.00042051    -0.00012570
H        -0.87762322    -0.07621014     1.83237009     0.00005810     0.00051949    -0.00028326
H        -0.98940380     0.19150578    -0.53267949     0.00006897    -0.00029097     0.00050394
     6
  Step:     1            Position(A)                                  Velocity(au)
C        -0.03178505    -0.00367115     0.03258228     0.00002354     0.00009489    -0.00044393
N        -0.05694639    -0.04042577     1.28912509     0.00002618    -0.00011800     0.00037770
H         0.91421037    -0.00512324    -0.52209553     0.00001615    -0.00020477    -0.00011938
H         0.91005041    -0.17573423     1.81037130    -0.00050244     0.00046163    -0.00023564
H        -0.87804543    -0.07336607     1.83113060    -0.00021547     0.00052368    -0.00016751
H        -0.98905348     0.18996145    -0.52975303     0.00005739    -0.00027155     0.00056376
     6
  Step:     2            Position(A)                                  Velocity(au)
C        -0.03169651    -0.00315465     0.02977613     0.00000901     0.00009328    -0.00057954
N        -0.05669922    -0.04108700     1.29150089     0.00006365    -0.00012440     0.00048861
H         0.91471293    -0.00618750    -0.52273815     0.00016551    -0.00017993    -0.00011557
H         0.90671499    -0.17309437     1.80878996    -0.00071017     0.00050611    -0.00033768
H        -0.87998010    -0.07048198     1.83053784    -0.00049051     0.00053656    -0.00004854
H        -0.98877601     0.18853544    -0.52651292     0.00004323    -0.00024569     0.00061775
     6
  Step:     3            Position(A)                                  Velocity(au)
C        -0.03168651    -0.00265056     0.02624173    -0.00000487     0.00008961    -0.00071064
N        -0.05624998    -0.04178678     1.29447081     0.00009927    -0.00013268     0.00059517
H         0.91602119    -0.00709175    -0.52335989     0.00030205    -0.00014094    -0.00011157
H         0.90228069    -0.17019702     1.80667678    -0.00090104     0.00055894    -0.00042570
H        -0.88341192    -0.06749569     1.83059949    -0.00075550     0.00056562     0.00007195
H        -0.98858054     0.18727340    -0.52299445     0.00003291    -0.00020776     0.00066272
     6
  Step:     4            Position(A)                                  Velocity(au)
C        -0.03174981    -0.00217344     0.02199492    -0.00001665     0.00008447    -0.00084199
N        -0.05561224    -0.04253975     1.29801771     0.00013133    -0.00014293     0.00070116
H         0.91802018    -0.00773072    -0.52395975     0.00039694    -0.00008780    -0.00010892
H         0.89684899    -0.16697421     1.80412870    -0.00107298     0.00061881    -0.00048913
H        -0.88825246    -0.06428869     1.83132569    -0.00099294     0.00060919     0.00019714
H        -0.98841561     0.18626056    -0.51925644     0.00004234    -0.00016064     0.00069057
     6
  Step:     5            Position(A)                                  Velocity(au)
C        -0.03186907    -0.00172420     0.01700817    -0.00002534     0.00008055    -0.00097125
N        -0.05480982    -0.04335418     1.30215996     0.00015852    -0.00015238     0.00080508
H         0.92037415    -0.00805461    -0.52455429     0.00044216    -0.00003810    -0.00010914
H         0.89051404    -0.16341099     1.80131288    -0.00122139     0.00066897    -0.00052379
H        -0.89430080    -0.06081515     1.83276139    -0.00119117     0.00064656     0.00032240
H        -0.98811623     0.18551174    -0.51542146     0.00006936    -0.00011979     0.00069622
     6
  Step:     6            Position(A)                                  Velocity(au)
C        -0.03202831    -0.00128795     0.01131856    -0.00003156     0.00007838    -0.00108688
N        -0.05386970    -0.04421483     1.30686756     0.00018009    -0.00015892     0.00089799
H         0.92288062    -0.00814952    -0.52515946     0.00046134    -0.00000130    -0.00011151
H         0.88342289    -0.15962058     1.79837095    -0.00133418     0.00069906    -0.00053273
H        -0.90134638    -0.05718139     1.83486965    -0.00134778     0.00066684     0.00043429
H        -0.98765312     0.18494376    -0.51160324     0.00009405    -0.00009017     0.00068245
     6
  Step:     7            Position(A)                                  Velocity(au)
C        -0.03221714    -0.00085977     0.00502123    -0.00003594     0.00007653    -0.00118093
N        -0.05282367    -0.04510691     1.31206371     0.00019505    -0.00016268     0.00097341
H         0.92546220    -0.00806891    -0.52578409     0.00046873     0.00002767    -0.00011530
H         0.87579974    -0.15570121     1.79543753    -0.00139937     0.00071158    -0.00051564
H        -0.90916519    -0.05346073     1.83755104    -0.00145875     0.00067500     0.00052451
H        -0.98707896     0.18451727    -0.50789485     0.00010699    -0.00006554     0.00065158
     6
  Step:     8            Position(A)                                  Velocity(au)
C        -0.03242628    -0.00044039    -0.00175985    -0.00003858     0.00007428    -0.00124956
N        -0.05170954    -0.04601650     1.31764778     0.00020258    -0.00016380     0.00102814
H         0.92807169    -0.00784303    -0.52643633     0.00046817     0.00005179    -0.00012046
H         0.86792532    -0.15174007     1.79266042    -0.00140934     0.00070825    -0.00047105
H        -0.91750157    -0.04970602     1.84067839    -0.00151989     0.00067375     0.00058948
H        -0.98646824     0.18421789    -0.50438725     0.00010561    -0.00004275     0.00060440
     6
  Step:     9            Position(A)                                  Velocity(au)
C        -0.03264643    -0.00003316    -0.00888374    -0.00003953     0.00007134    -0.00129153
N        -0.05056942    -0.04692967     1.32350480     0.00020234    -0.00016242     0.00106109
H         0.93067192    -0.00749262    -0.52712450     0.00046139     0.00007231    -0.00012697
H         0.86011677    -0.14781982     1.79019573    -0.00136111     0.00069057    -0.00039909
H        -0.92607834    -0.04596327     1.84411069    -0.00153039     0.00066451     0.00062829
H        -0.98590375     0.18404153    -0.50116918     0.00008933    -0.00002055     0.00054237
     6
  Step:    10            Position(A)                                  Velocity(au)
C        -0.03286838     0.00035754    -0.01620444    -0.00003891     0.00006770    -0.00130847
N        -0.04944658    -0.04783300     1.32951516     0.00019470    -0.00015888     0.00107352
H         0.93323194    -0.00703432    -0.52785639     0.00044999     0.00008991    -0.00013480
H         0.85270258    -0.14401663     1.78819696    -0.00125693     0.00066084    -0.00030196
H        -0.93461761    -0.04227404     1.84770522    -0.00149400     0.00064883     0.00064252
H        -0.98546911     0.18398804    -0.49832133     0.00005888     0.00000147     0.00046809
     6
  Step:    11            Position(A)                                  Velocity(au)
C        -0.03308361     0.00072751    -0.02358609    -0.00003693     0.00006350    -0.00130485
N        -0.04838171    -0.04871485     1.33556714     0.00018068    -0.00015375     0.00106901
H         0.93572817    -0.00648234    -0.52863913     0.00043588     0.00010517    -0.00014404
H         0.84599350    -0.14039440     1.78680276    -0.00110389     0.00062235    -0.00018356
H        -0.94286534    -0.03867277     1.85133019    -0.00141857     0.00062889     0.00063592
H        -0.98524217     0.18405809    -0.49590958     0.00001589     0.00002339     0.00038497
     6
  Step:    12            Position(A)                                  Velocity(au)
C        -0.03328487     0.00107361    -0.03091820    -0.00003391     0.00005901    -0.00128703
N        -0.04740923    -0.04956672     1.34156958     0.00016169    -0.00014776     0.00105277
H         0.93814705    -0.00584836    -0.52948063     0.00042117     0.00011875    -0.00015500
H         0.84025486    -0.13699883     1.78612707    -0.00091211     0.00057892    -0.00004847
H        -0.95061374    -0.03518255     1.85487605    -0.00131437     0.00060728     0.00061363
H        -0.98528996     0.18425183    -0.49398033    -0.00003758     0.00004521     0.00029648
     6
  Step:    13            Position(A)                                  Velocity(au)
C        -0.03346665     0.00139416    -0.03812543    -0.00004717     0.00008527    -0.00197497
N        -0.04655514    -0.05038411     1.34746011     0.00021793    -0.00022171     0.00161273
H         0.94048610    -0.00514081    -0.53039015     0.00063831     0.00020567    -0.00026305
H         0.83568954    -0.13385443     1.78625515    -0.00108375     0.00083608     0.00015500
H        -0.95771352    -0.03181239     1.85826230    -0.00186512     0.00091812     0.00090936
H        -0.98566666     0.18456880    -0.49256031    -0.00015581     0.00010485     0.00032147
     6
  Step:    14            Position(A)                                  Velocity(au)
C        -0.03371560     0.00184100    -0.04880351    -0.00004016     0.00007193    -0.00177940
N        -0.04540785    -0.05158875     1.35620532     0.00018368    -0.00020203     0.00146146
H         0.94428286    -0.00398072    -0.53223852     0.00069489     0.00020206    -0.00038249
H         0.83034536    -0.12933273     1.78758783    -0.00078134     0.00075448     0.00031980
H        -0.96779117    -0.02682829     1.86327220    -0.00166757     0.00083562     0.00084570
H        -0.98701874     0.18531810    -0.49134041    -0.00032000     0.00015812     0.00011146
     6
  Step:    15            Position(A)                                  Velocity(au)
C        -0.03392382     0.00221312    -0.05838365    -0.00003304     0.00005920    -0.00159342
N        -0.04446400    -0.05268420     1.36409862     0.00014740    -0.00018374     0.00131690
H         0.94839727    -0.00284041    -0.53474472     0.00074963     0.00019907    -0.00049437
H         0.82679411    -0.12526479     1.78989605    -0.00046147     0.00067866     0.00049493
H        -0.97669854    -0.02229902     1.86789051    -0.00145962     0.00075951     0.00077496
H        -0.98930978     0.18636896    -0.49129132    -0.00048324     0.00021064    -0.00008840
     6
  Step:    16            Position(A)                                  Velocity(au)
C        -0.03409135     0.00251430    -0.06692548    -0.00002613     0.00004737    -0.00142457
N        -0.04373147    -0.05367848     1.37118247     0.00011078    -0.00016761     0.00118543
H         0.95280842    -0.00171668    -0.53786101     0.00080314     0.00019752    -0.00060052
H         0.82509710    -0.12161433     1.79321668    -0.00013725     0.00061233     0.00067656
H        -0.98439148    -0.01819038     1.87208590    -0.00125150     0.00069213     0.00070316
H        -0.99251466     0.18771373    -0.49234575    -0.00064255     0.00026271    -0.00027705
     6
  Step:    17            Position(A)                                  Velocity(au)
C        -0.03421997     0.00274991    -0.07452862    -0.00001955     0.00003637    -0.00127187
N        -0.04320847    -0.05458373     1.37753333     0.00007465    -0.00015346     0.00106645
H         0.95749940    -0.00060191    -0.54155053     0.00085328     0.00019730    -0.00070130
H         0.82523864    -0.11832507     1.79756369     0.00018164     0.00055565     0.00085964
H        -0.99088205    -0.01445496     1.87585957    -0.00104520     0.00063224     0.00063196
H        -0.99659197     0.18934625    -0.49443117    -0.00079415     0.00031397    -0.00045441
     6
  Step:    18            Position(A)                                  Velocity(au)
C        -0.03431213     0.00292497    -0.08128595    -0.00001338     0.00002610    -0.00113176
N        -0.04288859    -0.05541123     1.38322359     0.00003967    -0.00014088     0.00095726
H         0.96244267     0.00051105    -0.54577929     0.00089653     0.00019797    -0.00079571
H         0.82714801    -0.11534053     1.80292278     0.00048508     0.00050760     0.00103749
H        -0.99619264    -0.01105190     1.87922121    -0.00084038     0.00057760     0.00056145
H        -1.00148125     0.19125872    -0.49747639    -0.00093315     0.00036349    -0.00061961
     6
  Step:    19            Position(A)                                  Velocity(au)
C        -0.03437058     0.00304380    -0.08727003    -0.00000768     0.00001650    -0.00100123
N        -0.04276185    -0.05616980     1.38831026     0.00000661    -0.00012948     0.00085557
H         0.96759262     0.00162682    -0.55050863     0.00092942     0.00019904    -0.00088224
H         0.83069969    -0.11261049     1.80924382     0.00076214     0.00046720     0.00120291
H        -1.00034306    -0.00795229     1.88218044    -0.00063735     0.00052641     0.00049178
H        -1.00709745     0.19343844    -0.50140677    -0.00105457     0.00041010    -0.00077107
     6
  Step:    20            Position(A)                                  Velocity(au)
C        -0.03439839     0.00311031    -0.09253614    -0.00000252     0.00000753    -0.00087843
N        -0.04281437    -0.05686615     1.39283713    -0.00002374    -0.00011902     0.00076000
H         0.97288592     0.00274752    -0.55569248     0.00094921     0.00020017    -0.00095958
H         0.83571163    -0.11009089     1.81643908     0.00100248     0.00043375     0.00134934
H        -1.00335413    -0.00513693     1.88474701    -0.00043757     0.00047756     0.00042348
H        -1.01333076     0.19586674    -0.50614038    -0.00115422     0.00045273    -0.00090713
     6
  Step:    21            Position(A)                                  Velocity(au)
C        -0.03439889     0.00312826    -0.09712877     0.00000203    -0.00000080    -0.00076236
N        -0.04302828    -0.05750557     1.39683992    -0.00005064    -0.00010934     0.00066987
H         0.97824573     0.00387342    -0.56127819     0.00095412     0.00020116    -0.00102681
H         0.84195077    -0.10774242     1.82438773     0.00119775     0.00040668     0.00147160
H        -1.00525394    -0.00259257     1.88693319    -0.00024323     0.00043047     0.00035741
H        -1.02005146     0.19851956    -0.51158766    -0.00122919     0.00049057    -0.00102652
     6
  Step:    22            Position(A)                                  Velocity(au)
C        -0.03437564     0.00310139    -0.10108654     0.00000594    -0.00000846    -0.00065259
N        -0.04338228    -0.05809247     1.40035011    -0.00007352    -0.00010036     0.00058487
H         0.98358694     0.00500370    -0.56720878     0.00094330     0.00020191    -0.00108348
H         0.84914515    -0.10552976     1.83294397     0.00134234     0.00038542     0.00156618
H        -1.00608206    -0.00030891     1.88875563    -0.00005686     0.00038497     0.00029462
H        -1.02711692     0.20136882    -0.51765350    -0.00127795     0.00052307    -0.00112855
     6
  Step:    23            Position(A)                                  Velocity(au)
C        -0.03433226     0.00303345    -0.10444514     0.00000922    -0.00001545    -0.00054888
N        -0.04385255    -0.05863073     1.40339705    -0.00009204    -0.00009202     0.00050486
H         0.98882133     0.00613708    -0.57342543     0.00091669     0.00020239    -0.00112958
H         0.85700013    -0.10342133     1.84194667     0.00143374     0.00036938     0.00163135
H        -1.00589139     0.00172349     1.89023631     0.00011901     0.00034111     0.00023616
H        -1.03437898     0.20438391    -0.52424023    -0.00130026     0.00054998    -0.00121313
     6
  Step:    24            Position(A)                                  Velocity(au)
C        -0.03427229     0.00292817    -0.10723875     0.00001188    -0.00002180    -0.00045112
N        -0.04441397    -0.05912388     1.40600889    -0.00010607    -0.00008428     0.00042973
H         0.99386171     0.00727221    -0.57986976     0.00087486     0.00020265    -0.00116542
H         0.86521529    -0.10138949     1.85122910     0.00147236     0.00035789     0.00166700
H        -1.00474818     0.00351443     1.89140266     0.00028203     0.00029905     0.00018301
H        -1.04169098     0.20753328    -0.53125101    -0.00129695     0.00057126    -0.00128073
     6
  Step:    25            Position(A)                                  Velocity(au)
C        -0.03419909     0.00278919    -0.10950053     0.00001397    -0.00002750    -0.00035916
N        -0.04504116    -0.05957517     1.40821276    -0.00011563    -0.00007710     0.00035932
H         0.99862527     0.00840799    -0.58648552     0.00081886     0.00020275    -0.00119159
H         0.87349986    -0.09941070     1.86062755     0.00146106     0.00035025     0.00167435
H        -1.00273092     0.00507468     1.89228721     0.00043016     0.00025901     0.00013607
H        -1.04891300     0.21078562    -0.53859244    -0.00126967     0.00058709    -0.00133223
     6
  Step:    26            Position(A)                                  Velocity(au)
C        -0.03411579     0.00262002    -0.11126265     0.00001553    -0.00003261    -0.00027281
N        -0.04570949    -0.05998766     1.41003455    -0.00012093    -0.00007045     0.00029338
H         1.00303592     0.00954374    -0.59321999     0.00075004     0.00020279    -0.00120884
H         0.88158451    -0.09746543     1.86998796     0.00140433     0.00034577     0.00165555
H        -0.99992880     0.00641627     1.89292709     0.00056170     0.00022123     0.00009607
H        -1.05591594     0.21411088    -0.54617693    -0.00122062     0.00059779    -0.00136888
     6
  Step:    27            Position(A)                                  Velocity(au)
C        -0.03402516     0.00242392    -0.11255607     0.00001663    -0.00003717    -0.00019182
N        -0.04639564    -0.06036421     1.41149870    -0.00012224    -0.00006430     0.00023163
H         1.00702593     0.01067924    -0.60002488     0.00066992     0.00020284    -0.00121800
H         0.88922879    -0.09553801     1.87917025     0.00130771     0.00034380     0.00161336
H        -0.99643974     0.00755249     1.89336325     0.00067528     0.00018591     0.00006365
H        -1.06258428     0.21748107    -0.55392424    -0.00115233     0.00060378    -0.00139206
     6
  Step:    28            Position(A)                                  Velocity(au)
C        -0.03392965     0.00220391    -0.11341025     0.00001732    -0.00004122    -0.00011588
N        -0.04707809    -0.06070751     1.41262785    -0.00011989    -0.00005861     0.00017372
H         1.01053626     0.01181477    -0.60685661     0.00058002     0.00020300    -0.00121992
H         0.89622555    -0.09361627     1.88805098     0.00117718     0.00034377     0.00155078
H        -0.99236846     0.00849771     1.89363967     0.00076988     0.00015322     0.00003926
H        -1.06881735     0.22087075    -0.56176236    -0.00106744     0.00060553    -0.00140329
     6
  Step:    29            Position(A)                                  Velocity(au)
C        -0.03383132     0.00196270    -0.11385283     0.00001767    -0.00004481    -0.00004464
N        -0.04773729    -0.06102005     1.41344266    -0.00011425    -0.00005335     0.00011926
H         1.01351660     0.01295096    -0.61367633     0.00048183     0.00020333    -0.00121540
H         0.90240196    -0.09169110     1.89652416     0.00101879     0.00034515     0.00147089
H        -0.98782443     0.00926710     1.89380255     0.00084483     0.00012327     0.00002322
H        -1.07452949     0.22425724    -0.56962775    -0.00096846     0.00060352    -0.00140400
     6
  Step:    30            Position(A)                                  Velocity(au)
C        -0.03373198     0.00170275    -0.11390953     0.00001773    -0.00004800     0.00002227
N        -0.04835583    -0.06130415     1.41396164    -0.00010569    -0.00004848     0.00006785
H         1.01592511     0.01408877    -0.62044977     0.00037680     0.00020385    -0.00120522
H         0.90761971    -0.08975604     1.90450154     0.00083849     0.00034752     0.00137676
H        -0.98291987     0.00987633     1.89389936     0.00089979     0.00009610     0.00001569
H        -1.07964863     0.22762055    -0.57746474    -0.00085766     0.00059820    -0.00139550
     6
  Step:    31            Position(A)                                  Velocity(au)
C        -0.03363321     0.00142622    -0.11360394     0.00001751    -0.00005083     0.00008523
N        -0.04891852    -0.06156193     1.41420106    -0.00009459    -0.00004398     0.00001911
H         1.01772803     0.01522932    -0.62714694     0.00026625     0.00020459    -0.00119005
H         0.91177361    -0.08780687     1.91191200     0.00064184     0.00035051     0.00127123
H        -0.97776760     0.01034120     1.89397789     0.00093480     0.00007172     0.00001663
H        -1.08411547     0.23094327    -0.58522505    -0.00073717     0.00059001    -0.00137900
     6
  Step:    32            Position(A)                                  Velocity(au)
C        -0.03353639     0.00113502    -0.11295759     0.00001707    -0.00005335     0.00014460
N        -0.04941230    -0.06179534     1.41417511    -0.00008132    -0.00003980    -0.00002733
H         1.01889891     0.01637381    -0.63374160     0.00015142     0.00020554    -0.00117047
H         0.91478855    -0.08584117     1.91870004     0.00043382     0.00035380     0.00115684
H        -0.97247901     0.01067733     1.89408513     0.00095023     0.00005005     0.00002584
H        -1.08788213     0.23421041    -0.59286698    -0.00060885     0.00057932    -0.00135556
     6
  Step:    33            Position(A)                                  Velocity(au)
C        -0.03344273     0.00083080    -0.11199002     0.00001641    -0.00005559     0.00020072
N        -0.04982610    -0.06200612     1.41389608    -0.00006622    -0.00003591    -0.00007178
H         1.01941808     0.01752340    -0.64021075     0.00003346     0.00020670    -0.00114698
H         0.91661549    -0.08385801     1.92482362     0.00021879     0.00035716     0.00103582
H        -0.96716200     0.01089984     1.89426628     0.00094682     0.00003100     0.00004289
H        -1.09091095     0.23740918    -0.60035459    -0.00047440     0.00056650    -0.00132606
     6
  Step:    34            Position(A)                                  Velocity(au)
C        -0.03335335     0.00051505    -0.11071895     0.00001556    -0.00005758     0.00025387
N        -0.05015088    -0.06219584     1.41337458    -0.00004966    -0.00003227    -0.00011450
H         1.01927205     0.01867912    -0.64653410    -0.00008658     0.00020801    -0.00111998
H         0.91722878    -0.08185767     1.93025272     0.00000078     0.00036038     0.00091019
H        -0.96191896     0.01102304     1.89456352     0.00092568     0.00001439     0.00006716
H        -1.09317322     0.24052866    -0.60765677    -0.00033529     0.00055182    -0.00129125
     6
  Step:    35            Position(A)                                  Velocity(au)
C        -0.03326927     0.00018905    -0.10916054     0.00001453    -0.00005935     0.00030428
N        -0.05037957    -0.06236584     1.41261985    -0.00003198    -0.00002886    -0.00015572
H         1.01845310     0.01984180    -0.65269358    -0.00020766     0.00020944    -0.00108979
H         0.91662416    -0.07984142     1.93496825    -0.00021651     0.00036326     0.00078182
H        -0.95684480     0.01106025     1.89501487     0.00088825     0.00000004     0.00009781
H        -1.09464799     0.24355954    -0.61474630    -0.00019284     0.00053554    -0.00125171
     6
  Step:    36            Position(A)                                  Velocity(au)
C        -0.03319149    -0.00014603    -0.10732971     0.00001332    -0.00006092     0.00035213
N        -0.05050711    -0.06251732     1.41164008    -0.00001357    -0.00002564    -0.00019556
H         1.01695902     0.02101198    -0.65867288    -0.00032878     0.00021092    -0.00105667
H         0.91481718    -0.07781140     1.93896114    -0.00042955     0.00036567     0.00065245
H        -0.95202508     0.01102352     1.89565303     0.00083635    -0.00001229     0.00013377
H        -1.09532119     0.24649384    -0.62159906    -0.00004825     0.00051786    -0.00120790
     6
  Step:    37            Position(A)                                  Velocity(au)
C        -0.03312098    -0.00048916    -0.10524044     0.00001193    -0.00006230     0.00039751
N        -0.05053060    -0.06265124     1.41044273     0.00000519    -0.00002256    -0.00023411
H         1.01479293     0.02218985    -0.66445711    -0.00044893     0.00021237    -0.00102082
H         0.91184215    -0.07577049     1.94223179    -0.00063494     0.00036747     0.00052379
H        -0.94753396     0.01092348     1.89650411     0.00077217    -0.00002286     0.00017373
H        -1.09518513     0.24932469    -0.62819342     0.00009733     0.00049895    -0.00116020
     6
  Step:    38            Position(A)                                  Velocity(au)
C        -0.03305870    -0.00083933    -0.10290621     0.00001037    -0.00006350     0.00044047
N        -0.05044932    -0.06276840     1.40903491     0.00002388    -0.00001961    -0.00027137
H         1.01196335     0.02337521    -0.67003244    -0.00056708     0.00021372    -0.00098239
H         0.90775159    -0.07372223     1.94478982    -0.00082934     0.00036853     0.00039752
H        -0.94343238     0.01076914     1.89758634     0.00069822    -0.00003197     0.00021618
H        -1.09423813     0.25204613    -0.63450964     0.00024278     0.00047896    -0.00110888
     6
  Step:    39            Position(A)                                  Velocity(au)
C        -0.03300564    -0.00119560    -0.10034031     0.00000862    -0.00006452     0.00048097
N        -0.05026492    -0.06286943     1.40742377     0.00004207    -0.00001676    -0.00030730
H         1.00848429     0.02456740    -0.67538596    -0.00068216     0.00021487    -0.00094156
H         0.90261597    -0.07167070     1.94665407    -0.00100941     0.00036875     0.00027537
H        -0.93976650     0.01056782     1.89890906     0.00061725    -0.00003992     0.00025941
H        -1.09248429     0.25465298    -0.64052942     0.00038698     0.00045802    -0.00105420
     6
  Step:    40            Position(A)                                  Velocity(au)
C        -0.03296277    -0.00155705    -0.09755626     0.00000670    -0.00006537     0.00051891
N        -0.04998142    -0.06295479     1.40561679     0.00005930    -0.00001397    -0.00034176
H         1.00437556     0.02576529    -0.68050556    -0.00079302     0.00021574    -0.00089846
H         0.89652369    -0.06962051     1.94785280    -0.00117184     0.00036806     0.00015912
H        -0.93656656     0.01032509     1.90047181     0.00053222    -0.00004702     0.00030159
H        -1.08993372     0.25714078    -0.64623572     0.00052874     0.00043626    -0.00099638
     6
  Step:    41            Position(A)                                  Velocity(au)
C        -0.03293108    -0.00192273    -0.09456815     0.00000461    -0.00006603     0.00055414
N        -0.04960533    -0.06302482     1.40362215     0.00007513    -0.00001123    -0.00037461
H         0.99966305     0.02696724    -0.68538002    -0.00089850     0.00021624    -0.00085328
H         0.88958094    -0.06757661     1.94842401    -0.00131337     0.00036638     0.00005059
H        -0.93384630     0.01004475     1.90226387     0.00044612    -0.00005358     0.00034086
H        -1.08660286     0.25950574    -0.65161274     0.00066682     0.00041382    -0.00093568
     6
  Step:    42            Position(A)                                  Velocity(au)
C        -0.03291152    -0.00229171    -0.09139089     0.00000234    -0.00006651     0.00058648
N        -0.04914555    -0.06307972     1.40144892     0.00008913    -0.00000852    -0.00040563
H         0.99437888     0.02817111    -0.68999913    -0.00099741     0.00021626    -0.00080626
H         0.88191127    -0.06554420     1.94841564    -0.00143091     0.00036370    -0.00004837
H        -0.93160300     0.00972894     1.90426415     0.00036191    -0.00005988     0.00037535
H        -1.08251478     0.26174488    -0.65664603     0.00079992     0.00039086    -0.00087240
     6
  Step:    43            Position(A)                                  Velocity(au)
C        -0.03290500    -0.00266302    -0.08804049    -0.00000007    -0.00006681     0.00061571
N        -0.04861331    -0.06311965     1.39910734     0.00010089    -0.00000584    -0.00043462
H         0.98856159     0.02937430    -0.69435390    -0.00108859     0.00021575    -0.00075768
H         0.87365455    -0.06352858     1.94788559    -0.00152165     0.00036002    -0.00013595
H        -0.92981817     0.00937827     1.90644165     0.00028232    -0.00006617     0.00040338
H        -1.07769954     0.26385608    -0.66132279     0.00092674     0.00036757    -0.00080692
     6
  Step:    44            Position(A)                                  Velocity(au)
C        -0.03291236    -0.00303569    -0.08453411    -0.00000263    -0.00006692     0.00064163
N        -0.04802196    -0.06314472     1.39660881     0.00011007    -0.00000318    -0.00046136
H         0.98225590     0.03057377    -0.69843696    -0.00117094     0.00021463    -0.00070790
H         0.86496558    -0.06153488     1.94690166    -0.00158312     0.00035540    -0.00021037
H        -0.92845894     0.00899204     1.90875637     0.00020980    -0.00007267     0.00042346
H        -1.07219429     0.26583825    -0.66563224     0.00104596     0.00034417    -0.00073970
     6