|===============================================================================
|
|  DFTB+ release 20.1
|
|  Copyright (C) 2006 - 2020  DFTB+ developers group
|
|===============================================================================
|
|  When publishing results obtained with DFTB+, please cite the following
|  reference:
|
|  * DFTB+, a software package for efficient approximate density functional
|    theory based atomistic simulations, J. Chem. Phys. 152, 124101 (2020).
|    [doi: 10.1063/1.5143190]
|
|  You should also cite additional publications crediting the parametrization
|  data you use. Please consult the documentation of the SK-files for the
|  references.
|
|===============================================================================

Reading input file 'dftb_in.hsd'
Parser version: 8

--------------------------------------------------------------------------------
Reading SK-files:
Done.


Processed input in HSD format written to 'dftb_pin.hsd'

Starting initialization...
--------------------------------------------------------------------------------
OpenMP threads:              1
Chosen random seed:          502894530
Mode:                        Static calculation
Self consistent charges:     Yes
SCC-tolerance:                 0.100000E-05
Max. scc iterations:                   1000
Shell resolved Hubbard:      No
Spin polarisation:           No
Nr. of up electrons:            16.000000
Nr. of down electrons:          16.000000
Periodic boundaries:         No
Electronic solver:           Relatively robust
Maximal SCC-cycles:                    1000
Initial charges:             Set automatically (system chrg:   0.100E+01)
Included shells:             C:  s, p
                             H:  s
                             N:  s, p
Spin coupling constants:     C   1(s)-1(s):  -0.455900E-01
                             C   1(s)-2(p):  -0.293000E-01
                             C   2(p)-1(s):  -0.293000E-01
                             C   2(p)-2(p):  -0.275500E-01
                             H   1(s)-1(s):  -0.792500E-01
                             N   1(s)-1(s):  -0.468700E-01
                             N   1(s)-2(p):  -0.317000E-01
                             N   2(p)-1(s):  -0.317000E-01
                             N   2(p)-2(p):  -0.307200E-01
Range separated hybrid:      Yes
  Screening parameter omega:   0.300000E+00
  Range separated algorithm:   MatrixBased
Extra options:
                             Mulliken analysis
                             Force calculation
Force type                   original
                             Eigenvector printing


REKS Calcuation:             Yes
SSR(2,2) Calcuation:         Yes
Energy Functional:           (PPS+OSS)/2
Number of Core Orbitals:                 15
Number of Active Orbitals:                2
Number of Basis:                         32
Number of States:                         2
State-Averaging Weight:          0.500000
                                 0.500000
State of Interest:                        1
Initial Guess:               Diagonalize H0 matrix
Newton-Raphson for FON opt:  Yes
NR max. Iterations:                      50
Level Shifting:              Yes
Shift Value:                     0.300000
W Scale Factor:              C  =    3.200000
                             H  =    3.200000
                             N  =    3.200000
Transition Dipole:           No
Gradient of Microstate:      No
CP-REKS Solver:              Preconditioned Conjugate-Gradient
CG max. Iterations:                     100
CG Tolerance:                  0.100000E-07
Memory for A and Hxc:        Direct Updating Without Saving
Non-Adiabatic Coupling:      Yes

--------------------------------------------------------------------------------

***  Geometry step: 0

  iSCC       reks energy        Diff energy         x_a       SCC error   
    1      -16.3906245791       0.0000000000     0.998179    1.25074086
    2      -16.4100465039      -0.0194219248     0.999551    0.05451777
    3      -16.4137747879      -0.0037282841     0.999800    0.01901261
    4      -16.4150322230      -0.0012574350     0.999877    0.01062185
    5      -16.4155563349      -0.0005241120     0.999911    0.00687245
    6      -16.4158012340      -0.0002448991     0.999928    0.00463360
    7      -16.4159256330      -0.0001243990     0.999938    0.00320616
    8      -16.4159933609      -0.0000677279     0.999944    0.00226032
    9      -16.4160326699      -0.0000393090     0.999948    0.00161721
   10      -16.4160569706      -0.0000243007     0.999950    0.00127710
   11      -16.4160729761      -0.0000160055     0.999952    0.00107885
   12      -16.4160841958      -0.0000112197     0.999953    0.00091536
   13      -16.4160925353      -0.0000083396     0.999954    0.00078083
   14      -16.4160990669      -0.0000065315     0.999954    0.00067010
   15      -16.4161044141      -0.0000053472     0.999955    0.00057880
   16      -16.4161089521      -0.0000045380     0.999955    0.00050328
   17      -16.4161129135      -0.0000039614     0.999955    0.00044059
   18      -16.4161164476      -0.0000035341     0.999955    0.00038831
   19      -16.4161196529      -0.0000032053     0.999956    0.00034450
   20      -16.4161225965      -0.0000029437     0.999956    0.00030759
   21      -16.4161253257      -0.0000027292     0.999956    0.00027633
   22      -16.4161278745      -0.0000025488     0.999956    0.00024970
   23      -16.4161302682      -0.0000023937     0.999956    0.00022688
   24      -16.4161325262      -0.0000022580     0.999956    0.00022168
   25      -16.4161346637      -0.0000021375     0.999956    0.00021882
   26      -16.4161366928      -0.0000020291     0.999956    0.00021547
   27      -16.4161386235      -0.0000019307     0.999956    0.00021182
   28      -16.4161404640      -0.0000018405     0.999956    0.00020796
   29      -16.4161422215      -0.0000017574     0.999956    0.00020400
   30      -16.4161439018      -0.0000016804     0.999956    0.00020000
   31      -16.4161455104      -0.0000016086     0.999956    0.00019601
   32      -16.4161470519      -0.0000015415     0.999956    0.00019206
   33      -16.4161485305      -0.0000014785     0.999956    0.00018817
   34      -16.4161499498      -0.0000014193     0.999955    0.00018437
   35      -16.4161513132      -0.0000013634     0.999955    0.00018066
   36      -16.4161526238      -0.0000013106     0.999955    0.00017705
   37      -16.4161538844      -0.0000012606     0.999955    0.00017355
   38      -16.4161550976      -0.0000012132     0.999955    0.00017014
   39      -16.4161562657      -0.0000011681     0.999955    0.00016684
   40      -16.4161573910      -0.0000011253     0.999955    0.00016365
   41      -16.4161584756      -0.0000010846     0.999955    0.00016055
   42      -16.4161595213      -0.0000010457     0.999955    0.00015754
   43      -16.4161605300      -0.0000010087     0.999955    0.00015463
   44      -16.4161615033      -0.0000009733     0.999955    0.00015181
   45      -16.4161624428      -0.0000009395     0.999955    0.00014907
   46      -16.4161633501      -0.0000009073     0.999955    0.00014642
   47      -16.4161642265      -0.0000008764     0.999955    0.00014384
   48      -16.4161650733      -0.0000008468     0.999955    0.00014134
   49      -16.4161658919      -0.0000008186     0.999955    0.00013890
   50      -16.4161666833      -0.0000007915     0.999955    0.00013654
   51      -16.4161674488      -0.0000007655     0.999955    0.00013424
   52      -16.4161681894      -0.0000007406     0.999955    0.00013201
   53      -16.4161689061      -0.0000007167     0.999955    0.00012983
   54      -16.4161695998      -0.0000006938     0.999955    0.00012771
   55      -16.4161702716      -0.0000006718     0.999955    0.00012565
   56      -16.4161709222      -0.0000006506     0.999955    0.00012364
   57      -16.4161715525      -0.0000006303     0.999955    0.00012168
   58      -16.4161721633      -0.0000006108     0.999955    0.00011978
   59      -16.4161727554      -0.0000005920     0.999955    0.00011791
   60      -16.4161733294      -0.0000005740     0.999955    0.00011610
   61      -16.4161738861      -0.0000005567     0.999955    0.00011432
   62      -16.4161744260      -0.0000005400     0.999955    0.00011259
   63      -16.4161749499      -0.0000005239     0.999955    0.00011090
   64      -16.4161754584      -0.0000005084     0.999955    0.00010925
   65      -16.4161759519      -0.0000004935     0.999955    0.00010764
   66      -16.4161764311      -0.0000004792     0.999955    0.00010606
   67      -16.4161768965      -0.0000004654     0.999955    0.00010452
   68      -16.4161773485      -0.0000004520     0.999955    0.00010302
   69      -16.4161777877      -0.0000004392     0.999955    0.00010155
   70      -16.4161782145      -0.0000004268     0.999955    0.00010011
   71      -16.4161786294      -0.0000004149     0.999955    0.00009870
   72      -16.4161790328      -0.0000004033     0.999955    0.00009732
   73      -16.4161794250      -0.0000003922     0.999955    0.00009597
   74      -16.4161798065      -0.0000003815     0.999955    0.00009466
   75      -16.4161801776      -0.0000003711     0.999955    0.00009336
   76      -16.4161805387      -0.0000003611     0.999955    0.00009210
   77      -16.4161808901      -0.0000003514     0.999955    0.00009086
   78      -16.4161812322      -0.0000003421     0.999955    0.00008965
   79      -16.4161815653      -0.0000003331     0.999955    0.00008846
   80      -16.4161818897      -0.0000003244     0.999955    0.00008730
   81      -16.4161822056      -0.0000003159     0.999955    0.00008616
   82      -16.4161825134      -0.0000003078     0.999955    0.00008505
   83      -16.4161828133      -0.0000002999     0.999955    0.00008395
   84      -16.4161831055      -0.0000002923     0.999955    0.00008288
   85      -16.4161833904      -0.0000002849     0.999955    0.00008183
   86      -16.4161836681      -0.0000002777     0.999955    0.00008080
   87      -16.4161839389      -0.0000002708     0.999955    0.00007979
   88      -16.4161842030      -0.0000002641     0.999955    0.00007880
   89      -16.4161844607      -0.0000002576     0.999955    0.00007783
   90      -16.4161847120      -0.0000002514     0.999955    0.00007687
   91      -16.4161849573      -0.0000002453     0.999955    0.00007594
   92      -16.4161851967      -0.0000002394     0.999955    0.00007502
   93      -16.4161854304      -0.0000002337     0.999955    0.00007412
   94      -16.4161856585      -0.0000002281     0.999955    0.00007324
   95      -16.4161858813      -0.0000002228     0.999955    0.00007237
   96      -16.4161860988      -0.0000002176     0.999955    0.00007152
   97      -16.4161863113      -0.0000002125     0.999955    0.00007069
   98      -16.4161865190      -0.0000002076     0.999955    0.00006987
   99      -16.4161867218      -0.0000002029     0.999955    0.00006907
  100      -16.4161869201      -0.0000001983     0.999955    0.00006828
  101      -16.4161871139      -0.0000001938     0.999955    0.00006750
  102      -16.4161873033      -0.0000001894     0.999955    0.00006674
  103      -16.4161874885      -0.0000001852     0.999955    0.00006600
  104      -16.4161876696      -0.0000001811     0.999955    0.00006526
  105      -16.4161878468      -0.0000001771     0.999955    0.00006454
  106      -16.4161880201      -0.0000001733     0.999955    0.00006383
  107      -16.4161881896      -0.0000001695     0.999955    0.00006314
  108      -16.4161883555      -0.0000001659     0.999955    0.00006245
  109      -16.4161885178      -0.0000001623     0.999955    0.00006178
  110      -16.4161886767      -0.0000001589     0.999955    0.00006112
  111      -16.4161888322      -0.0000001555     0.999955    0.00006047
  112      -16.4161889845      -0.0000001523     0.999955    0.00005983
  113      -16.4161891337      -0.0000001491     0.999955    0.00005921
  114      -16.4161892797      -0.0000001460     0.999955    0.00005859
  115      -16.4161894227      -0.0000001430     0.999955    0.00005798
  116      -16.4161895629      -0.0000001401     0.999955    0.00005739
  117      -16.4161897001      -0.0000001373     0.999955    0.00005680
  118      -16.4161898347      -0.0000001345     0.999955    0.00005623
  119      -16.4161899665      -0.0000001318     0.999955    0.00005566
  120      -16.4161900957      -0.0000001292     0.999955    0.00005510
  121      -16.4161902224      -0.0000001267     0.999955    0.00005456
  122      -16.4161903466      -0.0000001242     0.999955    0.00005402
  123      -16.4161904683      -0.0000001218     0.999955    0.00005349
  124      -16.4161905877      -0.0000001194     0.999955    0.00005297
  125      -16.4161907049      -0.0000001171     0.999955    0.00005245
  126      -16.4161908198      -0.0000001149     0.999955    0.00005195
  127      -16.4161909325      -0.0000001127     0.999955    0.00005145
  128      -16.4161910430      -0.0000001106     0.999955    0.00005096
  129      -16.4161911516      -0.0000001085     0.999955    0.00005048
  130      -16.4161912581      -0.0000001065     0.999955    0.00005001
  131      -16.4161913626      -0.0000001045     0.999955    0.00004954
  132      -16.4161914652      -0.0000001026     0.999955    0.00004908
  133      -16.4161915659      -0.0000001007     0.999955    0.00004863
  134      -16.4161916649      -0.0000000989     0.999955    0.00004819
  135      -16.4161917620      -0.0000000971     0.999955    0.00004775
  136      -16.4161918574      -0.0000000954     0.999955    0.00004732
  137      -16.4161919511      -0.0000000937     0.999955    0.00004689
  138      -16.4161920431      -0.0000000920     0.999955    0.00004647
  139      -16.4161921336      -0.0000000904     0.999955    0.00004606
  140      -16.4161922224      -0.0000000889     0.999955    0.00004566
  141      -16.4161923097      -0.0000000873     0.999955    0.00004526
  142      -16.4161923956      -0.0000000858     0.999955    0.00004486
  143      -16.4161924799      -0.0000000843     0.999955    0.00004448
  144      -16.4161925628      -0.0000000829     0.999955    0.00004409
  145      -16.4161926443      -0.0000000815     0.999955    0.00004372
  146      -16.4161927245      -0.0000000801     0.999955    0.00004335
  147      -16.4161928033      -0.0000000788     0.999955    0.00004298
  148      -16.4161928808      -0.0000000775     0.999955    0.00004262
  149      -16.4161929570      -0.0000000762     0.999955    0.00004227
  150      -16.4161930320      -0.0000000750     0.999955    0.00004192
  151      -16.4161931058      -0.0000000738     0.999955    0.00004157
  152      -16.4161931783      -0.0000000726     0.999955    0.00004124
  153      -16.4161932497      -0.0000000714     0.999955    0.00004090
  154      -16.4161933200      -0.0000000703     0.999955    0.00004057
  155      -16.4161933892      -0.0000000692     0.999955    0.00004025
  156      -16.4161934572      -0.0000000681     0.999955    0.00003993
  157      -16.4161935242      -0.0000000670     0.999955    0.00003961
  158      -16.4161935902      -0.0000000660     0.999955    0.00003930
  159      -16.4161936551      -0.0000000649     0.999955    0.00003899
  160      -16.4161937191      -0.0000000639     0.999955    0.00003869
  161      -16.4161937821      -0.0000000630     0.999955    0.00003839
  162      -16.4161938441      -0.0000000620     0.999955    0.00003810
  163      -16.4161939051      -0.0000000611     0.999955    0.00003780
  164      -16.4161939653      -0.0000000602     0.999955    0.00003752
  165      -16.4161940246      -0.0000000593     0.999955    0.00003724
  166      -16.4161940830      -0.0000000584     0.999955    0.00003696
  167      -16.4161941405      -0.0000000575     0.999955    0.00003668
  168      -16.4161941972      -0.0000000567     0.999955    0.00003641
  169      -16.4161942531      -0.0000000559     0.999955    0.00003614
  170      -16.4161943081      -0.0000000551     0.999955    0.00003588
  171      -16.4161943624      -0.0000000543     0.999955    0.00003562
  172      -16.4161944159      -0.0000000535     0.999955    0.00003536
  173      -16.4161944687      -0.0000000527     0.999955    0.00003511
  174      -16.4161945207      -0.0000000520     0.999955    0.00003486
  175      -16.4161945720      -0.0000000513     0.999955    0.00003461
  176      -16.4161946225      -0.0000000506     0.999955    0.00003437
  177      -16.4161946724      -0.0000000499     0.999955    0.00003413
  178      -16.4161947216      -0.0000000492     0.999955    0.00003389
  179      -16.4161947701      -0.0000000485     0.999955    0.00003366
  180      -16.4161948179      -0.0000000479     0.999955    0.00003343
  181      -16.4161948652      -0.0000000472     0.999955    0.00003320
  182      -16.4161949117      -0.0000000466     0.999955    0.00003298
  183      -16.4161949577      -0.0000000460     0.999956    0.00003275
  184      -16.4161950031      -0.0000000454     0.999956    0.00003253
  185      -16.4161950478      -0.0000000448     0.999956    0.00003232
  186      -16.4161950920      -0.0000000442     0.999956    0.00003210
  187      -16.4161951356      -0.0000000436     0.999956    0.00003189
  188      -16.4161951786      -0.0000000430     0.999956    0.00003169
  189      -16.4161952211      -0.0000000425     0.999956    0.00003148
  190      -16.4161952631      -0.0000000420     0.999956    0.00003128
  191      -16.4161953045      -0.0000000414     0.999956    0.00003108
  192      -16.4161953454      -0.0000000409     0.999956    0.00003088
  193      -16.4161953858      -0.0000000404     0.999956    0.00003068
  194      -16.4161954257      -0.0000000399     0.999956    0.00003049
  195      -16.4161954651      -0.0000000394     0.999956    0.00003030
  196      -16.4161955040      -0.0000000389     0.999956    0.00003011
  197      -16.4161955424      -0.0000000384     0.999956    0.00002993
  198      -16.4161955804      -0.0000000380     0.999956    0.00002974
  199      -16.4161956179      -0.0000000375     0.999956    0.00002956
  200      -16.4161956550      -0.0000000371     0.999956    0.00002938
  201      -16.4161956916      -0.0000000366     0.999956    0.00002920
  202      -16.4161957278      -0.0000000362     0.999956    0.00002903
  203      -16.4161957636      -0.0000000358     0.999956    0.00002886
  204      -16.4161957990      -0.0000000354     0.999956    0.00002869
  205      -16.4161958339      -0.0000000349     0.999956    0.00002852
  206      -16.4161958684      -0.0000000345     0.999956    0.00002835
  207      -16.4161959026      -0.0000000342     0.999956    0.00002819
  208      -16.4161959364      -0.0000000338     0.999956    0.00002803
  209      -16.4161959697      -0.0000000334     0.999956    0.00002787
  210      -16.4161960028      -0.0000000330     0.999956    0.00002771
  211      -16.4161960354      -0.0000000326     0.999956    0.00002755
  212      -16.4161960677      -0.0000000323     0.999956    0.00002740
  213      -16.4161960996      -0.0000000319     0.999956    0.00002724
  214      -16.4161961312      -0.0000000316     0.999956    0.00002709
  215      -16.4161961624      -0.0000000312     0.999956    0.00002694
  216      -16.4161961933      -0.0000000309     0.999956    0.00002680
  217      -16.4161962239      -0.0000000306     0.999956    0.00002665
  218      -16.4161962541      -0.0000000302     0.999956    0.00002651
  219      -16.4161962840      -0.0000000299     0.999956    0.00002636
  220      -16.4161963136      -0.0000000296     0.999956    0.00002622
  221      -16.4161963429      -0.0000000293     0.999956    0.00002608
  222      -16.4161963719      -0.0000000290     0.999956    0.00002595
  223      -16.4161964006      -0.0000000287     0.999956    0.00002581
  224      -16.4161964290      -0.0000000284     0.999956    0.00002568
  225      -16.4161964571      -0.0000000281     0.999956    0.00002554
  226      -16.4161964850      -0.0000000278     0.999956    0.00002541
  227      -16.4161965125      -0.0000000275     0.999956    0.00002528
  228      -16.4161965398      -0.0000000273     0.999956    0.00002515
  229      -16.4161965668      -0.0000000270     0.999956    0.00002503
  230      -16.4161965935      -0.0000000267     0.999956    0.00002490
  231      -16.4161966200      -0.0000000265     0.999956    0.00002478
  232      -16.4161966462      -0.0000000262     0.999956    0.00002466
  233      -16.4161966722      -0.0000000260     0.999956    0.00002454
  234      -16.4161966979      -0.0000000257     0.999956    0.00002442
  235      -16.4161967234      -0.0000000255     0.999956    0.00002430
  236      -16.4161967486      -0.0000000252     0.999956    0.00002418
  237      -16.4161967736      -0.0000000250     0.999956    0.00002407
  238      -16.4161967983      -0.0000000248     0.999956    0.00002395
  239      -16.4161968229      -0.0000000245     0.999956    0.00002384
  240      -16.4161968472      -0.0000000243     0.999956    0.00002373
  241      -16.4161968713      -0.0000000241     0.999956    0.00002362
  242      -16.4161968951      -0.0000000239     0.999956    0.00002351
  243      -16.4161969188      -0.0000000236     0.999956    0.00002340
  244      -16.4161969422      -0.0000000234     0.999956    0.00002329
  245      -16.4161969654      -0.0000000232     0.999956    0.00002319
  246      -16.4161969884      -0.0000000230     0.999956    0.00002308
  247      -16.4161970113      -0.0000000228     0.999956    0.00002298
  248      -16.4161970339      -0.0000000226     0.999956    0.00002288
  249      -16.4161970563      -0.0000000224     0.999956    0.00002278
  250      -16.4161970785      -0.0000000222     0.999956    0.00002268
  251      -16.4161971006      -0.0000000220     0.999956    0.00002258
  252      -16.4161971224      -0.0000000219     0.999956    0.00002248
  253      -16.4161971441      -0.0000000217     0.999956    0.00002238
  254      -16.4161971656      -0.0000000215     0.999956    0.00002229
  255      -16.4161971869      -0.0000000213     0.999956    0.00002220
  256      -16.4161972080      -0.0000000211     0.999956    0.00002210
  257      -16.4161972290      -0.0000000210     0.999956    0.00002201
  258      -16.4161972498      -0.0000000208     0.999956    0.00002192
  259      -16.4161972704      -0.0000000206     0.999956    0.00002183
  260      -16.4161972909      -0.0000000205     0.999956    0.00002174
  261      -16.4161973112      -0.0000000203     0.999956    0.00002165
  262      -16.4161973313      -0.0000000201     0.999956    0.00002156
  263      -16.4161973513      -0.0000000200     0.999956    0.00002148
  264      -16.4161973711      -0.0000000198     0.999956    0.00002139
  265      -16.4161973908      -0.0000000197     0.999956    0.00002131
  266      -16.4161974103      -0.0000000195     0.999956    0.00002122
  267      -16.4161974296      -0.0000000194     0.999956    0.00002114
  268      -16.4161974489      -0.0000000192     0.999956    0.00002106
  269      -16.4161974679      -0.0000000191     0.999956    0.00002098
  270      -16.4161974869      -0.0000000189     0.999956    0.00002090
  271      -16.4161975057      -0.0000000188     0.999956    0.00002082
  272      -16.4161975243      -0.0000000187     0.999956    0.00002074
  273      -16.4161975429      -0.0000000185     0.999956    0.00002067
  274      -16.4161975612      -0.0000000184     0.999956    0.00002059
  275      -16.4161975795      -0.0000000183     0.999956    0.00002052
  276      -16.4161975976      -0.0000000181     0.999956    0.00002044
  277      -16.4161976156      -0.0000000180     0.999956    0.00002037
  278      -16.4161976335      -0.0000000179     0.999956    0.00002029
  279      -16.4161976512      -0.0000000177     0.999956    0.00002022
  280      -16.4161976689      -0.0000000176     0.999956    0.00002015
  281      -16.4161976864      -0.0000000175     0.999956    0.00002008
  282      -16.4161977038      -0.0000000174     0.999956    0.00002001
  283      -16.4161977210      -0.0000000173     0.999956    0.00001994
  284      -16.4161977382      -0.0000000172     0.999956    0.00001987
  285      -16.4161977552      -0.0000000170     0.999956    0.00001981
  286      -16.4161977721      -0.0000000169     0.999956    0.00001974
  287      -16.4161977889      -0.0000000168     0.999956    0.00001967
  288      -16.4161978056      -0.0000000167     0.999956    0.00001961
  289      -16.4161978222      -0.0000000166     0.999956    0.00001954
  290      -16.4161978387      -0.0000000165     0.999956    0.00001948
  291      -16.4161978551      -0.0000000164     0.999956    0.00001942
  292      -16.4161978714      -0.0000000163     0.999956    0.00001935
  293      -16.4161978876      -0.0000000162     0.999956    0.00001929
  294      -16.4161979037      -0.0000000161     0.999956    0.00001923
  295      -16.4161979197      -0.0000000160     0.999956    0.00001917
  296      -16.4161979356      -0.0000000159     0.999956    0.00001911
  297      -16.4161979513      -0.0000000158     0.999956    0.00001905
  298      -16.4161979670      -0.0000000157     0.999956    0.00001899
  299      -16.4161979826      -0.0000000156     0.999956    0.00001894
  300      -16.4161979982      -0.0000000155     0.999956    0.00001888
  301      -16.4161980136      -0.0000000154     0.999956    0.00001882
  302      -16.4161980289      -0.0000000153     0.999956    0.00001877
  303      -16.4161980442      -0.0000000152     0.999956    0.00001871
  304      -16.4161980593      -0.0000000152     0.999956    0.00001866
  305      -16.4161980744      -0.0000000151     0.999956    0.00001861
  306      -16.4161980894      -0.0000000150     0.999956    0.00001855
  307      -16.4161981043      -0.0000000149     0.999956    0.00001850
  308      -16.4161981191      -0.0000000148     0.999956    0.00001845
  309      -16.4161981339      -0.0000000147     0.999956    0.00001840
  310      -16.4161981485      -0.0000000147     0.999956    0.00001835
  311      -16.4161981631      -0.0000000146     0.999956    0.00001830
  312      -16.4161981776      -0.0000000145     0.999956    0.00001825
  313      -16.4161981921      -0.0000000144     0.999956    0.00001820
  314      -16.4161982064      -0.0000000144     0.999956    0.00001815
  315      -16.4161982207      -0.0000000143     0.999956    0.00001810
  316      -16.4161982349      -0.0000000142     0.999956    0.00001805
  317      -16.4161982491      -0.0000000141     0.999956    0.00001801
  318      -16.4161982632      -0.0000000141     0.999956    0.00001796
  319      -16.4161982772      -0.0000000140     0.999956    0.00001792
  320      -16.4161982911      -0.0000000139     0.999956    0.00001787
  321      -16.4161983050      -0.0000000139     0.999956    0.00001783
  322      -16.4161983188      -0.0000000138     0.999956    0.00001778
  323      -16.4161983325      -0.0000000137     0.999956    0.00001774
  324      -16.4161983462      -0.0000000137     0.999956    0.00001770
  325      -16.4161983598      -0.0000000136     0.999956    0.00001765
  326      -16.4161983733      -0.0000000135     0.999956    0.00001761
  327      -16.4161983868      -0.0000000135     0.999956    0.00001757
  328      -16.4161984002      -0.0000000134     0.999956    0.00001753
  329      -16.4161984136      -0.0000000134     0.999956    0.00001749
  330      -16.4161984269      -0.0000000133     0.999956    0.00001745
  331      -16.4161984402      -0.0000000132     0.999956    0.00001741
  332      -16.4161984533      -0.0000000132     0.999956    0.00001737
  333      -16.4161984665      -0.0000000131     0.999956    0.00001733
  334      -16.4161984796      -0.0000000131     0.999956    0.00001730
  335      -16.4161984926      -0.0000000130     0.999956    0.00001726
  336      -16.4161985056      -0.0000000130     0.999956    0.00001722
  337      -16.4161985185      -0.0000000129     0.999956    0.00001719
  338      -16.4161985313      -0.0000000129     0.999956    0.00001715
  339      -16.4161985441      -0.0000000128     0.999956    0.00001711
  340      -16.4161985569      -0.0000000128     0.999956    0.00001708
  341      -16.4161985696      -0.0000000127     0.999956    0.00001705
  342      -16.4161985823      -0.0000000127     0.999956    0.00001701
  343      -16.4161985949      -0.0000000126     0.999956    0.00001698
  344      -16.4161986075      -0.0000000126     0.999956    0.00001694
  345      -16.4161986200      -0.0000000125     0.999956    0.00001691
  346      -16.4161986325      -0.0000000125     0.999956    0.00001688
  347      -16.4161986449      -0.0000000124     0.999956    0.00001685
  348      -16.4161986573      -0.0000000124     0.999956    0.00001682
  349      -16.4161986696      -0.0000000123     0.999956    0.00001679
  350      -16.4161986819      -0.0000000123     0.999956    0.00001676
  351      -16.4161986942      -0.0000000123     0.999956    0.00001673
  352      -16.4161987064      -0.0000000122     0.999956    0.00001670
  353      -16.4161987186      -0.0000000122     0.999956    0.00001667
  354      -16.4161987307      -0.0000000121     0.999956    0.00001664
  355      -16.4161987428      -0.0000000121     0.999956    0.00001661
  356      -16.4161987549      -0.0000000121     0.999956    0.00001658
  357      -16.4161987669      -0.0000000120     0.999956    0.00001655
  358      -16.4161987789      -0.0000000120     0.999956    0.00001653
  359      -16.4161987908      -0.0000000119     0.999956    0.00001650
  360      -16.4161988027      -0.0000000119     0.999956    0.00001647
  361      -16.4161988146      -0.0000000119     0.999956    0.00001645
  362      -16.4161988264      -0.0000000118     0.999956    0.00001642
  363      -16.4161988382      -0.0000000118     0.999956    0.00001640
  364      -16.4161988500      -0.0000000118     0.999956    0.00001637
  365      -16.4161988617      -0.0000000117     0.999956    0.00001635
  366      -16.4161988734      -0.0000000117     0.999956    0.00001633
  367      -16.4161988851      -0.0000000117     0.999956    0.00001630
  368      -16.4161988967      -0.0000000116     0.999956    0.00001628
  369      -16.4161989083      -0.0000000116     0.999956    0.00001626
  370      -16.4161989199      -0.0000000116     0.999956    0.00001624
  371      -16.4161989315      -0.0000000115     0.999956    0.00001621
  372      -16.4161989430      -0.0000000115     0.999956    0.00001619
  373      -16.4161989545      -0.0000000115     0.999956    0.00001617
  374      -16.4161989659      -0.0000000115     0.999956    0.00001615
  375      -16.4161989774      -0.0000000114     0.999956    0.00001613
  376      -16.4161989888      -0.0000000114     0.999956    0.00001611
  377      -16.4161990002      -0.0000000114     0.999956    0.00001609
  378      -16.4161990115      -0.0000000114     0.999956    0.00001607
  379      -16.4161990229      -0.0000000113     0.999956    0.00001605
  380      -16.4161990342      -0.0000000113     0.999956    0.00001603
  381      -16.4161990455      -0.0000000113     0.999956    0.00001602
  382      -16.4161990567      -0.0000000113     0.999956    0.00001600
  383      -16.4161990680      -0.0000000112     0.999956    0.00001598
  384      -16.4161990792      -0.0000000112     0.999956    0.00001596
  385      -16.4161990904      -0.0000000112     0.999956    0.00001595
  386      -16.4161991015      -0.0000000112     0.999956    0.00001593
  387      -16.4161991127      -0.0000000112     0.999956    0.00001592
  388      -16.4161991238      -0.0000000111     0.999956    0.00001590
  389      -16.4161991349      -0.0000000111     0.999956    0.00001589
  390      -16.4161991460      -0.0000000111     0.999956    0.00001587
  391      -16.4161991571      -0.0000000111     0.999956    0.00001586
  392      -16.4161991682      -0.0000000111     0.999957    0.00001584
  393      -16.4161991792      -0.0000000110     0.999957    0.00001583
  394      -16.4161991902      -0.0000000110     0.999957    0.00001582
  395      -16.4161992012      -0.0000000110     0.999957    0.00001580
  396      -16.4161992122      -0.0000000110     0.999957    0.00001579
  397      -16.4161992232      -0.0000000110     0.999957    0.00001578
  398      -16.4161992342      -0.0000000110     0.999957    0.00001577
  399      -16.4161992451      -0.0000000109     0.999957    0.00001575
  400      -16.4161992560      -0.0000000109     0.999957    0.00001574
  401      -16.4161992670      -0.0000000109     0.999957    0.00001573
  402      -16.4161992779      -0.0000000109     0.999957    0.00001572
  403      -16.4161992888      -0.0000000109     0.999957    0.00001571
  404      -16.4161992996      -0.0000000109     0.999957    0.00001570
  405      -16.4161993105      -0.0000000109     0.999957    0.00001569
  406      -16.4161993214      -0.0000000109     0.999957    0.00001568
  407      -16.4161993322      -0.0000000108     0.999957    0.00001567
  408      -16.4161993430      -0.0000000108     0.999957    0.00001566
  409      -16.4161993539      -0.0000000108     0.999957    0.00001566
  410      -16.4161993647      -0.0000000108     0.999957    0.00001565
  411      -16.4161993755      -0.0000000108     0.999957    0.00001564
  412      -16.4161993863      -0.0000000108     0.999957    0.00001563
  413      -16.4161993971      -0.0000000108     0.999957    0.00001563
  414      -16.4161994079      -0.0000000108     0.999957    0.00001562
  415      -16.4161994187      -0.0000000108     0.999957    0.00001561
  416      -16.4161994294      -0.0000000108     0.999957    0.00001561
  417      -16.4161994402      -0.0000000108     0.999957    0.00001560
  418      -16.4161994509      -0.0000000108     0.999957    0.00001560
  419      -16.4161994617      -0.0000000108     0.999957    0.00001559
  420      -16.4161994725      -0.0000000107     0.999957    0.00001559
  421      -16.4161994832      -0.0000000107     0.999957    0.00001558
  422      -16.4161994939      -0.0000000107     0.999957    0.00001558
  423      -16.4161995047      -0.0000000107     0.999957    0.00001558
  424      -16.4161995154      -0.0000000107     0.999957    0.00001557
  425      -16.4161995261      -0.0000000107     0.999957    0.00001557
  426      -16.4161995369      -0.0000000107     0.999957    0.00001557
  427      -16.4161995476      -0.0000000107     0.999957    0.00001557
  428      -16.4161995583      -0.0000000107     0.999957    0.00001557
  429      -16.4161995691      -0.0000000107     0.999957    0.00001556
  430      -16.4161995798      -0.0000000107     0.999957    0.00001556
  431      -16.4161995905      -0.0000000107     0.999957    0.00001556
  432      -16.4161996013      -0.0000000107     0.999957    0.00001556
  433      -16.4161996120      -0.0000000107     0.999957    0.00001556
  434      -16.4161996227      -0.0000000107     0.999957    0.00001556
  435      -16.4161996335      -0.0000000107     0.999957    0.00001556
  436      -16.4161996442      -0.0000000107     0.999957    0.00001556
  437      -16.4161996549      -0.0000000107     0.999957    0.00001556
  438      -16.4161996657      -0.0000000107     0.999957    0.00001557
  439      -16.4161996764      -0.0000000107     0.999957    0.00001557
  440      -16.4161996872      -0.0000000108     0.999957    0.00001557
  441      -16.4161996979      -0.0000000108     0.999957    0.00001557
  442      -16.4161997087      -0.0000000108     0.999957    0.00001557
  443      -16.4161997195      -0.0000000108     0.999957    0.00001558
  444      -16.4161997302      -0.0000000108     0.999957    0.00001558
  445      -16.4161997410      -0.0000000108     0.999957    0.00001558
  446      -16.4161997518      -0.0000000108     0.999957    0.00001559
  447      -16.4161997626      -0.0000000108     0.999957    0.00001559
  448      -16.4161997734      -0.0000000108     0.999957    0.00001560
  449      -16.4161997842      -0.0000000108     0.999957    0.00001560
  450      -16.4161997951      -0.0000000108     0.999957    0.00001561
  451      -16.4161998059      -0.0000000108     0.999957    0.00001561
  452      -16.4161998167      -0.0000000108     0.999957    0.00001562
  453      -16.4161998276      -0.0000000109     0.999957    0.00001563
  454      -16.4161998385      -0.0000000109     0.999957    0.00001563
  455      -16.4161998493      -0.0000000109     0.999957    0.00001564
  456      -16.4161998602      -0.0000000109     0.999957    0.00001565
  457      -16.4161998711      -0.0000000109     0.999957    0.00001566
  458      -16.4161998820      -0.0000000109     0.999957    0.00001566
  459      -16.4161998930      -0.0000000109     0.999957    0.00001567
  460      -16.4161999039      -0.0000000109     0.999957    0.00001568
  461      -16.4161999149      -0.0000000110     0.999957    0.00001569
  462      -16.4161999258      -0.0000000110     0.999957    0.00001570
  463      -16.4161999368      -0.0000000110     0.999957    0.00001571
  464      -16.4161999478      -0.0000000110     0.999957    0.00001572
  465      -16.4161999589      -0.0000000110     0.999957    0.00001573
  466      -16.4161999699      -0.0000000110     0.999957    0.00001574
  467      -16.4161999809      -0.0000000111     0.999957    0.00001575
  468      -16.4161999920      -0.0000000111     0.999957    0.00001576
  469      -16.4162000031      -0.0000000111     0.999957    0.00001578
  470      -16.4162000142      -0.0000000111     0.999957    0.00001579
  471      -16.4162000254      -0.0000000111     0.999957    0.00001580
  472      -16.4162000365      -0.0000000112     0.999957    0.00001581
  473      -16.4162000477      -0.0000000112     0.999957    0.00001583
  474      -16.4162000589      -0.0000000112     0.999957    0.00001584
  475      -16.4162000701      -0.0000000112     0.999957    0.00001586
  476      -16.4162000813      -0.0000000112     0.999957    0.00001587
  477      -16.4162000926      -0.0000000113     0.999957    0.00001588
  478      -16.4162001039      -0.0000000113     0.999957    0.00001590
  479      -16.4162001152      -0.0000000113     0.999957    0.00001592
  480      -16.4162001265      -0.0000000113     0.999957    0.00001593
  481      -16.4162001378      -0.0000000114     0.999957    0.00001595
  482      -16.4162001492      -0.0000000114     0.999957    0.00001596
  483      -16.4162001606      -0.0000000114     0.999957    0.00001598
  484      -16.4162001721      -0.0000000114     0.999957    0.00001600
  485      -16.4162001835      -0.0000000115     0.999957    0.00001602
  486      -16.4162001950      -0.0000000115     0.999957    0.00001603
  487      -16.4162002065      -0.0000000115     0.999957    0.00001605
  488      -16.4162002181      -0.0000000115     0.999957    0.00001607
  489      -16.4162002296      -0.0000000116     0.999957    0.00001609
  490      -16.4162002413      -0.0000000116     0.999957    0.00001611
  491      -16.4162002529      -0.0000000116     0.999957    0.00001613
  492      -16.4162002646      -0.0000000117     0.999957    0.00001615
  493      -16.4162002763      -0.0000000117     0.999957    0.00001617
  494      -16.4162002880      -0.0000000117     0.999957    0.00001619
  495      -16.4162002997      -0.0000000118     0.999957    0.00001621
  496      -16.4162003115      -0.0000000118     0.999957    0.00001624
  497      -16.4162003234      -0.0000000118     0.999957    0.00001626
  498      -16.4162003352      -0.0000000119     0.999957    0.00001628
  499      -16.4162003471      -0.0000000119     0.999957    0.00001630
  500      -16.4162003591      -0.0000000119     0.999957    0.00001633
  501      -16.4162003711      -0.0000000120     0.999957    0.00001635
  502      -16.4162003831      -0.0000000120     0.999957    0.00001637
  503      -16.4162003951      -0.0000000121     0.999957    0.00001640
  504      -16.4162004072      -0.0000000121     0.999957    0.00001642
  505      -16.4162004193      -0.0000000121     0.999957    0.00001645
  506      -16.4162004315      -0.0000000122     0.999957    0.00001648
  507      -16.4162004437      -0.0000000122     0.999957    0.00001650
  508      -16.4162004560      -0.0000000123     0.999957    0.00001653
  509      -16.4162004683      -0.0000000123     0.999957    0.00001656
  510      -16.4162004806      -0.0000000123     0.999957    0.00001658
  511      -16.4162004930      -0.0000000124     0.999957    0.00001661
  512      -16.4162005054      -0.0000000124     0.999957    0.00001664
  513      -16.4162005179      -0.0000000125     0.999957    0.00001667
  514      -16.4162005304      -0.0000000125     0.999957    0.00001670
  515      -16.4162005430      -0.0000000126     0.999957    0.00001673
  516      -16.4162005556      -0.0000000126     0.999957    0.00001676
  517      -16.4162005682      -0.0000000127     0.999957    0.00001679
  518      -16.4162005810      -0.0000000127     0.999957    0.00001682
  519      -16.4162005937      -0.0000000128     0.999957    0.00001685
  520      -16.4162006065      -0.0000000128     0.999957    0.00001688
  521      -16.4162006194      -0.0000000129     0.999957    0.00001691
  522      -16.4162006323      -0.0000000129     0.999957    0.00001695
  523      -16.4162006453      -0.0000000130     0.999957    0.00001698
  524      -16.4162006583      -0.0000000130     0.999957    0.00001701
  525      -16.4162006714      -0.0000000131     0.999957    0.00001705
  526      -16.4162006845      -0.0000000131     0.999957    0.00001708
  527      -16.4162006977      -0.0000000132     0.999957    0.00001712
  528      -16.4162007109      -0.0000000132     0.999957    0.00001715
  529      -16.4162007242      -0.0000000133     0.999957    0.00001719
  530      -16.4162007376      -0.0000000134     0.999957    0.00001723
  531      -16.4162007510      -0.0000000134     0.999957    0.00001726
  532      -16.4162007645      -0.0000000135     0.999957    0.00001730
  533      -16.4162007780      -0.0000000135     0.999957    0.00001734
  534      -16.4162007916      -0.0000000136     0.999957    0.00001738
  535      -16.4162008053      -0.0000000137     0.999957    0.00001741
  536      -16.4162008191      -0.0000000137     0.999957    0.00001745
  537      -16.4162008329      -0.0000000138     0.999957    0.00001749
  538      -16.4162008467      -0.0000000139     0.999957    0.00001753
  539      -16.4162008607      -0.0000000139     0.999957    0.00001758
  540      -16.4162008747      -0.0000000140     0.999957    0.00001762
  541      -16.4162008887      -0.0000000141     0.999957    0.00001766
  542      -16.4162009029      -0.0000000141     0.999957    0.00001770
  543      -16.4162009171      -0.0000000142     0.999957    0.00001774
  544      -16.4162009314      -0.0000000143     0.999957    0.00001779
  545      -16.4162009458      -0.0000000144     0.999957    0.00001783
  546      -16.4162009602      -0.0000000144     0.999957    0.00001788
  547      -16.4162009747      -0.0000000145     0.999957    0.00001792
  548      -16.4162009893      -0.0000000146     0.999957    0.00001797
  549      -16.4162010040      -0.0000000147     0.999957    0.00001801
  550      -16.4162010187      -0.0000000147     0.999957    0.00001806
  551      -16.4162010335      -0.0000000148     0.999957    0.00001811
  552      -16.4162010485      -0.0000000149     0.999957    0.00001816
  553      -16.4162010635      -0.0000000150     0.999957    0.00001821
  554      -16.4162010785      -0.0000000151     0.999957    0.00001825
  555      -16.4162010937      -0.0000000152     0.999957    0.00001830
  556      -16.4162011089      -0.0000000153     0.999957    0.00001835
  557      -16.4162011243      -0.0000000153     0.999957    0.00001841
  558      -16.4162011397      -0.0000000154     0.999957    0.00001846
  559      -16.4162011552      -0.0000000155     0.999957    0.00001851
  560      -16.4162011708      -0.0000000156     0.999957    0.00001856
  561      -16.4162011866      -0.0000000157     0.999957    0.00001862
  562      -16.4162012024      -0.0000000158     0.999957    0.00001867
  563      -16.4162012183      -0.0000000159     0.999957    0.00001872
  564      -16.4162012342      -0.0000000160     0.999957    0.00001878
  565      -16.4162012503      -0.0000000161     0.999957    0.00001884
  566      -16.4162012665      -0.0000000162     0.999958    0.00001889
  567      -16.4162012828      -0.0000000163     0.999958    0.00001895
  568      -16.4162012992      -0.0000000164     0.999958    0.00001901
  569      -16.4162013157      -0.0000000165     0.999958    0.00001907
  570      -16.4162013323      -0.0000000166     0.999958    0.00001913
  571      -16.4162013491      -0.0000000167     0.999958    0.00001919
  572      -16.4162013659      -0.0000000168     0.999958    0.00001925
  573      -16.4162013828      -0.0000000169     0.999958    0.00001931
  574      -16.4162013999      -0.0000000171     0.999958    0.00001937
  575      -16.4162014171      -0.0000000172     0.999958    0.00001943
  576      -16.4162014343      -0.0000000173     0.999958    0.00001950
  577      -16.4162014517      -0.0000000174     0.999958    0.00001956
  578      -16.4162014693      -0.0000000175     0.999958    0.00001962
  579      -16.4162014869      -0.0000000176     0.999958    0.00001969
  580      -16.4162015047      -0.0000000178     0.999958    0.00001976
  581      -16.4162015226      -0.0000000179     0.999958    0.00001982
  582      -16.4162015406      -0.0000000180     0.999958    0.00001989
  583      -16.4162015587      -0.0000000181     0.999958    0.00001996
  584      -16.4162015770      -0.0000000183     0.999958    0.00002003
  585      -16.4162015954      -0.0000000184     0.999958    0.00002010
  586      -16.4162016140      -0.0000000185     0.999958    0.00002017
  587      -16.4162016327      -0.0000000187     0.999958    0.00002024
  588      -16.4162016515      -0.0000000188     0.999958    0.00002032
  589      -16.4162016705      -0.0000000190     0.999958    0.00002039
  590      -16.4162016896      -0.0000000191     0.999958    0.00002046
  591      -16.4162017088      -0.0000000193     0.999958    0.00002054
  592      -16.4162017282      -0.0000000194     0.999958    0.00002062
  593      -16.4162017478      -0.0000000196     0.999958    0.00002069
  594      -16.4162017675      -0.0000000197     0.999958    0.00002077
  595      -16.4162017873      -0.0000000199     0.999958    0.00002085
  596      -16.4162018074      -0.0000000200     0.999958    0.00002093
  597      -16.4162018275      -0.0000000202     0.999958    0.00002101
  598      -16.4162018479      -0.0000000203     0.999958    0.00002109
  599      -16.4162018684      -0.0000000205     0.999958    0.00002117
  600      -16.4162018890      -0.0000000207     0.999958    0.00002126
  601      -16.4162019099      -0.0000000208     0.999958    0.00002134
  602      -16.4162019309      -0.0000000210     0.999958    0.00002142
  603      -16.4162019521      -0.0000000212     0.999958    0.00002151
  604      -16.4162019734      -0.0000000214     0.999958    0.00002160
  605      -16.4162019950      -0.0000000215     0.999958    0.00002169
  606      -16.4162020167      -0.0000000217     0.999958    0.00002177
  607      -16.4162020386      -0.0000000219     0.999958    0.00002186
  608      -16.4162020607      -0.0000000221     0.999958    0.00002196
  609      -16.4162020830      -0.0000000223     0.999958    0.00002205
  610      -16.4162021055      -0.0000000225     0.999958    0.00002214
  611      -16.4162021282      -0.0000000227     0.999958    0.00002224
  612      -16.4162021511      -0.0000000229     0.999958    0.00002233
  613      -16.4162021742      -0.0000000231     0.999958    0.00002243
  614      -16.4162021975      -0.0000000233     0.999958    0.00002252
  615      -16.4162022210      -0.0000000235     0.999958    0.00002262
  616      -16.4162022447      -0.0000000237     0.999958    0.00002272
  617      -16.4162022687      -0.0000000239     0.999958    0.00002282
  618      -16.4162022929      -0.0000000242     0.999958    0.00002293
  619      -16.4162023173      -0.0000000244     0.999958    0.00002303
  620      -16.4162023419      -0.0000000246     0.999958    0.00002313
  621      -16.4162023667      -0.0000000249     0.999958    0.00002324
  622      -16.4162023918      -0.0000000251     0.999958    0.00002335
  623      -16.4162024172      -0.0000000253     0.999958    0.00002345
  624      -16.4162024427      -0.0000000256     0.999958    0.00002356
  625      -16.4162024686      -0.0000000258     0.999958    0.00002367
  626      -16.4162024946      -0.0000000261     0.999958    0.00002378
  627      -16.4162025210      -0.0000000263     0.999958    0.00002390
  628      -16.4162025476      -0.0000000266     0.999958    0.00002401
  629      -16.4162025744      -0.0000000269     0.999958    0.00002413
  630      -16.4162026016      -0.0000000271     0.999958    0.00002424
  631      -16.4162026290      -0.0000000274     0.999958    0.00002436
  632      -16.4162026567      -0.0000000277     0.999958    0.00002448
  633      -16.4162026846      -0.0000000280     0.999958    0.00002460
  634      -16.4162027129      -0.0000000283     0.999958    0.00002473
  635      -16.4162027414      -0.0000000286     0.999958    0.00002485
  636      -16.4162027703      -0.0000000288     0.999958    0.00002498
  637      -16.4162027994      -0.0000000292     0.999958    0.00002510
  638      -16.4162028289      -0.0000000295     0.999958    0.00002523
  639      -16.4162028587      -0.0000000298     0.999958    0.00002536
  640      -16.4162028888      -0.0000000301     0.999958    0.00002549
  641      -16.4162029192      -0.0000000304     0.999958    0.00002563
  642      -16.4162029500      -0.0000000308     0.999958    0.00002576
  643      -16.4162029810      -0.0000000311     0.999958    0.00002590
  644      -16.4162030125      -0.0000000314     0.999958    0.00002603
  645      -16.4162030443      -0.0000000318     0.999958    0.00002617
  646      -16.4162030764      -0.0000000321     0.999958    0.00002631
  647      -16.4162031089      -0.0000000325     0.999958    0.00002646
  648      -16.4162031418      -0.0000000329     0.999958    0.00002660
  649      -16.4162031750      -0.0000000332     0.999958    0.00002675
  650      -16.4162032086      -0.0000000336     0.999958    0.00002690
  651      -16.4162032427      -0.0000000340     0.999958    0.00002705
  652      -16.4162032771      -0.0000000344     0.999958    0.00002720
  653      -16.4162033119      -0.0000000348     0.999958    0.00002735
  654      -16.4162033471      -0.0000000352     0.999958    0.00002751
  655      -16.4162033827      -0.0000000356     0.999958    0.00002766
  656      -16.4162034188      -0.0000000361     0.999958    0.00002782
  657      -16.4162034553      -0.0000000365     0.999958    0.00002798
  658      -16.4162034922      -0.0000000369     0.999958    0.00002815
  659      -16.4162035296      -0.0000000374     0.999958    0.00002831
  660      -16.4162035675      -0.0000000378     0.999958    0.00002848
  661      -16.4162036058      -0.0000000383     0.999958    0.00002865
  662      -16.4162036446      -0.0000000388     0.999958    0.00002882
  663      -16.4162036839      -0.0000000393     0.999958    0.00002899
  664      -16.4162037236      -0.0000000398     0.999959    0.00002917
  665      -16.4162037639      -0.0000000403     0.999959    0.00002935
  666      -16.4162038047      -0.0000000408     0.999959    0.00002953
  667      -16.4162038460      -0.0000000413     0.999959    0.00002971
  668      -16.4162038879      -0.0000000418     0.999959    0.00002989
  669      -16.4162039302      -0.0000000424     0.999959    0.00003008
  670      -16.4162039732      -0.0000000429     0.999959    0.00003027
  671      -16.4162040167      -0.0000000435     0.999959    0.00003046
  672      -16.4162040608      -0.0000000441     0.999959    0.00003066
  673      -16.4162041055      -0.0000000447     0.999959    0.00003085
  674      -16.4162041507      -0.0000000453     0.999959    0.00003105
  675      -16.4162041966      -0.0000000459     0.999959    0.00003125
  676      -16.4162042431      -0.0000000465     0.999959    0.00003146
  677      -16.4162042903      -0.0000000471     0.999959    0.00003167
  678      -16.4162043380      -0.0000000478     0.999959    0.00003188
  679      -16.4162043865      -0.0000000485     0.999959    0.00003209
  680      -16.4162044356      -0.0000000491     0.999959    0.00003230
  681      -16.4162044855      -0.0000000498     0.999959    0.00003252
  682      -16.4162045360      -0.0000000505     0.999959    0.00003274
  683      -16.4162045872      -0.0000000512     0.999959    0.00003297
  684      -16.4162046392      -0.0000000520     0.999959    0.00003319
  685      -16.4162046919      -0.0000000527     0.999959    0.00003342
  686      -16.4162047454      -0.0000000535     0.999959    0.00003366
  687      -16.4162047997      -0.0000000543     0.999959    0.00003389
  688      -16.4162048548      -0.0000000551     0.999959    0.00003413
  689      -16.4162049107      -0.0000000559     0.999959    0.00003437
  690      -16.4162049674      -0.0000000567     0.999959    0.00003462
  691      -16.4162050249      -0.0000000576     0.999959    0.00003487
  692      -16.4162050834      -0.0000000584     0.999959    0.00003512
  693      -16.4162051427      -0.0000000593     0.999959    0.00003538
  694      -16.4162052029      -0.0000000602     0.999959    0.00003564
  695      -16.4162052641      -0.0000000612     0.999959    0.00003590
  696      -16.4162053262      -0.0000000621     0.999959    0.00003617
  697      -16.4162053893      -0.0000000631     0.999959    0.00003644
  698      -16.4162054533      -0.0000000641     0.999959    0.00003671
  699      -16.4162055184      -0.0000000651     0.999959    0.00003699
  700      -16.4162055845      -0.0000000661     0.999959    0.00003727
  701      -16.4162056517      -0.0000000672     0.999959    0.00003756
  702      -16.4162057199      -0.0000000682     0.999959    0.00003785
  703      -16.4162057893      -0.0000000694     0.999959    0.00003814
  704      -16.4162058598      -0.0000000705     0.999959    0.00003844
  705      -16.4162059314      -0.0000000716     0.999959    0.00003874
  706      -16.4162060043      -0.0000000728     0.999959    0.00003905
  707      -16.4162060783      -0.0000000740     0.999959    0.00003936
  708      -16.4162061536      -0.0000000753     0.999959    0.00003967
  709      -16.4162062301      -0.0000000766     0.999959    0.00003999
  710      -16.4162063080      -0.0000000779     0.999959    0.00004032
  711      -16.4162063872      -0.0000000792     0.999959    0.00004065
  712      -16.4162064677      -0.0000000805     0.999959    0.00004098
  713      -16.4162065497      -0.0000000819     0.999959    0.00004132
  714      -16.4162066330      -0.0000000834     0.999959    0.00004167
  715      -16.4162067179      -0.0000000848     0.999959    0.00004202
  716      -16.4162068042      -0.0000000863     0.999959    0.00004237
  717      -16.4162068921      -0.0000000879     0.999959    0.00004273
  718      -16.4162069815      -0.0000000894     0.999960    0.00004310
  719      -16.4162070726      -0.0000000911     0.999960    0.00004347
  720      -16.4162071653      -0.0000000927     0.999960    0.00004384
  721      -16.4162072597      -0.0000000944     0.999960    0.00004423
  722      -16.4162073558      -0.0000000961     0.999960    0.00004461
  723      -16.4162074537      -0.0000000979     0.999960    0.00004501
  724      -16.4162075535      -0.0000000997     0.999960    0.00004541
  725      -16.4162076551      -0.0000001016     0.999960    0.00004581
  726      -16.4162077586      -0.0000001035     0.999960    0.00004623
  727      -16.4162078641      -0.0000001055     0.999960    0.00004665
  728      -16.4162079717      -0.0000001075     0.999960    0.00004707
  729      -16.4162080813      -0.0000001096     0.999960    0.00004750
  730      -16.4162081930      -0.0000001117     0.999960    0.00004794
  731      -16.4162083069      -0.0000001139     0.999960    0.00004839
  732      -16.4162084231      -0.0000001162     0.999960    0.00004884
  733      -16.4162085416      -0.0000001185     0.999960    0.00004930
  734      -16.4162086624      -0.0000001208     0.999960    0.00004977
  735      -16.4162087857      -0.0000001233     0.999960    0.00005025
  736      -16.4162089114      -0.0000001258     0.999960    0.00005073
  737      -16.4162090398      -0.0000001283     0.999960    0.00005122
  738      -16.4162091707      -0.0000001310     0.999960    0.00005172
  739      -16.4162093044      -0.0000001337     0.999960    0.00005223
  740      -16.4162094408      -0.0000001365     0.999960    0.00005274
  741      -16.4162095802      -0.0000001393     0.999960    0.00005327
  742      -16.4162097224      -0.0000001423     0.999960    0.00005380
  743      -16.4162098677      -0.0000001453     0.999960    0.00005434
  744      -16.4162100161      -0.0000001484     0.999960    0.00005489
  745      -16.4162101677      -0.0000001516     0.999960    0.00005546
  746      -16.4162103226      -0.0000001549     0.999960    0.00005603
  747      -16.4162104809      -0.0000001583     0.999960    0.00005661
  748      -16.4162106426      -0.0000001618     0.999960    0.00005719
  749      -16.4162108080      -0.0000001654     0.999960    0.00005780
  750      -16.4162109770      -0.0000001691     0.999960    0.00005841
  751      -16.4162111499      -0.0000001729     0.999961    0.00005903
  752      -16.4162113267      -0.0000001768     0.999961    0.00005966
  753      -16.4162115075      -0.0000001808     0.999961    0.00006030
  754      -16.4162116925      -0.0000001850     0.999961    0.00006096
  755      -16.4162118817      -0.0000001893     0.999961    0.00006162
  756      -16.4162120754      -0.0000001937     0.999961    0.00006230
  757      -16.4162122737      -0.0000001982     0.999961    0.00006299
  758      -16.4162124766      -0.0000002029     0.999961    0.00006369
  759      -16.4162126844      -0.0000002078     0.999961    0.00006441
  760      -16.4162128972      -0.0000002128     0.999961    0.00006514
  761      -16.4162131151      -0.0000002179     0.999961    0.00006588
  762      -16.4162133384      -0.0000002233     0.999961    0.00006663
  763      -16.4162135671      -0.0000002287     0.999961    0.00006740
  764      -16.4162138015      -0.0000002344     0.999961    0.00006819
  765      -16.4162140418      -0.0000002403     0.999961    0.00006898
  766      -16.4162142881      -0.0000002463     0.999961    0.00006980
  767      -16.4162145407      -0.0000002526     0.999961    0.00007069
  768      -16.4162147997      -0.0000002590     0.999961    0.00007167
  769      -16.4162150654      -0.0000002657     0.999961    0.00007266
  770      -16.4162153379      -0.0000002726     0.999961    0.00007368
  771      -16.4162156176      -0.0000002797     0.999961    0.00007471
  772      -16.4162159047      -0.0000002870     0.999961    0.00007578
  773      -16.4162161993      -0.0000002947     0.999961    0.00007686
  774      -16.4162165019      -0.0000003025     0.999962    0.00007797
  775      -16.4162168126      -0.0000003107     0.999962    0.00007910
  776      -16.4162171317      -0.0000003191     0.999962    0.00008026
  777      -16.4162174596      -0.0000003279     0.999962    0.00008145
  778      -16.4162177965      -0.0000003369     0.999962    0.00008266
  779      -16.4162181428      -0.0000003463     0.999962    0.00008390
  780      -16.4162184988      -0.0000003560     0.999962    0.00008517
  781      -16.4162188649      -0.0000003661     0.999962    0.00008646
  782      -16.4162192414      -0.0000003765     0.999962    0.00008779
  783      -16.4162196287      -0.0000003873     0.999962    0.00008915
  784      -16.4162200272      -0.0000003985     0.999962    0.00009054
  785      -16.4162204373      -0.0000004101     0.999962    0.00009197
  786      -16.4162208596      -0.0000004222     0.999962    0.00009342
  787      -16.4162212943      -0.0000004347     0.999962    0.00009492
  788      -16.4162217420      -0.0000004477     0.999962    0.00009645
  789      -16.4162222032      -0.0000004612     0.999962    0.00009802
  790      -16.4162226785      -0.0000004752     0.999963    0.00009962
  791      -16.4162231683      -0.0000004898     0.999963    0.00010127
  792      -16.4162236733      -0.0000005049     0.999963    0.00010296
  793      -16.4162241939      -0.0000005207     0.999963    0.00010468
  794      -16.4162247310      -0.0000005370     0.999963    0.00010646
  795      -16.4162252850      -0.0000005541     0.999963    0.00010828
  796      -16.4162258568      -0.0000005718     0.999963    0.00011014
  797      -16.4162264470      -0.0000005902     0.999963    0.00011205
  798      -16.4162270564      -0.0000006094     0.999963    0.00011402
  799      -16.4162276857      -0.0000006294     0.999963    0.00011603
  800      -16.4162283359      -0.0000006502     0.999963    0.00011810
  801      -16.4162290077      -0.0000006718     0.999963    0.00012022
  802      -16.4162297022      -0.0000006944     0.999964    0.00012240
  803      -16.4162304202      -0.0000007180     0.999964    0.00012463
  804      -16.4162311627      -0.0000007426     0.999964    0.00012693
  805      -16.4162319309      -0.0000007682     0.999964    0.00012929
  806      -16.4162327259      -0.0000007950     0.999964    0.00013172
  807      -16.4162335488      -0.0000008229     0.999964    0.00013421
  808      -16.4162344008      -0.0000008520     0.999964    0.00013677
  809      -16.4162352833      -0.0000008825     0.999964    0.00013941
  810      -16.4162361977      -0.0000009143     0.999964    0.00014211
  811      -16.4162371453      -0.0000009476     0.999964    0.00014490
  812      -16.4162381278      -0.0000009824     0.999965    0.00014776
  813      -16.4162391466      -0.0000010188     0.999965    0.00015071
  814      -16.4162402035      -0.0000010569     0.999965    0.00015374
  815      -16.4162413003      -0.0000010968     0.999965    0.00015686
  816      -16.4162424389      -0.0000011386     0.999965    0.00016008
  817      -16.4162436212      -0.0000011823     0.999965    0.00016338
  818      -16.4162448493      -0.0000012281     0.999965    0.00016679
  819      -16.4162461255      -0.0000012762     0.999965    0.00017030
  820      -16.4162474521      -0.0000013266     0.999966    0.00017392
  821      -16.4162488315      -0.0000013794     0.999966    0.00017764
  822      -16.4162502665      -0.0000014349     0.999966    0.00018148
  823      -16.4162517596      -0.0000014932     0.999966    0.00018544
  824      -16.4162533139      -0.0000015543     0.999966    0.00018952
  825      -16.4162549325      -0.0000016186     0.999966    0.00019373
  826      -16.4162566186      -0.0000016861     0.999966    0.00019807
  827      -16.4162583758      -0.0000017571     0.999967    0.00020255
  828      -16.4162602076      -0.0000018318     0.999967    0.00020717
  829      -16.4162621181      -0.0000019104     0.999967    0.00021194
  830      -16.4162641113      -0.0000019932     0.999967    0.00021686
  831      -16.4162661916      -0.0000020803     0.999967    0.00022195
  832      -16.4162683637      -0.0000021721     0.999968    0.00022719
  833      -16.4162706325      -0.0000022688     0.999968    0.00023262
  834      -16.4162730033      -0.0000023708     0.999968    0.00023822
  835      -16.4162754817      -0.0000024784     0.999968    0.00024400
  836      -16.4162780736      -0.0000025919     0.999968    0.00024998
  837      -16.4162807852      -0.0000027116     0.999969    0.00025616
  838      -16.4162836233      -0.0000028381     0.999969    0.00026255
  839      -16.4162865951      -0.0000029717     0.999969    0.00026915
  840      -16.4162897080      -0.0000031129     0.999969    0.00027598
  841      -16.4162929701      -0.0000032621     0.999970    0.00028305
  842      -16.4162963900      -0.0000034199     0.999970    0.00029035
  843      -16.4162999768      -0.0000035869     0.999970    0.00029791
  844      -16.4163037403      -0.0000037635     0.999970    0.00030572
  845      -16.4163076908      -0.0000039505     0.999971    0.00031381
  846      -16.4163118393      -0.0000041485     0.999971    0.00032218
  847      -16.4163161975      -0.0000043582     0.999971    0.00033084
  848      -16.4163207780      -0.0000045805     0.999971    0.00033980
  849      -16.4163255940      -0.0000048160     0.999972    0.00034908
  850      -16.4163306597      -0.0000050657     0.999972    0.00035867
  851      -16.4163359902      -0.0000053305     0.999972    0.00036860
  852      -16.4163416016      -0.0000056114     0.999973    0.00037888
  853      -16.4163475110      -0.0000059094     0.999973    0.00038952
  854      -16.4163537367      -0.0000062256     0.999973    0.00040052
  855      -16.4163602979      -0.0000065612     0.999974    0.00041191
  856      -16.4163672153      -0.0000069174     0.999974    0.00042368
  857      -16.4163745109      -0.0000072956     0.999974    0.00043586
  858      -16.4163822079      -0.0000076970     0.999975    0.00044846
  859      -16.4163903310      -0.0000081232     0.999975    0.00046147
  860      -16.4163989067      -0.0000085756     0.999976    0.00047493
  861      -16.4164079625      -0.0000090559     0.999976    0.00048882
  862      -16.4164175281      -0.0000095656     0.999977    0.00050317
  863      -16.4164276347      -0.0000101065     0.999977    0.00051798
  864      -16.4164383151      -0.0000106804     0.999977    0.00053325
  865      -16.4164496041      -0.0000112890     0.999978    0.00054899
  866      -16.4164615383      -0.0000119342     0.999978    0.00056520
  867      -16.4164741560      -0.0000126178     0.999979    0.00058188
  868      -16.4164874976      -0.0000133416     0.999979    0.00059904
  869      -16.4165016052      -0.0000141076     0.999980    0.00061665
  870      -16.4165165226      -0.0000149174     0.999980    0.00063472
  871      -16.4165322954      -0.0000157728     0.999981    0.00065323
  872      -16.4165489706      -0.0000166752     0.999981    0.00067217
  873      -16.4165665968      -0.0000176262     0.999982    0.00069151
  874      -16.4165852236      -0.0000186268     0.999983    0.00071122
  875      -16.4166049015      -0.0000196779     0.999983    0.00073127
  876      -16.4166256815      -0.0000207800     0.999984    0.00075161
  877      -16.4166476147      -0.0000219332     0.999984    0.00077221
  878      -16.4166707516      -0.0000231369     0.999985    0.00079299
  879      -16.4166951417      -0.0000243901     0.999986    0.00081390
  880      -16.4167208327      -0.0000256910     0.999986    0.00083485
  881      -16.4167478694      -0.0000270367     0.999987    0.00085576
  882      -16.4167762931      -0.0000284238     0.999987    0.00087654
  883      -16.4168061404      -0.0000298473     0.999988    0.00089707
  884      -16.4168374419      -0.0000313015     0.999988    0.00091723
  885      -16.4168702209      -0.0000327790     0.999989    0.00093689
  886      -16.4169044921      -0.0000342712     0.999990    0.00095592
  887      -16.4169402603      -0.0000357681     0.999990    0.00097415
  888      -16.4169775183      -0.0000372580     0.999991    0.00099142
  889      -16.4170162461      -0.0000387279     0.999991    0.00100756
  890      -16.4170564092      -0.0000401631     0.999992    0.00102240
  891      -16.4170979569      -0.0000415477     0.999992    0.00103575
  892      -16.4171408215      -0.0000428646     0.999993    0.00104743
  893      -16.4171849172      -0.0000440957     0.999993    0.00105725
  894      -16.4172301396      -0.0000452224     0.999994    0.00106504
  895      -16.4172763651      -0.0000462255     0.999994    0.00107063
  896      -16.4173234515      -0.0000470864     0.999995    0.00107385
  897      -16.4173712386      -0.0000477871     0.999995    0.00107458
  898      -16.4174195492      -0.0000483106     0.999995    0.00107512
  899      -16.4174681915      -0.0000486423     0.999996    0.00108654
  900      -16.4175169612      -0.0000487697     0.999996    0.00109538
  901      -16.4175656445      -0.0000486833     0.999996    0.00110149
  902      -16.4176140219      -0.0000483774     0.999997    0.00110472
  903      -16.4176618717      -0.0000478498     0.999997    0.00110495
  904      -16.4177089745      -0.0000471027     0.999997    0.00110212
  905      -16.4177551169      -0.0000461424     0.999997    0.00109618
  906      -16.4178000963      -0.0000449794     0.999998    0.00108715
  907      -16.4178437245      -0.0000436282     0.999998    0.00107506
  908      -16.4178858310      -0.0000421065     0.999998    0.00106002
  909      -16.4179262663      -0.0000404353     0.999998    0.00104215
  910      -16.4179649042      -0.0000386379     0.999998    0.00102162
  911      -16.4180016432      -0.0000367390     0.999998    0.00099863
  912      -16.4180364074      -0.0000347642     0.999999    0.00097341
  913      -16.4180691466      -0.0000327391     0.999999    0.00094621
  914      -16.4180998354      -0.0000306888     0.999999    0.00091730
  915      -16.4181284722      -0.0000286368     0.999999    0.00088695
  916      -16.4181550771      -0.0000266049     0.999999    0.00085543
  917      -16.4181796897      -0.0000246127     0.999999    0.00082304
  918      -16.4182023667      -0.0000226770     0.999999    0.00079003
  919      -16.4182231789      -0.0000208122     0.999999    0.00075666
  920      -16.4182422086      -0.0000190297     0.999999    0.00072318
  921      -16.4182595470      -0.0000173383     0.999999    0.00068979
  922      -16.4182752912      -0.0000157443     0.999999    0.00065671
  923      -16.4182895426      -0.0000142514     0.999999    0.00062411
  924      -16.4183024040      -0.0000128614     0.999999    0.00059215
  925      -16.4183139783      -0.0000115743     0.999999    0.00056095
  926      -16.4183243668      -0.0000103885     0.999999    0.00053064
  927      -16.4183336678      -0.0000093010     0.999999    0.00050128
  928      -16.4183419759      -0.0000083081     0.999999    0.00047297
  929      -16.4183493811      -0.0000074052     0.999999    0.00044574
  930      -16.4183559681      -0.0000065870     0.999999    0.00041964
  931      -16.4183618164      -0.0000058483     0.999999    0.00039468
  932      -16.4183669999      -0.0000051834     0.999999    0.00037088
  933      -16.4183715865      -0.0000045867     0.999999    0.00034822
  934      -16.4183756390      -0.0000040525     0.999999    0.00032671
  935      -16.4183792146      -0.0000035756     0.999999    0.00030782
  936      -16.4183823654      -0.0000031507     0.999999    0.00028984
  937      -16.4183851385      -0.0000027731     0.999999    0.00027269
  938      -16.4183875764      -0.0000024380     0.999999    0.00025636
  939      -16.4183897176      -0.0000021412     0.999999    0.00024084
  940      -16.4183915963      -0.0000018787     1.000000    0.00022611
  941      -16.4183932433      -0.0000016470     1.000000    0.00021215
  942      -16.4183946860      -0.0000014427     1.000000    0.00019894
  943      -16.4183959488      -0.0000012628     1.000000    0.00018646
  944      -16.4183970534      -0.0000011046     1.000000    0.00017468
  945      -16.4183980189      -0.0000009656     1.000000    0.00016356
  946      -16.4183988625      -0.0000008435     1.000000    0.00015310
  947      -16.4183995990      -0.0000007365     1.000000    0.00014324
  948      -16.4184002418      -0.0000006428     1.000000    0.00013398
  949      -16.4184008025      -0.0000005607     1.000000    0.00012527
  950      -16.4184012914      -0.0000004889     1.000000    0.00011709
  951      -16.4184017175      -0.0000004261     1.000000    0.00010941
  952      -16.4184020888      -0.0000003713     1.000000    0.00010222
  953      -16.4184024121      -0.0000003234     1.000000    0.00009547
  954      -16.4184026936      -0.0000002815     1.000000    0.00008914
  955      -16.4184029387      -0.0000002451     1.000000    0.00008322
  956      -16.4184031520      -0.0000002133     1.000000    0.00007768
  957      -16.4184033375      -0.0000001855     1.000000    0.00007249
  958      -16.4184034989      -0.0000001614     1.000000    0.00006764
  959      -16.4184036392      -0.0000001403     1.000000    0.00006311
  960      -16.4184037612      -0.0000001220     1.000000    0.00005887
  961      -16.4184038672      -0.0000001060     1.000000    0.00005490
  962      -16.4184039594      -0.0000000922     1.000000    0.00005120
  963      -16.4184040395      -0.0000000801     1.000000    0.00004774
  964      -16.4184041091      -0.0000000696     1.000000    0.00004451
  965      -16.4184041695      -0.0000000605     1.000000    0.00004150
  966      -16.4184042220      -0.0000000525     1.000000    0.00003868
  967      -16.4184042676      -0.0000000456     1.000000    0.00003606
  968      -16.4184043072      -0.0000000396     1.000000    0.00003361
  969      -16.4184043416      -0.0000000344     1.000000    0.00003132
  970      -16.4184043715      -0.0000000299     1.000000    0.00002919
  971      -16.4184043974      -0.0000000259     1.000000    0.00002720
  972      -16.4184044199      -0.0000000225     1.000000    0.00002535
  973      -16.4184044394      -0.0000000195     1.000000    0.00002362
  974      -16.4184044564      -0.0000000170     1.000000    0.00002200
  975      -16.4184044711      -0.0000000147     1.000000    0.00002050
  976      -16.4184044839      -0.0000000128     1.000000    0.00001910
  977      -16.4184044950      -0.0000000111     1.000000    0.00001779
  978      -16.4184045046      -0.0000000096     1.000000    0.00001657
  979      -16.4184045129      -0.0000000083     1.000000    0.00001544
  980      -16.4184045202      -0.0000000072     1.000000    0.00001438
  981      -16.4184045265      -0.0000000063     1.000000    0.00001340
  982      -16.4184045319      -0.0000000055     1.000000    0.00001248
  983      -16.4184045366      -0.0000000047     1.000000    0.00001162
  984      -16.4184045407      -0.0000000041     1.000000    0.00001083
  985      -16.4184045443      -0.0000000036     1.000000    0.00001008
  986      -16.4184045474      -0.0000000031     1.000000    0.00000939
  987      -16.4184045501      -0.0000000027     1.000000    0.00000875
  988      -16.4184045524      -0.0000000023     1.000000    0.00000815
  989      -16.4184045544      -0.0000000020     1.000000    0.00000759
  990      -16.4184045561      -0.0000000017     1.000000    0.00000707
  991      -16.4184045577      -0.0000000015     1.000000    0.00000658
  992      -16.4184045590      -0.0000000013     1.000000    0.00000613
  993      -16.4184045601      -0.0000000011     1.000000    0.00000571
  994      -16.4184045611      -0.0000000010     1.000000    0.00000532
  995      -16.4184045620      -0.0000000009     1.000000    0.00000495
  996      -16.4184045627      -0.0000000007     1.000000    0.00000461
  997      -16.4184045634      -0.0000000006     1.000000    0.00000429
  998      -16.4184045639      -0.0000000006     1.000000    0.00000400
  999      -16.4184045644      -0.0000000005     1.000000    0.00000372
 1000      -16.4184045648      -0.0000000004     1.000000    0.00000347

Total Energy:                      -16.4184045648 H         -446.7675 eV
Extrapolated to 0:                 -16.3752775143 H         -445.5940 eV

----------------------------------------------------------------------------------
 Solving CP-REKS equation for  1 state vector...
----------------------------------------------------------------------------------
  CG solver: Constructing Y initial guess
  CG solver: Iteration    1    eps =    0.039450702031
  CG solver: Iteration    2    eps =    0.008300764771
  CG solver: Iteration    3    eps =    0.001491420541
  CG solver: Iteration    4    eps =    0.000847840988
  CG solver: Iteration    5    eps =    0.000547449739
  CG solver: Iteration    6    eps =    0.000135589778
  CG solver: Iteration    7    eps =    0.000062916315
  CG solver: Iteration    8    eps =    0.000003864636
  CG solver: Iteration    9    eps =    0.000000403770
  CG solver: Iteration   10    eps =    0.000000062559
  CG solver: Iteration   11    eps =    0.000000014024
  CG solver: Iteration   12    eps =    0.000000001790
  Convergence reached in CG solver after   12 iterations
  CG solver: Calculating converged R, Z, Q2 matrix
----------------------------------------------------------------------------------

----------------------------------------------------------------------------------
 Solving CP-REKS equation for SI between  1 and  2 state vectors...
----------------------------------------------------------------------------------
  CG solver: Constructing Y initial guess
  CG solver: Iteration    1    eps =    0.009240260274
  CG solver: Iteration    2    eps =    0.001017289611
  CG solver: Iteration    3    eps =    0.000269512164
  CG solver: Iteration    4    eps =    0.000569001134
  CG solver: Iteration    5    eps =    0.000059039963
  CG solver: Iteration    6    eps =    0.000011934911
  CG solver: Iteration    7    eps =    0.000004164812
  CG solver: Iteration    8    eps =    0.000000662892
  CG solver: Iteration    9    eps =    0.000000099593
  CG solver: Iteration   10    eps =    0.000000014647
  CG solver: Iteration   11    eps =    0.000000002007
  Convergence reached in CG solver after   11 iterations
  CG solver: Calculating converged R, Z, Q2 matrix
----------------------------------------------------------------------------------

--------------------------------------------------
 Gradient Information
--------------------------------------------------
           1 st state (SSR)
     0.00000000     0.00000000     0.00000000
     0.00000000     0.00000000     0.00000000
     0.00000000     0.00000000     0.00000000
     0.00000000     0.00000000     0.00000000
     0.00000000     0.00000000     0.00000000
     0.00000000     0.00000000     0.00000000
     0.00000000     0.00000000     0.00000000
     0.00000000     0.00000000     0.00000000
     0.00000000     0.00000000     0.00000000
     0.00000000     0.00000000     0.00000000
     0.00000000     0.00000000     0.00000000
     0.00000000     0.00000000     0.00000000
     0.00000000     0.00000000     0.00000000
     0.00000000     0.00000000     0.00000000

           2 st state (SSR)
     0.00000000     0.00000000     0.00000000
     0.00000000     0.00000000     0.00000000
     0.00000000     0.00000000     0.00000000
     0.00000000     0.00000000     0.00000000
     0.00000000     0.00000000     0.00000000
     0.00000000     0.00000000     0.00000000
     0.00000000     0.00000000     0.00000000
     0.00000000     0.00000000     0.00000000
     0.00000000     0.00000000     0.00000000
     0.00000000     0.00000000     0.00000000
     0.00000000     0.00000000     0.00000000
     0.00000000     0.00000000     0.00000000
     0.00000000     0.00000000     0.00000000
     0.00000000     0.00000000     0.00000000
--------------------------------------------------
 Coupling Information
--------------------------------------------------
 between  1 and  2 states
--------------------------------------------------
 g vector - difference gradient
     0.21895227    -0.20049110     0.20391845
    -0.51889494    -0.34072799    -0.05387253
     0.03241204     0.14717797    -0.00783369
     0.05129283    -0.02585392    -0.18825057
     0.05743031     0.01140251     0.07800833
     0.34349676     0.34878703    -0.07107391
    -0.27276817     0.13726339     0.06406640
     0.02567052     0.05351211     0.05041851
     0.10269751     0.02338885    -0.02061831
     0.02971147    -0.12853275     0.05983091
    -0.03469881    -0.07646785    -0.20477209
    -0.06080659     0.00424500     0.14112803
    -0.01431698     0.10217780    -0.00311777
     0.03982179    -0.05588106    -0.04783177

 h vector - derivative coupling
    -0.00097235    -0.00825126    -0.00125322
     0.00253890     0.01616850    -0.00714524
    -0.00172658     0.00208614     0.00147646
     0.00224078    -0.00114919    -0.00123228
    -0.00324415     0.00351185     0.00696669
     0.00353940    -0.01350258     0.00101605
     0.00017350    -0.00072667    -0.00145418
    -0.00230883    -0.00053762     0.00136958
     0.00048943    -0.00135380    -0.00136060
    -0.00123602     0.00488703     0.00118475
     0.00062192     0.00071519     0.00082542
     0.00004250    -0.00163275    -0.00006477
    -0.00004790     0.00047276     0.00029476
    -0.00011060    -0.00068760    -0.00062341

 G vector - GDV
     0.00000000     0.00000000     0.00000000
     0.00000000     0.00000000     0.00000000
     0.00000000     0.00000000     0.00000000
     0.00000000     0.00000000     0.00000000
     0.00000000     0.00000000     0.00000000
     0.00000000     0.00000000     0.00000000
     0.00000000     0.00000000     0.00000000
     0.00000000     0.00000000     0.00000000
     0.00000000     0.00000000     0.00000000
     0.00000000     0.00000000     0.00000000
     0.00000000     0.00000000     0.00000000
     0.00000000     0.00000000     0.00000000
     0.00000000     0.00000000     0.00000000
     0.00000000     0.00000000     0.00000000

 H vector - DCV - non-adiabatic coupling
     0.00000000     0.00000000     0.00000000
     0.00000000     0.00000000     0.00000000
     0.00000000     0.00000000     0.00000000
     0.00000000     0.00000000     0.00000000
     0.00000000     0.00000000     0.00000000
     0.00000000     0.00000000     0.00000000
     0.00000000     0.00000000     0.00000000
     0.00000000     0.00000000     0.00000000
     0.00000000     0.00000000     0.00000000
     0.00000000     0.00000000     0.00000000
     0.00000000     0.00000000     0.00000000
     0.00000000     0.00000000     0.00000000
     0.00000000     0.00000000     0.00000000
     0.00000000     0.00000000     0.00000000
--------------------------------------------------

WARNING!
-> SCC is NOT converged, maximal SCC iterations exceeded

--------------------------------------------------------------------------------
DFTB+ running times                          cpu [s]             wall clock [s]
--------------------------------------------------------------------------------
SCC                                    +     1.35  ( 81.0%)      1.35  ( 80.8%)
      Sparse to dense                        0.07  (  4.3%)      0.07  (  4.1%)
      Dense to sparse                        0.24  ( 14.5%)      0.25  ( 14.9%)
      Range separated Hamiltonian            0.12  (  7.4%)      0.13  (  7.7%)
  Density matrix creation                    0.15  (  9.0%)      0.16  (  9.5%)
  Force calculation                          0.32  ( 18.9%)      0.32  ( 18.9%)
--------------------------------------------------------------------------------
Missing                                +     0.32  ( 19.0%)      0.32  ( 19.2%)
Total                                  =     1.66  (100.0%)      1.67  (100.0%)
--------------------------------------------------------------------------------
