|===============================================================================
|
|  DFTB+ release 20.1
|
|  Copyright (C) 2006 - 2020  DFTB+ developers group
|
|===============================================================================
|
|  When publishing results obtained with DFTB+, please cite the following
|  reference:
|
|  * DFTB+, a software package for efficient approximate density functional
|    theory based atomistic simulations, J. Chem. Phys. 152, 124101 (2020).
|    [doi: 10.1063/1.5143190]
|
|  You should also cite additional publications crediting the parametrization
|  data you use. Please consult the documentation of the SK-files for the
|  references.
|
|===============================================================================

Reading input file 'dftb_in.hsd'
Parser version: 8

--------------------------------------------------------------------------------
Reading SK-files:
Done.


Processed input in HSD format written to 'dftb_pin.hsd'

Starting initialization...
--------------------------------------------------------------------------------
OpenMP threads:              1
Chosen random seed:          510961393
Mode:                        Static calculation
Self consistent charges:     Yes
SCC-tolerance:                 0.100000E-05
Max. scc iterations:                   1000
Shell resolved Hubbard:      No
Spin polarisation:           No
Nr. of up electrons:             6.000000
Nr. of down electrons:           6.000000
Periodic boundaries:         No
Electronic solver:           Relatively robust
Maximal SCC-cycles:                    1000
Initial charges:             Set automatically (system chrg:   0.100E+01)
Included shells:             C:  s, p
                             N:  s, p
                             H:  s
Spin coupling constants:     C   1(s)-1(s):  -0.455900E-01
                             C   1(s)-2(p):  -0.293000E-01
                             C   2(p)-1(s):  -0.293000E-01
                             C   2(p)-2(p):  -0.275500E-01
                             N   1(s)-1(s):  -0.468700E-01
                             N   1(s)-2(p):  -0.317000E-01
                             N   2(p)-1(s):  -0.317000E-01
                             N   2(p)-2(p):  -0.307200E-01
                             H   1(s)-1(s):  -0.792500E-01
Range separated hybrid:      Yes
  Screening parameter omega:   0.300000E+00
  Range separated algorithm:   MatrixBased
Extra options:
                             Mulliken analysis
                             Force calculation
Force type                   original
                             Eigenvector printing


REKS Calcuation:             Yes
SSR(2,2) Calcuation:         Yes
Energy Functional:           (PPS+OSS)/2
Number of Core Orbitals:                  5
Number of Active Orbitals:                2
Number of Basis:                         12
Number of States:                         2
State-Averaging Weight:          0.500000
                                 0.500000
State of Interest:                        1
Initial Guess:               Diagonalize H0 matrix
Newton-Raphson for FON opt:  Yes
NR max. Iterations:                      50
Level Shifting:              Yes
Shift Value:                     0.300000
W Scale Factor:              C  =    3.000000
                             N  =    3.000000
                             H  =    3.000000
Transition Dipole:           No
Gradient of Microstate:      No
CP-REKS Solver:              Preconditioned Conjugate-Gradient
CG max. Iterations:                     100
CG Tolerance:                  0.100000E-07
Memory for A and Hxc:        Direct Updating Without Saving
Non-Adiabatic Coupling:      Yes

--------------------------------------------------------------------------------

***  Geometry step: 0

  iSCC       reks energy        Diff energy         x_a       SCC error   
    1       -6.2718487435       0.0000000000     0.999855    1.19629106
    2       -6.2804089426      -0.0085601992     0.999924    0.05442136
    3       -6.2835799148      -0.0031709722     0.999951    0.01875419
    4       -6.2851655904      -0.0015856756     0.999963    0.01073321
    5       -6.2859786492      -0.0008130588     0.999969    0.00915568
    6       -6.2863934765      -0.0004148272     0.999972    0.00727097
    7       -6.2866036039      -0.0002101275     0.999973    0.00553369
    8       -6.2867094752      -0.0001058713     0.999974    0.00410256
    9       -6.2867626341      -0.0000531589     0.999975    0.00299176
   10       -6.2867892698      -0.0000266358     0.999975    0.00215880
   11       -6.2868026003      -0.0000133305     0.999975    0.00154711
   12       -6.2868092682      -0.0000066679     0.999975    0.00110374
   13       -6.2868126032      -0.0000033350     0.999975    0.00078507
   14       -6.2868142717      -0.0000016685     0.999975    0.00055726
   15       -6.2868151070      -0.0000008353     0.999975    0.00039500
   16       -6.2868155255      -0.0000004185     0.999975    0.00027972
   17       -6.2868157355      -0.0000002100     0.999975    0.00019795
   18       -6.2868158410      -0.0000001055     0.999975    0.00014001
   19       -6.2868158942      -0.0000000531     0.999975    0.00009901
   20       -6.2868159210      -0.0000000268     0.999975    0.00006999
   21       -6.2868159346      -0.0000000136     0.999975    0.00004948
   22       -6.2868159415      -0.0000000069     0.999975    0.00003497
   23       -6.2868159450      -0.0000000035     0.999975    0.00002472
   24       -6.2868159468      -0.0000000018     0.999975    0.00001748
   25       -6.2868159477      -0.0000000009     0.999975    0.00001235
   26       -6.2868159482      -0.0000000005     0.999975    0.00000874
   27       -6.2868159485      -0.0000000003     0.999975    0.00000618
   28       -6.2868159486      -0.0000000001     0.999975    0.00000437
   29       -6.2868159487      -0.0000000001     0.999975    0.00000309
   30       -6.2868159487      -0.0000000000     0.999975    0.00000242
   31       -6.2868159487      -0.0000000000     0.999975    0.00000191
   32       -6.2868159488      -0.0000000000     0.999975    0.00000152
   33       -6.2868159488      -0.0000000000     0.999975    0.00000120
   34       -6.2868159488      -0.0000000000     0.999975    0.00000095
  
--------------------------------------------------
 Final SA-REKS(2,2) energy:      -6.28681595
  
 State     Energy      FON(1)    FON(2)   Spin
  PPS   -6.41847710   1.999950  0.000050  0.00
  OSS   -6.15515480   1.000000  1.000000  0.00
 Trip   -6.23320673   1.000000  1.000000  1.00
--------------------------------------------------

 Lagrangian Wab:   0.00054550  0.00054538

--------------------------------------------------
 SSR: 2SI-2SA-REKS(2,2) Hamiltonian matrix
               PPS           OSS
   PPS    -6.41847710    0.00076761
   OSS     0.00076761   -6.15515480
--------------------------------------------------

----------------------------------------------------------------
 SSR: 2SI-2SA-REKS(2,2) states
                    E_n       C_{PPS}    C_{OSS}
 SSR state  1   -6.41847933  -0.999996   0.002915
 SSR state  2   -6.15515256  -0.002915  -0.999996
----------------------------------------------------------------

 unrelaxed SSR FONs for S0:  1.999942  0.000058

Total Energy:                       -6.4184793327 H         -174.6557 eV
Extrapolated to 0:                  -6.4184793327 H         -174.6557 eV

----------------------------------------------------------------------------------
 Solving CP-REKS equation for  1 state vector...
----------------------------------------------------------------------------------
  CG solver: Constructing Y initial guess
  CG solver: Iteration    1    eps =    0.000032354009
  CG solver: Iteration    2    eps =    0.000001886302
  CG solver: Iteration    3    eps =    0.000000308387
  CG solver: Iteration    4    eps =    0.000000003192
  Convergence reached in CG solver after    4 iterations
  CG solver: Calculating converged R, Z, Q2 matrix
----------------------------------------------------------------------------------

----------------------------------------------------------------------------------
 Solving CP-REKS equation for SI between  1 and  2 state vectors...
----------------------------------------------------------------------------------
  CG solver: Constructing Y initial guess
  CG solver: Iteration    1    eps =    0.000303352736
  CG solver: Iteration    2    eps =    0.000095685509
  CG solver: Iteration    3    eps =    0.000019477804
  CG solver: Iteration    4    eps =    0.000000788275
  CG solver: Iteration    5    eps =    0.000000018137
  CG solver: Iteration    6    eps =    0.000000002770
  Convergence reached in CG solver after    6 iterations
  CG solver: Calculating converged R, Z, Q2 matrix
----------------------------------------------------------------------------------

--------------------------------------------------
 Gradient Information
--------------------------------------------------
           1 st state (SSR)
     0.00053438    -0.00024989     0.01436214
     0.00285935    -0.00480636    -0.01448294
    -0.00424562     0.00212557    -0.00391814
    -0.00304568     0.00042384     0.00328915
     0.00032424     0.00338774     0.00637645
     0.00357334    -0.00088090    -0.00562666

           2 st state (SSR)
     0.00123772    -0.00825982     0.11643536
     0.00402944     0.01114996    -0.13894645
    -0.01831402    -0.00137908     0.01674131
    -0.01012417     0.00083386    -0.00628432
     0.00644489    -0.00246967    -0.00351693
     0.01672614     0.00012475     0.01557103
--------------------------------------------------
 Coupling Information
--------------------------------------------------
 between  1 and  2 states
--------------------------------------------------
 g vector - difference gradient
    -0.00034977     0.00400476    -0.05103812
    -0.00059356    -0.00797869     0.06223212
     0.00703631     0.00178396    -0.01032847
     0.00354019    -0.00023879     0.00478705
    -0.00305448     0.00296247     0.00494793
    -0.00657870    -0.00053371    -0.01060051

 h vector - derivative coupling
     0.00032779    -0.00004661    -0.00011047
    -0.00145929    -0.00006805    -0.00011838
     0.00034204     0.00541964     0.00024489
     0.00015152    -0.00579296     0.00004035
     0.00101235     0.00578337     0.00019791
    -0.00037441    -0.00529540    -0.00025431

 G vector - GDV
    -0.00035167     0.00400496    -0.05103661
    -0.00058504    -0.00797816     0.06223175
     0.00703420     0.00175233    -0.01032972
     0.00353924    -0.00020501     0.00478674
    -0.00306033     0.00292871     0.00494669
    -0.00657640    -0.00050283    -0.01059885

 H vector - DCV - non-adiabatic coupling
     0.00123704    -0.00008835    -0.00154950
    -0.00555481    -0.00043506     0.00092828
     0.00145466     0.02062059     0.00070130
     0.00065379    -0.02200404     0.00025923
     0.00377678     0.02202794     0.00086113
    -0.00156747    -0.02012108    -0.00120043
--------------------------------------------------


--------------------------------------------------------------------------------
DFTB+ running times                          cpu [s]             wall clock [s]
--------------------------------------------------------------------------------
SCC                                    +     0.02  ( 60.9%)      0.02  ( 54.8%)
Post-SCC processing                    +     0.01  ( 34.4%)      0.01  ( 32.3%)
--------------------------------------------------------------------------------
Missing                                +     0.00  (  4.8%)      0.00  ( 12.9%)
Total                                  =     0.03  (100.0%)      0.03  (100.0%)
--------------------------------------------------------------------------------
