 Fermi distribution function

Calculation with static geometry


********************************************************************************
 iSCC Total electronic   Diff electronic      SCC error    
    9   -0.54356867E+01   -0.79936058E-13    0.99990383E-06
********************************************************************************

 Total charge:     1.00000000

 Atomic gross charges (e)
 Atom           Charge
    1       0.13783107
    2      -0.01590794
    3       0.17144774
    4       0.26992832
    5       0.27345523
    6       0.16324557

Nr. of electrons (up):     12.00000000
Atom populations (up)
 Atom       Population
    1       3.86216893
    2       5.01590794
    3       0.82855226
    4       0.73007168
    5       0.72654477
    6       0.83675443

l-shell populations (up)
 Atom Sh.   l       Population
    1   1   0       1.29947246
    1   2   1       2.56269647
    2   1   0       1.41560672
    2   2   1       3.60030122
    3   1   0       0.82855226
    4   1   0       0.73007168
    5   1   0       0.72654477
    6   1   0       0.83675443

Orbital populations (up)
 Atom Sh.   l   m       Population  Label
    1   1   0   0       1.29947246  s
    1   2   1  -1       0.62474029  p_y
    1   2   1   0       0.88402338  p_z
    1   2   1   1       1.05393280  p_x
    2   1   0   0       1.41560672  s
    2   2   1  -1       1.31770526  p_y
    2   2   1   0       1.13553112  p_z
    2   2   1   1       1.14706484  p_x
    3   1   0   0       0.82855226  s
    4   1   0   0       0.73007168  s
    5   1   0   0       0.72654477  s
    6   1   0   0       0.83675443  s

Fermi level:                        -0.4954934642 H          -13.4831 eV
Band energy:                        -8.9939063557 H         -244.7366 eV
TS:                                  0.0000000000 H            0.0000 eV
Band free energy (E-TS):            -8.9939063557 H         -244.7366 eV
Extrapolated E(0K):                 -8.9939063557 H         -244.7366 eV
Input / Output electrons (q):     12.0000000000     12.0000000000

Energy H0:                          -5.5709759370 H         -151.5940 eV
Energy SCC:                          0.1352892199 H            3.6814 eV
Total Electronic energy:            -5.4356867171 H         -147.9126 eV
Repulsive energy:                    0.2020870304 H            5.4991 eV
Total energy:                       -5.2335996867 H         -142.4135 eV
Extrapolated to 0:                  -5.2335996867 H         -142.4135 eV
Total Mermin free energy:           -5.2335996867 H         -142.4135 eV
Force related energy:               -5.2335996867 H         -142.4135 eV

SCC converged

Excitation Energy:                   0.1613461134 H            4.3905 eV

Total Forces
    1      0.002651678033      0.006952501981     -0.014837895470
    2      0.005976626252     -0.010856661745     -0.000741143229
    3     -0.003003445568     -0.002677006852      0.001281703097
    4     -0.008147677972      0.005775910779      0.004253394659
    5      0.000949866964     -0.001116331658      0.007508611603
    6      0.001572952292      0.001921587496      0.002535329340

Maximal derivative component:        0.148379E-01 au


