|===============================================================================
|
|  DFTB+ release 20.1
|
|  Copyright (C) 2006 - 2020  DFTB+ developers group
|
|===============================================================================
|
|  When publishing results obtained with DFTB+, please cite the following
|  reference:
|
|  * DFTB+, a software package for efficient approximate density functional
|    theory based atomistic simulations, J. Chem. Phys. 152, 124101 (2020).
|    [doi: 10.1063/1.5143190]
|
|  You should also cite additional publications crediting the parametrization
|  data you use. Please consult the documentation of the SK-files for the
|  references.
|
|===============================================================================

Reading input file 'dftb_in.hsd'
Parser version: 8

--------------------------------------------------------------------------------
Reading SK-files:
Done.


Processed input in HSD format written to 'dftb_pin.hsd'

Starting initialization...
--------------------------------------------------------------------------------
WARNING!
-> Excited state forces are not implemented yet for fractional occupations, kT=  0.3158E-02K
OpenMP threads:              1
Chosen random seed:          435834532
Mode:                        Static calculation
Self consistent charges:     Yes
SCC-tolerance:                 0.100000E-05
Max. scc iterations:                    100
Shell resolved Hubbard:      No
Spin polarisation:           No
Nr. of up electrons:             6.000000
Nr. of down electrons:           6.000000
Periodic boundaries:         No
Electronic solver:           Relatively robust
Mixer:                       Broyden mixer
Mixing parameter:                  0.200000
Maximal SCC-cycles:                     100
Nr. of chrg. vec. in memory:              0
Electronic temperature:        0.100000E-07 H      0.272114E-06 eV
Initial charges:             Set automatically (system chrg:   0.100E+01)
Included shells:             C:  s, p
                             N:  s, p
                             H:  s
Extra options:
                             Mulliken analysis
                             Force calculation
Force type                   original
                             Eigenvector printing

--------------------------------------------------------------------------------

***  Geometry step: 0

 iSCC Total electronic   Diff electronic      SCC error    
    1   -0.54303749E+01    0.00000000E+00    0.57089138E+00
    2   -0.54332179E+01   -0.28430348E-02    0.39727695E+00
    3   -0.54355154E+01   -0.22974309E-02    0.39878082E-01
    4   -0.54356855E+01   -0.17012861E-03    0.95744836E-02
    5   -0.54356834E+01    0.21021959E-05    0.53994854E-02
    6   -0.54356867E+01   -0.33296435E-05    0.79253521E-04
    7   -0.54356867E+01   -0.10893775E-09    0.24806282E-04
    8   -0.54356867E+01   -0.21179503E-10    0.15952765E-05
    9   -0.54356867E+01   -0.79936058E-13    0.99990383E-06
>> Charges saved for restart in charges.bin

Total Energy:                       -5.0722535733 H         -138.0230 eV
Extrapolated to 0:                  -5.2335996867 H         -142.4135 eV
Total Mermin free energy:           -5.0722535733 H         -138.0230 eV
Force related energy:               -5.2335996867 H         -142.4135 eV

--------------------------------------------------------------------------------
DFTB+ running times                          cpu [s]             wall clock [s]
--------------------------------------------------------------------------------
SCC                                    +     0.01  ( 38.2%)      0.02  ( 48.9%)
Post-SCC processing                    +     0.01  ( 54.7%)      0.02  ( 40.0%)
--------------------------------------------------------------------------------
Missing                                +     0.00  (  7.1%)      0.01  ( 11.1%)
Total                                  =     0.02  (100.0%)      0.05  (100.0%)
--------------------------------------------------------------------------------
