 Fermi distribution function

Calculation with static geometry


********************************************************************************
 iSCC Total electronic   Diff electronic      SCC error    
   11   -0.53349819E+01   -0.15809576E-12    0.51225417E-06
********************************************************************************

 Total charge:     1.00000000

 Atomic gross charges (e)
 Atom           Charge
    1       0.26059542
    2      -0.14171669
    3       0.17735272
    4       0.26258732
    5       0.26334167
    6       0.17783957

Nr. of electrons (up):     12.00000000
Atom populations (up)
 Atom       Population
    1       3.73940458
    2       5.14171669
    3       0.82264728
    4       0.73741268
    5       0.73665833
    6       0.82216043

l-shell populations (up)
 Atom Sh.   l       Population
    1   1   0       1.36343534
    1   2   1       2.37596924
    2   1   0       1.49612043
    2   2   1       3.64559626
    3   1   0       0.82264728
    4   1   0       0.73741268
    5   1   0       0.73665833
    6   1   0       0.82216043

Orbital populations (up)
 Atom Sh.   l   m       Population  Label
    1   1   0   0       1.36343534  s
    1   2   1  -1       0.47234423  p_y
    1   2   1   0       0.89012294  p_z
    1   2   1   1       1.01350207  p_x
    2   1   0   0       1.49612043  s
    2   2   1  -1       1.31476847  p_y
    2   2   1   0       1.16848256  p_z
    2   2   1   1       1.16234523  p_x
    3   1   0   0       0.82264728  s
    4   1   0   0       0.73741268  s
    5   1   0   0       0.73665833  s
    6   1   0   0       0.82216043  s

Fermi level:                        -0.5276683336 H          -14.3586 eV
Band energy:                        -8.8460889181 H         -240.7143 eV
TS:                                  0.0000000000 H            0.0000 eV
Band free energy (E-TS):            -8.8460889181 H         -240.7143 eV
Extrapolated E(0K):                 -8.8460889181 H         -240.7143 eV
Input / Output electrons (q):     12.0000000000     12.0000000000

Energy H0:                          -5.4731949418 H         -148.9332 eV
Energy SCC:                          0.1382130286 H            3.7610 eV
Total Electronic energy:            -5.3349819132 H         -145.1722 eV
Repulsive energy:                    0.1638668036 H            4.4590 eV
Total energy:                       -5.1711151096 H         -140.7132 eV
Extrapolated to 0:                  -5.1711151096 H         -140.7132 eV
Total Mermin free energy:           -5.1711151096 H         -140.7132 eV
Force related energy:               -5.1711151096 H         -140.7132 eV

SCC converged

Excitation Energy:                   0.1483928133 H            4.0380 eV

Total Forces
    1     -0.030439428654      0.017270173902      0.094483887521
    2      0.006349842646     -0.005466252094     -0.080195327582
    3      0.015532913340     -0.019909597715     -0.006581503290
    4      0.014128478382      0.006246362795      0.023922543974
    5      0.005277799893     -0.001890949441     -0.004568689729
    6     -0.010849605607      0.003750262553     -0.027060910894

Maximal derivative component:        0.944839E-01 au


