     6
  Step:   120            Position(A)                                  Velocity(au)
C        -0.04123415    -0.01817877    -0.16721293     0.00003043     0.00001846     0.00035938
N        -0.05584380    -0.13129092     1.46670940    -0.00008014    -0.00003775    -0.00027039
H         0.84760151     0.57733726    -0.49077842    -0.00052247     0.00125901     0.00076793
H         0.86247514     0.03710227     1.95872190     0.00014685    -0.00092044    -0.00005955
H        -0.67127499     0.66347538     1.75429784     0.00139661     0.00133458    -0.00112652
H        -0.98435835     0.09337784    -0.71958405    -0.00026988    -0.00136862    -0.00010689
