 Fermi distribution function

Calculation with static geometry


********************************************************************************
 iSCC Total electronic   Diff electronic      SCC error    
   13   -0.52679939E+01   -0.12664536E-10    0.22507445E-06
********************************************************************************

 Total charge:     1.00000000

 Atomic gross charges (e)
 Atom           Charge
    1       0.30407769
    2      -0.20058416
    3       0.18065436
    4       0.26208117
    5       0.27035835
    6       0.18341260

Nr. of electrons (up):     12.00000000
Atom populations (up)
 Atom       Population
    1       3.69592231
    2       5.20058416
    3       0.81934564
    4       0.73791883
    5       0.72964165
    6       0.81658740

l-shell populations (up)
 Atom Sh.   l       Population
    1   1   0       1.41456741
    1   2   1       2.28135490
    2   1   0       1.51751836
    2   2   1       3.68306580
    3   1   0       0.81934564
    4   1   0       0.73791883
    5   1   0       0.72964165
    6   1   0       0.81658740

Orbital populations (up)
 Atom Sh.   l   m       Population  Label
    1   1   0   0       1.41456741  s
    1   2   1  -1       0.43390122  p_y
    1   2   1   0       0.85638142  p_z
    1   2   1   1       0.99107227  p_x
    2   1   0   0       1.51751836  s
    2   2   1  -1       1.41070948  p_y
    2   2   1   0       1.05084931  p_z
    2   2   1   1       1.22150701  p_x
    3   1   0   0       0.81934564  s
    4   1   0   0       0.73791883  s
    5   1   0   0       0.72964165  s
    6   1   0   0       0.81658740  s

Fermi level:                        -0.5093253634 H          -13.8594 eV
Band energy:                        -8.6190195159 H         -234.5355 eV
TS:                                  0.0000000000 H            0.0000 eV
Band free energy (E-TS):            -8.6190195159 H         -234.5355 eV
Extrapolated E(0K):                 -8.6190195159 H         -234.5355 eV
Input / Output electrons (q):     12.0000000000     12.0000000000

Energy H0:                          -5.4017968753 H         -146.9904 eV
Energy SCC:                          0.1338029979 H            3.6410 eV
Total Electronic energy:            -5.2679938775 H         -143.3494 eV
Repulsive energy:                    0.1311372712 H            3.5684 eV
Total energy:                       -5.1368566063 H         -139.7810 eV
Extrapolated to 0:                  -5.1368566063 H         -139.7810 eV
Total Mermin free energy:           -5.1368566063 H         -139.7810 eV
Force related energy:               -5.1368566063 H         -139.7810 eV

SCC converged

Excitation Energy:                   0.1014088792 H            2.7595 eV

Total Forces
    1      0.011176940797      0.003893253091      0.035216043286
    2     -0.021659286872      0.012891352659     -0.035823495167
    3     -0.013463695825      0.002771342239      0.008366193742
    4      0.006896534664     -0.008549007112      0.002500955321
    5      0.016959997279     -0.001648319672     -0.009012189598
    6      0.000089509957     -0.009358621203     -0.001247507582

Maximal derivative component:        0.358235E-01 au


