|===============================================================================
|
|  DFTB+ release 20.1
|
|  Copyright (C) 2006 - 2020  DFTB+ developers group
|
|===============================================================================
|
|  When publishing results obtained with DFTB+, please cite the following
|  reference:
|
|  * DFTB+, a software package for efficient approximate density functional
|    theory based atomistic simulations, J. Chem. Phys. 152, 124101 (2020).
|    [doi: 10.1063/1.5143190]
|
|  You should also cite additional publications crediting the parametrization
|  data you use. Please consult the documentation of the SK-files for the
|  references.
|
|===============================================================================

Reading input file 'dftb_in.hsd'
Parser version: 8

--------------------------------------------------------------------------------
Reading SK-files:
Done.


Processed input in HSD format written to 'dftb_pin.hsd'

Starting initialization...
--------------------------------------------------------------------------------
OpenMP threads:              1
Chosen random seed:          500015740
Mode:                        Static calculation
Self consistent charges:     Yes
SCC-tolerance:                 0.100000E-05
Max. scc iterations:                   1000
Shell resolved Hubbard:      No
Spin polarisation:           No
Nr. of up electrons:            16.000000
Nr. of down electrons:          16.000000
Periodic boundaries:         No
Electronic solver:           Relatively robust
Maximal SCC-cycles:                    1000
Initial charges:             Set automatically (system chrg:   0.100E+01)
Included shells:             C:  s, p
                             H:  s
                             N:  s, p
Spin coupling constants:     C   1(s)-1(s):  -0.455900E-01
                             C   1(s)-2(p):  -0.293000E-01
                             C   2(p)-1(s):  -0.293000E-01
                             C   2(p)-2(p):  -0.275500E-01
                             H   1(s)-1(s):  -0.792500E-01
                             N   1(s)-1(s):  -0.468700E-01
                             N   1(s)-2(p):  -0.317000E-01
                             N   2(p)-1(s):  -0.317000E-01
                             N   2(p)-2(p):  -0.307200E-01
Range separated hybrid:      Yes
  Screening parameter omega:   0.300000E+00
  Range separated algorithm:   MatrixBased
Extra options:
                             Mulliken analysis
                             Force calculation
Force type                   original
                             Eigenvector printing


REKS Calcuation:             Yes
SSR(2,2) Calcuation:         Yes
Energy Functional:           (PPS+OSS)/2
Number of Core Orbitals:                 15
Number of Active Orbitals:                2
Number of Basis:                         32
Number of States:                         2
State-Averaging Weight:          0.500000
                                 0.500000
State of Interest:                        1
Initial Guess:               Diagonalize H0 matrix
Newton-Raphson for FON opt:  Yes
NR max. Iterations:                      50
Level Shifting:              Yes
Shift Value:                     0.300000
W Scale Factor:              C  =    3.200000
                             H  =    3.200000
                             N  =    3.200000
Transition Dipole:           No
Gradient of Microstate:      No
CP-REKS Solver:              Preconditioned Conjugate-Gradient
CG max. Iterations:                     100
CG Tolerance:                  0.100000E-07
Memory for A and Hxc:        Direct Updating Without Saving
Non-Adiabatic Coupling:      Yes

--------------------------------------------------------------------------------

***  Geometry step: 0

  iSCC       reks energy        Diff energy         x_a       SCC error   
    1      -16.4054985929       0.0000000000     0.999339    1.19378170
    2      -16.4165140022      -0.0110154093     0.999846    0.04031293
    3      -16.4189427473      -0.0024287451     0.999924    0.01420247
    4      -16.4198095522      -0.0008668049     0.999951    0.00854515
    5      -16.4201913251      -0.0003817729     0.999964    0.00551632
    6      -16.4203816184      -0.0001902933     0.999970    0.00371624
    7      -16.4204848458      -0.0001032274     0.999974    0.00257951
    8      -16.4205448471      -0.0000600014     0.999977    0.00195461
    9      -16.4205820154      -0.0000371682     0.999978    0.00155094
   10      -16.4206064679      -0.0000244525     0.999979    0.00124477
   11      -16.4206234609      -0.0000169930     0.999980    0.00101095
   12      -16.4206358360      -0.0000123751     0.999980    0.00085601
   13      -16.4206451931      -0.0000093571     0.999980    0.00077358
   14      -16.4206524731      -0.0000072800     0.999981    0.00070053
   15      -16.4206582567      -0.0000057836     0.999981    0.00063573
   16      -16.4206629206      -0.0000046639     0.999981    0.00057811
   17      -16.4206667213      -0.0000038007     0.999981    0.00052673
   18      -16.4206698416      -0.0000031203     0.999981    0.00048076
   19      -16.4206724167      -0.0000025751     0.999981    0.00043949
   20      -16.4206745499      -0.0000021332     0.999981    0.00040233
   21      -16.4206763218      -0.0000017719     0.999981    0.00036877
   22      -16.4206777965      -0.0000014748     0.999981    0.00033836
   23      -16.4206790259      -0.0000012294     0.999981    0.00031074
   24      -16.4206800519      -0.0000010260     0.999981    0.00028560
   25      -16.4206809091      -0.0000008572     0.999981    0.00026267
   26      -16.4206816259      -0.0000007167     0.999980    0.00024172
   27      -16.4206822256      -0.0000005997     0.999980    0.00022256
   28      -16.4206827277      -0.0000005021     0.999980    0.00020499
   29      -16.4206831484      -0.0000004207     0.999980    0.00018888
   30      -16.4206835010      -0.0000003526     0.999980    0.00017410
   31      -16.4206837968      -0.0000002958     0.999980    0.00016051
   32      -16.4206840450      -0.0000002482     0.999980    0.00014802
   33      -16.4206842533      -0.0000002084     0.999980    0.00013652
   34      -16.4206844284      -0.0000001750     0.999980    0.00012595
   35      -16.4206845755      -0.0000001471     0.999980    0.00011621
   36      -16.4206846992      -0.0000001237     0.999980    0.00010724
   37      -16.4206848033      -0.0000001041     0.999980    0.00009897
   38      -16.4206848909      -0.0000000876     0.999980    0.00009136
   39      -16.4206849647      -0.0000000738     0.999980    0.00008434
   40      -16.4206850269      -0.0000000622     0.999980    0.00007787
   41      -16.4206850793      -0.0000000524     0.999980    0.00007190
   42      -16.4206851235      -0.0000000442     0.999980    0.00006640
   43      -16.4206851609      -0.0000000373     0.999980    0.00006132
   44      -16.4206851924      -0.0000000315     0.999980    0.00005664
   45      -16.4206852191      -0.0000000267     0.999980    0.00005232
   46      -16.4206852416      -0.0000000225     0.999980    0.00004833
   47      -16.4206852607      -0.0000000191     0.999980    0.00004466
   48      -16.4206852769      -0.0000000162     0.999980    0.00004126
   49      -16.4206852906      -0.0000000137     0.999980    0.00003813
   50      -16.4206853022      -0.0000000116     0.999980    0.00003524
   51      -16.4206853120      -0.0000000098     0.999980    0.00003257
   52      -16.4206853204      -0.0000000084     0.999980    0.00003011
   53      -16.4206853274      -0.0000000071     0.999980    0.00002784
   54      -16.4206853335      -0.0000000060     0.999980    0.00002574
   55      -16.4206853386      -0.0000000051     0.999980    0.00002380
   56      -16.4206853430      -0.0000000044     0.999980    0.00002201
   57      -16.4206853467      -0.0000000037     0.999980    0.00002036
   58      -16.4206853498      -0.0000000032     0.999980    0.00001883
   59      -16.4206853525      -0.0000000027     0.999980    0.00001742
   60      -16.4206853548      -0.0000000023     0.999980    0.00001612
   61      -16.4206853568      -0.0000000020     0.999980    0.00001491
   62      -16.4206853585      -0.0000000017     0.999980    0.00001380
   63      -16.4206853599      -0.0000000014     0.999980    0.00001277
   64      -16.4206853611      -0.0000000012     0.999980    0.00001182
   65      -16.4206853622      -0.0000000010     0.999980    0.00001094
   66      -16.4206853631      -0.0000000009     0.999980    0.00001013
   67      -16.4206853638      -0.0000000008     0.999980    0.00000938
   68      -16.4206853645      -0.0000000007     0.999980    0.00000869
   69      -16.4206853650      -0.0000000006     0.999980    0.00000805
   70      -16.4206853655      -0.0000000005     0.999980    0.00000745
   71      -16.4206853659      -0.0000000004     0.999980    0.00000690
   72      -16.4206853663      -0.0000000004     0.999980    0.00000640
   73      -16.4206853666      -0.0000000003     0.999980    0.00000593
   74      -16.4206853669      -0.0000000003     0.999980    0.00000549
   75      -16.4206853671      -0.0000000002     0.999980    0.00000509
   76      -16.4206853673      -0.0000000002     0.999980    0.00000472
   77      -16.4206853675      -0.0000000002     0.999980    0.00000437
   78      -16.4206853676      -0.0000000001     0.999980    0.00000405
   79      -16.4206853677      -0.0000000001     0.999980    0.00000376
   80      -16.4206853678      -0.0000000001     0.999980    0.00000348
   81      -16.4206853679      -0.0000000001     0.999980    0.00000323
   82      -16.4206853680      -0.0000000001     0.999980    0.00000300
   83      -16.4206853681      -0.0000000001     0.999980    0.00000278
   84      -16.4206853681      -0.0000000001     0.999980    0.00000258
   85      -16.4206853682      -0.0000000001     0.999980    0.00000239
   86      -16.4206853682      -0.0000000000     0.999980    0.00000222
   87      -16.4206853683      -0.0000000000     0.999980    0.00000206
   88      -16.4206853683      -0.0000000000     0.999980    0.00000191
   89      -16.4206853683      -0.0000000000     0.999980    0.00000177
   90      -16.4206853683      -0.0000000000     0.999980    0.00000165
   91      -16.4206853684      -0.0000000000     0.999980    0.00000153
   92      -16.4206853684      -0.0000000000     0.999980    0.00000142
   93      -16.4206853684      -0.0000000000     0.999980    0.00000132
   94      -16.4206853684      -0.0000000000     0.999980    0.00000122
   95      -16.4206853684      -0.0000000000     0.999980    0.00000114
   96      -16.4206853684      -0.0000000000     0.999980    0.00000105
   97      -16.4206853684      -0.0000000000     0.999980    0.00000098
  
--------------------------------------------------
 Final SA-REKS(2,2) energy:     -16.42068537
  
 State     Energy      FON(1)    FON(2)   Spin
  PPS  -16.47391005   1.999960  0.000040  0.00
  OSS  -16.36746068   1.000000  1.000000  0.00
 Trip  -16.40270061   1.000000  1.000000  1.00
--------------------------------------------------

 Lagrangian Wab:  -0.00970058 -0.00970114

--------------------------------------------------
 SSR: 2SI-2SA-REKS(2,2) Hamiltonian matrix
               PPS           OSS
   PPS   -16.47391005   -0.01365748
   OSS    -0.01365748  -16.36746068
--------------------------------------------------

----------------------------------------------------------------
 SSR: 2SI-2SA-REKS(2,2) states
                    E_n       C_{PPS}    C_{OSS}
 SSR state  1  -16.47563438  -0.992124  -0.125261
 SSR state  2  -16.36573636   0.125261  -0.992124
----------------------------------------------------------------

 unrelaxed SSR FONs for S0:  1.984271  0.015729

Total Energy:                      -16.4756343793 H         -448.3248 eV
Extrapolated to 0:                 -16.4756343793 H         -448.3248 eV

----------------------------------------------------------------------------------
 Solving CP-REKS equation for  1 state vector...
----------------------------------------------------------------------------------
  CG solver: Constructing Y initial guess
  CG solver: Iteration    1    eps =    0.001111473223
  CG solver: Iteration    2    eps =    0.000306319024
  CG solver: Iteration    3    eps =    0.000232384219
  CG solver: Iteration    4    eps =    0.000034883203
  CG solver: Iteration    5    eps =    0.000007533704
  CG solver: Iteration    6    eps =    0.000003535372
  CG solver: Iteration    7    eps =    0.000000229563
  CG solver: Iteration    8    eps =    0.000000043395
  CG solver: Iteration    9    eps =    0.000000017195
  CG solver: Iteration   10    eps =    0.000000004566
  Convergence reached in CG solver after   10 iterations
  CG solver: Calculating converged R, Z, Q2 matrix
----------------------------------------------------------------------------------

----------------------------------------------------------------------------------
 Solving CP-REKS equation for SI between  1 and  2 state vectors...
----------------------------------------------------------------------------------
  CG solver: Constructing Y initial guess
  CG solver: Iteration    1    eps =    0.035149740437
  CG solver: Iteration    2    eps =    0.010124335355
  CG solver: Iteration    3    eps =    0.006069878343
  CG solver: Iteration    4    eps =    0.000981271965
  CG solver: Iteration    5    eps =    0.000234321623
  CG solver: Iteration    6    eps =    0.000072986579
  CG solver: Iteration    7    eps =    0.000009642557
  CG solver: Iteration    8    eps =    0.000003676972
  CG solver: Iteration    9    eps =    0.000001843105
  CG solver: Iteration   10    eps =    0.000000126890
  CG solver: Iteration   11    eps =    0.000000016102
  CG solver: Iteration   12    eps =    0.000000004860
  Convergence reached in CG solver after   12 iterations
  CG solver: Calculating converged R, Z, Q2 matrix
----------------------------------------------------------------------------------

--------------------------------------------------
 Gradient Information
--------------------------------------------------
           1 st state (SSR)
     0.00694269     0.00173862     0.00415944
     0.01437012     0.02163870     0.00526669
    -0.00456620     0.02270962    -0.01099393
    -0.00533460    -0.03343110    -0.00240080
    -0.01697946    -0.00874876    -0.00639987
     0.01334482    -0.02370310     0.01058630
    -0.03005315    -0.00839866     0.04448164
    -0.02894438     0.02106589    -0.02939737
    -0.01722103     0.00041865    -0.03218613
    -0.02083314     0.02508070     0.03793412
    -0.00011528    -0.00917058    -0.03596745
     0.04582436     0.00106544     0.03078783
     0.01099420     0.01539649     0.00817849
     0.03257104    -0.02566190    -0.02404898

           2 st state (SSR)
     0.01234699     0.01277314    -0.01938259
     0.00584793     0.00646675     0.02529650
     0.00150345     0.01952085    -0.00814669
    -0.00968115    -0.03075633    -0.00564326
    -0.00933210    -0.00938744    -0.00518019
     0.03145610    -0.00900077     0.01806899
    -0.05489110    -0.02558158     0.03231823
    -0.02951937     0.02513571    -0.02653111
    -0.01623938    -0.00485797    -0.03429428
     0.03699740     0.02108797     0.03950624
     0.00031281     0.00864902    -0.02743639
    -0.01420917    -0.00665976     0.02819326
     0.01167979     0.00282805     0.01257693
     0.03372781    -0.01021764    -0.02934562
--------------------------------------------------
 Coupling Information
--------------------------------------------------
 between  1 and  2 states
--------------------------------------------------
 g vector - difference gradient
     0.00036876    -0.00323225     0.00387065
     0.00220126     0.00565573    -0.00133466
    -0.00073092     0.00031680    -0.00052750
     0.00028569    -0.00011185     0.00038371
    -0.00184770     0.00024455    -0.00029928
    -0.02006327    -0.01125196    -0.00474139
     0.02258958     0.01494821     0.01425663
     0.00178916    -0.00187139    -0.00186688
     0.00034037     0.00176747     0.00104303
    -0.04855784     0.00447940    -0.00781162
     0.00108351    -0.01504659    -0.00717368
     0.04092049     0.00662499     0.00332346
     0.00093748     0.01142336    -0.00205851
     0.00068342    -0.01394645     0.00293605

 h vector - derivative coupling
    -0.01230884    -0.00960152     0.03227474
     0.00856539     0.00848013    -0.03509229
    -0.00936173     0.00518020    -0.00367202
     0.00763052    -0.00494489     0.00502745
    -0.00818337     0.00033178    -0.00128726
     0.04175463     0.01427370     0.00342492
    -0.03806801    -0.02368823    -0.03109071
    -0.00581587    -0.00089414     0.00150944
    -0.00330122     0.00372683     0.00017611
     0.07289853    -0.00942462     0.02728011
    -0.00508372     0.02279084     0.01079485
    -0.03870327    -0.01027765    -0.00773241
    -0.00503266    -0.01923437    -0.00082599
    -0.00499039     0.02328192    -0.00078695

 G vector - GDV
    -0.00270215    -0.00551726     0.01177102
     0.00426110     0.00758598    -0.01001490
    -0.00303482     0.00159438    -0.00142362
     0.00217327    -0.00133739     0.00162123
    -0.00382368     0.00031934    -0.00060984
    -0.00905564    -0.00735117    -0.00374134
     0.01241898     0.00859146     0.00608171
     0.00028750    -0.00203491    -0.00143313
    -0.00049082     0.00263831     0.00105408
    -0.02891527     0.00199636    -0.00078606
    -0.00021404    -0.00890980    -0.00426553
     0.03001676     0.00386260     0.00129729
    -0.00034280     0.00628422    -0.00219922
    -0.00057838    -0.00772213     0.00264832

 H vector - DCV - non-adiabatic coupling
    -0.10932169    -0.07731572     0.27570927
     0.07051526     0.06195103    -0.30627805
    -0.08085934     0.04494079    -0.03117145
     0.06660774    -0.04333033     0.04344319
    -0.06794784     0.00237121    -0.01066876
     0.41339273     0.15125333     0.04090983
    -0.38661317    -0.24259069    -0.30627059
    -0.05530635    -0.00364835     0.01752613
    -0.02986612     0.02885018    -0.00080673
     0.75233296    -0.09319746     0.25810847
    -0.04725735     0.23490375     0.11136790
    -0.43366980    -0.10556840    -0.07566835
    -0.04647706    -0.19536329    -0.00262457
    -0.04552997     0.23674395    -0.01357629
--------------------------------------------------


--------------------------------------------------------------------------------
DFTB+ running times                          cpu [s]             wall clock [s]
--------------------------------------------------------------------------------
SCC                                    +     0.14  ( 30.3%)      0.14  ( 30.5%)
      Dense to sparse                        0.03  (  5.8%)      0.02  (  4.5%)
      Range separated Hamiltonian            0.01  (  2.7%)      0.01  (  2.8%)
  Density matrix creation                    0.02  (  3.3%)      0.01  (  3.0%)
Post-SCC processing                    +     0.32  ( 69.3%)      0.32  ( 68.5%)
  Force calculation                          0.32  ( 69.3%)      0.32  ( 68.2%)
--------------------------------------------------------------------------------
Missing                                +     0.00  (  0.3%)      0.00  (  1.1%)
Total                                  =     0.46  (100.0%)      0.47  (100.0%)
--------------------------------------------------------------------------------
