    14
  Step:     0            Position(A)                                  Velocity(au)
C        -6.00538588    -0.80965677    -0.22561095     0.00014755     0.00019652     0.00015724
C        -4.68901817    -0.69301763     0.21223606    -0.00046791    -0.00040002    -0.00006575
H        -6.39098329     0.06367441    -0.65868680     0.00112766    -0.00037541     0.00002941
H        -6.60507083    -1.73985990    -0.12832700    -0.00010063     0.00048084    -0.00094852
H        -4.18613571    -1.57752198     0.65999437     0.00009975     0.00035220     0.00029914
C        -3.93014227     0.51096380     0.01500512    -0.00001359    -0.00008047    -0.00006705
C        -2.57289228     0.49046566     0.29659295     0.00043504     0.00026176    -0.00015030
H        -4.42162113     1.33777238    -0.45616146     0.00048085     0.00087625    -0.00048110
H        -2.13566110    -0.38081624     0.71058649    -0.00031342    -0.00117326     0.00072122
C        -1.80229042     1.62416714    -0.08836408    -0.00036456     0.00000599     0.00042471
H        -2.33093674     2.42418986    -0.74528347    -0.00103764    -0.00048822    -0.00095472
N        -0.53519513     1.82705762     0.18783484     0.00020608    -0.00003646    -0.00023522
H        -0.07314439     2.62347812    -0.11344027     0.00013655     0.00073664    -0.00012201
H         0.00930094     1.11972376     0.63417990    -0.00011731     0.00029096     0.00116423
    14
  Step:     1            Position(A)                                  Velocity(au)
C        -6.00370743    -0.80763611    -0.22381443     0.00015722     0.00017098     0.00017058
C        -4.69410946    -0.69743871     0.21151702    -0.00045774    -0.00040461    -0.00006476
H        -6.38006775     0.06080326    -0.65932720     0.00085549    -0.00012262    -0.00015921
H        -6.60572941    -1.73376849    -0.13876794    -0.00002468     0.00062383    -0.00095634
H        -4.18528147    -1.57295540     0.66306175     0.00005588     0.00047164     0.00026358
C        -3.93068767     0.50985022     0.01426143    -0.00008766    -0.00012229    -0.00007011
C        -2.56779021     0.49357401     0.29490642     0.00049654     0.00029942    -0.00015486
H        -4.41649352     1.34817532    -0.46163693     0.00046616     0.00099549    -0.00050558
H        -2.13841536    -0.39456322     0.71924420    -0.00020795    -0.00128504     0.00083645
C        -1.80665400     1.62425586    -0.08388841    -0.00042879     0.00001240     0.00039274
H        -2.34119750     2.41742923    -0.75412192    -0.00082914    -0.00074974    -0.00065006
N        -0.53282440     1.82656108     0.18534590     0.00022708    -0.00005198    -0.00022144
H        -0.07023774     2.63386177    -0.11566910     0.00036774     0.00111357    -0.00026601
H         0.00859313     1.12233526     0.64745372    -0.00002086     0.00020086     0.00125449
    14
  Step:     2            Position(A)                                  Velocity(au)
C        -6.00194633    -0.80591622    -0.22187922     0.00016194     0.00014358     0.00018168
C        -4.69903217    -0.70186928     0.21081921    -0.00043724    -0.00040145    -0.00006202
H        -6.37226787     0.06099193    -0.66216973     0.00056822     0.00016426    -0.00036286
H        -6.60561079    -1.72621238    -0.14924867     0.00003831     0.00074334    -0.00095536
H        -4.18491330    -1.56720388     0.66576072     0.00001314     0.00056530     0.00023363
C        -3.93205992     0.50828840     0.01347124    -0.00016461    -0.00016226    -0.00007562
C        -2.56202942     0.49701607     0.29320512     0.00055521     0.00032259    -0.00015291
H        -4.41142308     1.35955074    -0.46722206     0.00046990     0.00105239    -0.00050050
H        -2.14021045    -0.40892906     0.72888534    -0.00013676    -0.00128608     0.00090080
C        -1.81167095     1.62443832    -0.07977219    -0.00048301     0.00002266     0.00035957
H        -2.34907573     2.40778780    -0.75950472    -0.00060819    -0.00100657    -0.00032984
N        -0.53022739     1.82592041     0.18299039     0.00024820    -0.00006177    -0.00021108
H        -0.06509936     2.64783956    -0.11925985     0.00053375     0.00137368    -0.00036395
H         0.00884456     1.12411801     0.66162422     0.00005417     0.00014439     0.00132418
    14
  Step:     3            Position(A)                                  Velocity(au)
C        -6.00016470    -0.80449498    -0.21983989     0.00016035     0.00011846     0.00018869
C        -4.70367492    -0.70622130     0.21016012    -0.00040690    -0.00039014    -0.00005785
H        -6.36763684     0.06439668    -0.66726555     0.00028635     0.00044463    -0.00056003
H        -6.60489123    -1.71750650    -0.15966834     0.00008228     0.00082935    -0.00094497
H        -4.18499410    -1.56058827     0.66817296    -0.00002413     0.00062677     0.00021279
C        -3.93428880     0.50630057     0.01260715    -0.00024373    -0.00020009    -0.00008353
C        -2.55564385     0.50063126     0.29156124     0.00061014     0.00033129    -0.00014452
H        -4.40621348     1.37119847    -0.47258634     0.00048979     0.00104614    -0.00046595
H        -2.14140731    -0.42269877     0.73895088    -0.00009516    -0.00118104     0.00091631
C        -1.81722066     1.62475162    -0.07602220    -0.00052540     0.00003589     0.00032630
H        -2.35450282     2.39540865    -0.76133781    -0.00038707    -0.00124224    -0.00000822
N        -0.52739457     1.82520971     0.18072803     0.00027047    -0.00006448    -0.00020435
H        -0.05856099     2.66391374    -0.12363126     0.00062031     0.00148961    -0.00040662
H         0.00977818     1.12549402     0.67642264     0.00010165     0.00012912     0.00136652
    14
  Step:     4            Position(A)                                  Velocity(au)
C        -5.99843826    -0.80332464    -0.21775117     0.00015146     0.00009942     0.00018997
C        -4.70793397    -0.71040428     0.20955365    -0.00036767    -0.00037070    -0.00005257
H        -6.36600332     0.07071902    -0.67442146     0.00002873     0.00068030    -0.00072970
H        -6.60381073    -1.70806873    -0.16992180     0.00010201     0.00087355    -0.00092503
H        -4.18544126    -1.55349203     0.67041593    -0.00005213     0.00065129     0.00020400
C        -3.93739198     0.50391100     0.01164384    -0.00032340    -0.00023559    -0.00009351
C        -2.54868144     0.50426371     0.29004354     0.00065964     0.00032615    -0.00013017
H        -4.40070804     1.38243702    -0.47741563     0.00052128     0.00098041    -0.00040457
H        -2.14229236    -0.43476658     0.74893133    -0.00007538    -0.00098323     0.00088898
C        -1.82316512     1.62522342    -0.07263376    -0.00055453     0.00005127     0.00029397
H        -2.35754365     2.38061145    -0.75968458    -0.00017814    -0.00144052     0.00029973
N        -0.52431044     1.82450986     0.17851985     0.00029399    -0.00006009    -0.00020090
H        -0.05152884     2.68042754    -0.12815534     0.00062692     0.00145808    -0.00039388
H         0.01106838     1.12694277     0.69151947     0.00011899     0.00015786     0.00137752
    14
  Step:     5            Position(A)                                  Velocity(au)
C        -5.99685127    -0.80231994    -0.21568396     0.00013479     0.00008922     0.00018436
C        -4.71171831    -0.71433115     0.20901005    -0.00032090    -0.00034374    -0.00004650
H        -6.36700833     0.07927960    -0.68322908    -0.00019040     0.00084286    -0.00085535
H        -6.60265956    -1.69839587    -0.17990512     0.00009382     0.00087039    -0.00089587
H        -4.18613447    -1.54634013     0.67263582    -0.00006804     0.00063628     0.00020930
C        -3.94136380     0.50114658     0.01056134    -0.00040106    -0.00026845    -0.00010497
C        -2.54121307     0.50776631     0.28871345     0.00070130     0.00030797    -0.00011064
H        -4.39480941     1.39264692    -0.48143702     0.00055852     0.00086227    -0.00032084
H        -2.14305649    -0.44420877     0.75839891    -0.00006865    -0.00071064     0.00082680
C        -1.82935208     1.62587325    -0.06959104    -0.00056913     0.00006810     0.00026363
H        -2.35839996     2.36389443    -0.75478061     0.00000570    -0.00158474     0.00057732
N        -0.52096307     1.82389507     0.17633304     0.00031810    -0.00004961    -0.00020006
H        -0.04484593     2.69581199    -0.13224808     0.00056338     0.00129477    -0.00033243
H         0.01238142     1.12894759     0.70655847     0.00010708     0.00022878     0.00135629
    14
  Step:     6            Position(A)                                  Velocity(au)
C        -5.99548956    -0.80137287    -0.21371800     0.00011048     0.00008917     0.00017142
C        -4.71495419    -0.71792414     0.20853645    -0.00026830    -0.00031030    -0.00003989
H        -6.37016865     0.08915826    -0.69313378    -0.00036276     0.00091735    -0.00092726
H        -6.60175814    -1.68902735    -0.18952057     0.00005628     0.00081804    -0.00085823
H        -4.18692975    -1.53957218     0.67499475    -0.00007053     0.00058188     0.00022940
C        -3.94616594     0.49803807     0.00934742    -0.00047359    -0.00029830    -0.00011714
C        -2.53333916     0.51100121     0.28762308     0.00073241     0.00027765    -0.00008681
H        -4.38848945     1.40130082    -0.48443465     0.00059511     0.00070091    -0.00022037
H        -2.14379429    -0.45031324     0.76701917    -0.00006650    -0.00038312     0.00073844
C        -1.83561591     1.62671329    -0.06686639    -0.00056800     0.00008568     0.00023643
H        -2.35741898     2.34594217    -0.74705455     0.00015072    -0.00165747     0.00080594
N        -0.51735138     1.82342445     0.17414314     0.00034162    -0.00003457    -0.00020109
H        -0.03920389     2.70875306    -0.13542778     0.00044538     0.00102682    -0.00023285
H         0.01341105     1.13194785     0.72119102     0.00006974     0.00033614     0.00130500
    14
  Step:     7            Position(A)                                  Velocity(au)
C        -5.99443423    -0.80036911    -0.21193383     0.00007916     0.00009916     0.00015140
C        -4.71758799    -0.72111963     0.20813749    -0.00021171    -0.00027181    -0.00003292
H        -6.37494445     0.09934832    -0.70351466    -0.00048595     0.00090198    -0.00094285
H        -6.60142831    -1.68049967    -0.19868061    -0.00000914     0.00071928    -0.00081313
H        -4.18767736    -1.53361029     0.67765444    -0.00006005     0.00049123     0.00026336
C        -3.95172440     0.49462062     0.00799857    -0.00053792    -0.00032483    -0.00012926
C        -2.52519010     0.51384048     0.28681438     0.00075055     0.00023621    -0.00005960
H        -4.38179027     1.40798064    -0.48625807     0.00062477     0.00050689    -0.00010929
H        -2.14451131    -0.45259028     0.77455365    -0.00006133    -0.00002081     0.00063264
C        -1.84177811     1.62774761    -0.06441865    -0.00055004     0.00010314     0.00021369
H        -2.35510269     2.32763403    -0.73714907     0.00024270    -0.00164109     0.00096577
N        -0.51348946     1.82313887     0.17193383     0.00036305    -0.00001663    -0.00020330
H        -0.03510239     2.71827573    -0.13734206     0.00029096     0.00068665    -0.00010730
H         0.01390709     1.13630137     0.73510794     0.00001295     0.00047132     0.00122839
    14
  Step:     8            Position(A)                                  Velocity(au)
C        -5.99375770    -0.79920365    -0.21040578     0.00004168     0.00011779     0.00012509
C        -4.71958573    -0.72387040     0.20781634    -0.00015285    -0.00022981    -0.00002568
H        -6.38079972     0.10889077    -0.71376039    -0.00056214     0.00080507    -0.00090529
H        -6.60195811    -1.67329166    -0.20730945    -0.00009754     0.00058186    -0.00076166
H        -4.18824350    -1.52882562     0.68075632    -0.00003903     0.00037049     0.00030845
C        -3.95793402     0.49093180     0.00651954    -0.00059161    -0.00034793    -0.00014062
C        -2.51691937     0.51616879     0.28631916     0.00075412     0.00018503    -0.00002997
H        -4.37482140     1.41238992    -0.48682559     0.00064163     0.00029166     0.00000603
H        -2.14513599    -0.45076846     0.78085943    -0.00004657     0.00035638     0.00051818
C        -1.84764906     1.62896963    -0.06219159    -0.00051453     0.00011942     0.00019673
H        -2.35210946     2.31004015    -0.72592650     0.00026837    -0.00151982     0.00103799
N        -0.50940888     1.82306062     0.16969550     0.00038082     0.00000254    -0.00020616
H        -0.03283853     2.72377492    -0.13777521     0.00011846     0.00030820     0.00003182
H         0.01369427     1.14225886     0.74806442    -0.00005592     0.00062385     0.00113324
    14
  Step:     9            Position(A)                                  Velocity(au)
C        -5.99352230    -0.79779215    -0.20919727    -0.00000103     0.00014286     0.00009360
C        -4.72093180    -0.72614714     0.20757576    -0.00009329    -0.00018598    -0.00001816
H        -6.38724233     0.11696072    -0.72331962    -0.00059648     0.00064105    -0.00082156
H        -6.60356218    -1.66777035    -0.21534334    -0.00020072     0.00041799    -0.00070477
H        -4.18853120    -1.52550518     0.68440227    -0.00001164     0.00022855     0.00036025
C        -3.96466701     0.48700890     0.00492228    -0.00063298    -0.00036777    -0.00015060
C        -2.50869232     0.51788835     0.28615883     0.00074250     0.00012598     0.00000112
H        -4.36775348     1.41436128    -0.48612618     0.00064048     0.00006724     0.00011916
H        -2.14553015    -0.44479387     0.78588983    -0.00001648     0.00072841     0.00040406
C        -1.85303433     1.63036010    -0.06011472    -0.00046145     0.00013347     0.00018663
H        -2.34923152     2.29438512    -0.71444106     0.00021842    -0.00128377     0.00100902
N        -0.50515822     1.82319453     0.16742364     0.00039342     0.00002139    -0.00020925
H        -0.03251084     2.72501813    -0.13664598    -0.00005426    -0.00007458     0.00017240
H         0.01268374     1.14994921     0.75989967    -0.00012878     0.00078236     0.00102780
    14
  Step:    10            Position(A)                                  Velocity(au)
C        -5.99378025    -0.79607823    -0.20835817    -0.00004807     0.00017168     0.00005821
C        -4.72162674    -0.72793903     0.20741911    -0.00003446    -0.00014201    -0.00001027
H        -6.39384878     0.12291494    -0.73173356    -0.00059572     0.00042715    -0.00070075
H        -6.60634933    -1.66414736    -0.22272757    -0.00030816     0.00024294    -0.00064310
H        -4.18849819    -1.52382570     0.68863754     0.00001663     0.00007616     0.00041312
C        -3.97178169     0.48288619     0.00322486    -0.00066108    -0.00038470    -0.00015869
C        -2.50067578     0.51892491     0.28634358     0.00071594     0.00006151     0.00003255
H        -4.36080971     1.41386094    -0.48421878     0.00061695    -0.00015408     0.00022379
H        -2.14549658    -0.43483302     0.78969913     0.00003412     0.00107479     0.00029988
C        -1.85774411     1.63188944    -0.05810878    -0.00039182     0.00014471     0.00018364
H        -2.34733104     2.28195512    -0.70385234     0.00009171    -0.00093459     0.00087637
N        -0.50080205     1.82352867     0.16511772     0.00039943     0.00003838    -0.00021224
H        -0.03402568     2.72214333    -0.13400363    -0.00020990    -0.00042784     0.00030266
H         0.01087687     1.15937441     0.77054961    -0.00019752     0.00093539     0.00092122
    14
  Step:    11            Position(A)                                  Velocity(au)
C        -5.99457397    -0.79403631    -0.20792385    -0.00009852     0.00020144     0.00002025
C        -4.72168572    -0.72925385     0.20735098     0.00002236    -0.00009956    -0.00000190
H        -6.40027478     0.12630537    -0.73864985    -0.00056737     0.00018127    -0.00055286
H        -6.61030374    -1.66245553    -0.22941244    -0.00040842     0.00007297    -0.00057700
H        -4.18816729    -1.52383906     0.69344007     0.00003981    -0.00007524     0.00046080
C        -3.97912945     0.47859280     0.00145058    -0.00067554    -0.00039928    -0.00016445
C        -2.49302974     0.51923394     0.28687094     0.00067533    -0.00000542     0.00006310
H        -4.35425643     1.41099059    -0.48123043     0.00056762    -0.00035996     0.00031385
H        -2.14478381    -0.42128074     0.79245036     0.00011014     0.00137408     0.00021608
C        -1.86160615     1.63352597    -0.05609729    -0.00030795     0.00015356     0.00018679
H        -2.34722510     2.27393921    -0.69526877    -0.00010069    -0.00049045     0.00065417
N        -0.49641988     1.82403422     0.16278039     0.00039756     0.00005193    -0.00021486
H        -0.03710285     2.71565828    -0.13002470    -0.00033169    -0.00071792     0.00041118
H         0.00836272     1.17041261     0.78005318    -0.00025452     0.00107217     0.00082284
    14
  Step:    12            Position(A)                                  Velocity(au)
C        -5.99593562    -0.79167127    -0.20791510    -0.00015138     0.00022950    -0.00001894
C        -4.72113748    -0.73011714     0.20737747     0.00007596    -0.00006018     0.00000707
H        -6.40626100     0.12688067    -0.74382837    -0.00051926    -0.00007888    -0.00038820
H        -6.61528422    -1.66255100    -0.23535049    -0.00049086    -0.00007696    -0.00050657
H        -4.18762717    -1.52547169     0.69871846     0.00005230    -0.00021479     0.00049726
C        -3.98656047     0.47415122    -0.00037276    -0.00067642    -0.00041213    -0.00016749
C        -2.48590157     0.51880638     0.28772397     0.00062198    -0.00007137     0.00009137
H        -4.34839198     1.40598615    -0.47735262     0.00049009    -0.00053848     0.00038378
H        -2.14308705    -0.40477239     0.79442630     0.00021637     0.00160416     0.00016398
C        -1.86448102     1.63524885    -0.05402240    -0.00021345     0.00016157     0.00019369
H        -2.34953384     2.27122559    -0.68954107    -0.00033429     0.00001268     0.00037468
N        -0.49210462     1.82466477     0.16041728     0.00038671     0.00006045    -0.00021684
H        -0.04128212     2.70643756    -0.12500833    -0.00040401    -0.00091244     0.00048731
H         0.00530876     1.18283007     0.78855082    -0.00029331     0.00118332     0.00074153
    14
  Step:    13            Position(A)                                  Velocity(au)
C        -5.99788578    -0.78901559    -0.20833822    -0.00020550     0.00025352    -0.00005806
C        -4.72002391    -0.73057032     0.20750571     0.00012514    -0.00002518     0.00001671
H        -6.41163449     0.12457964    -0.74714256    -0.00045937    -0.00033618    -0.00021719
H        -6.62104232    -1.66413920    -0.24049472    -0.00054716    -0.00019508    -0.00043192
H        -4.18702302    -1.52853800     0.70431865     0.00004972    -0.00033338     0.00051744
C        -3.99392741     0.46957660    -0.00221362    -0.00066407    -0.00042393    -0.00016752
C        -2.47942269     0.51767254     0.28886976     0.00055743    -0.00013271     0.00011587
H        -4.34353484     1.39921026    -0.47283462     0.00038313    -0.00067873     0.00042872
H        -2.14005039    -0.38618665     0.79603775     0.00035725     0.00174354     0.00015528
C        -1.86627570     1.63706053    -0.05185988    -0.00011289     0.00017114     0.00020093
H        -2.35453824     2.27421659    -0.68707195    -0.00057451     0.00052599     0.00008334
N        -0.48795987     1.82535670     0.15803669     0.00036610     0.00006251    -0.00021796
H        -0.04594126     2.69569699    -0.11936378    -0.00041389    -0.00098351     0.00052228
H         0.00194608     1.19630001     0.79627559    -0.00030904     0.00126159     0.00068490
    14
  Step:    14            Position(A)                                  Velocity(au)
C        -6.00043142    -0.78612505    -0.20918534    -0.00025954     0.00027158    -0.00009581
C        -4.71839980    -0.73066810     0.20774310     0.00016874     0.00000435     0.00002699
H        -6.41631069     0.11952609    -0.74857987    -0.00039592    -0.00057380    -0.00005039
H        -6.62725436    -1.66681879    -0.24479956    -0.00057221    -0.00027400    -0.00035328
H        -4.18653948    -1.53276494     0.71003847     0.00002945    -0.00042445     0.00051780
C        -4.00108830     0.46487685    -0.00403763    -0.00063909    -0.00043527    -0.00016435
C        -2.47370671     0.51590301     0.29025893     0.00048338    -0.00018595     0.00013519
H        -4.34001032     1.39113761    -0.46797363     0.00024685    -0.00077180     0.00044511
H        -2.13527155    -0.36662911     0.79782327     0.00053621     0.00177438     0.00020054
C        -1.86695061     1.63899295    -0.04962663    -0.00001108     0.00018478     0.00020493
H        -2.36210244     2.28273258    -0.68771789    -0.00078440     0.00099817    -0.00017187
N        -0.48409550     1.82603231     0.15564888     0.00033551     0.00005719    -0.00021815
H        -0.05033684     2.68492136    -0.11358251    -0.00035376    -0.00091329     0.00051091
H        -0.00145205     1.21042980     0.80353435    -0.00029912     0.00130259     0.00065832
    14
  Step:    15            Position(A)                                  Velocity(au)
C        -6.00356368    -0.78307419    -0.21043436    -0.00031196     0.00028217    -0.00013090
C        -4.71633248    -0.73047515     0.20809620     0.00020565     0.00002768     0.00003779
H        -6.42029609     0.11202672    -0.74824486    -0.00033741    -0.00077498     0.00010138
H        -6.63356043    -1.67013346    -0.24822348    -0.00056445    -0.00031099    -0.00027122
H        -4.18637880    -1.53782356     0.71564644    -0.00000914    -0.00048436     0.00049659
C        -4.00790872     0.46005431    -0.00580909    -0.00060226    -0.00044651    -0.00015794
C        -2.46884774     0.51360464     0.29182736     0.00040171    -0.00022822     0.00014821
H        -4.33813458     1.38232570    -0.46309708     0.00008297    -0.00081220     0.00043128
H        -2.12831986    -0.34736864     0.80042492     0.00075419     0.00168729     0.00030651
C        -1.86651804     1.64110305    -0.04737670     0.00008769     0.00020418     0.00020290
H        -2.37169839     2.29605337    -0.69083184    -0.00093327     0.00138694    -0.00035231
N        -0.48061999     1.82660779     0.15326430     0.00029555     0.00004453    -0.00021748
H        -0.05368034     2.67571708    -0.10818673    -0.00022461    -0.00070091     0.00045372
H        -0.00459769     1.22479676     0.81067766    -0.00026368     0.00130545     0.00066395
    14
  Step:    16            Position(A)                                  Velocity(au)
C        -6.00725614    -0.77995212    -0.21204912    -0.00036114     0.00028411    -0.00016207
C        -4.71390079    -0.73006255     0.20856983     0.00023490     0.00004437     0.00004891
H        -6.42369227     0.10257199    -0.74636199    -0.00029261    -0.00092311     0.00022716
H        -6.63960270    -1.67362226    -0.25073291    -0.00052550    -0.00030749    -0.00018661
H        -4.18673951    -1.54336124     0.72090233    -0.00006485    -0.00051234     0.00045390
C        -4.01426383     0.45510862    -0.00749296    -0.00055452    -0.00045771    -0.00014847
C        -2.46491851     0.51091016     0.29350135     0.00031451    -0.00025795     0.00015446
H        -4.33819524     1.37336918    -0.45853850    -0.00010497    -0.00079918     0.00038802
H        -2.11877217    -0.32971648     0.80452881     0.00100770     0.00148670     0.00047259
C        -1.86503229     1.64345987    -0.04518771     0.00018018     0.00022971     0.00019350
H        -2.38251946     2.31307459    -0.69542525    -0.00100271     0.00166671    -0.00043637
N        -0.47762980     1.82700640     0.15089113     0.00024789     0.00002593    -0.00021629
H        -0.05525065     2.66958756    -0.10365652    -0.00003872    -0.00036826     0.00035836
H        -0.00722052     1.23898912     0.81805963    -0.00020586     0.00127312     0.00069996
    14
  Step:    17            Position(A)                                  Velocity(au)
C        -6.01146421    -0.77685879    -0.21397984    -0.00040543     0.00027659    -0.00018811
C        -4.71119362    -0.72950449     0.20916620     0.00025566     0.00005427     0.00006009
H        -6.42669757     0.09183202    -0.74327530    -0.00027019    -0.00100244     0.00031637
H        -6.64505683    -1.67686040    -0.25230594    -0.00045956    -0.00026827    -0.00010067
H        -4.18779742    -1.54903206     0.72557633    -0.00013490    -0.00051021     0.00039144
C        -4.02003987     0.45004105    -0.00905725    -0.00049697    -0.00046848    -0.00013635
C        -2.46196720     0.50796151     0.29520655     0.00022425    -0.00027518     0.00015442
H        -4.34043094     1.36484208    -0.45460844    -0.00031148    -0.00073778     0.00031893
H        -2.10627440    -0.31484420     0.81076368     0.00128668     0.00119488     0.00068761
C        -1.86257635     1.64612835    -0.04314361     0.00026431     0.00026036     0.00017678
H        -2.39363451     2.33251579    -0.70037821    -0.00098760     0.00182980    -0.00042028
N        -0.47519698     1.82717510     0.14853252     0.00019526     0.00000423    -0.00021511
H        -0.05452733     2.66766076    -0.10034683     0.00018038     0.00003950     0.00023931
H        -0.00910117     1.25264860     0.82599071    -0.00013167     0.00121219     0.00076016
    14
  Step:    18            Position(A)                                  Velocity(au)
C        -6.01612577    -0.77390112    -0.21616441    -0.00044335     0.00025921    -0.00020803
C        -4.70830780    -0.72887530     0.20988447     0.00026731     0.00005749     0.00007105
H        -6.42960325     0.08064176    -0.73944088    -0.00027796    -0.00099962     0.00035977
H        -6.64965640    -1.67949124    -0.25293519    -0.00037266    -0.00020057    -0.00001479
H        -4.18969079    -1.55452312     0.72946590    -0.00021543    -0.00048193     0.00031231
C        -4.02513605     0.44485982    -0.01047581    -0.00043088    -0.00047794    -0.00012221
C        -2.46001260     0.50488997     0.29687960     0.00013382    -0.00028168     0.00014958
H        -4.34500952     1.35722891    -0.45156130    -0.00052920    -0.00063918     0.00023054
H        -2.09062358    -0.30357623     0.81957160     0.00157356     0.00085109     0.00092909
C        -1.85924993     1.64915584    -0.04132023     0.00033895     0.00029419     0.00015391
H        -2.40412504     2.35310497    -0.70461978    -0.00089329     0.00188265    -0.00031375
N        -0.47335822     1.82709897     0.14618516     0.00014116    -0.00001679    -0.00021448
H        -0.05130458     2.67045180    -0.09842112     0.00040142     0.00046100     0.00011522
H        -0.01010115     1.26550807     0.83468959    -0.00004951     0.00113221     0.00083428
    14
  Step:    19            Position(A)                                  Velocity(au)
C        -6.02116344    -0.77118804    -0.21853091    -0.00047369     0.00023211    -0.00022113
C        -4.70534562    -0.72824676     0.21072047     0.00026949     0.00005436     0.00008146
H        -6.43277842     0.06996345    -0.73540473    -0.00032152    -0.00090631     0.00035117
H        -6.65320948    -1.68124829    -0.25262947    -0.00027206    -0.00011324     0.00006954
H        -4.19251044    -1.55957525     0.73240863    -0.00030186    -0.00043310     0.00022058
C        -4.02946613     0.43958520    -0.01173077    -0.00035762    -0.00048483    -0.00010689
C        -2.45903962     0.50179928     0.29847890     0.00004641    -0.00028031     0.00014221
H        -4.35200816     1.35085881    -0.44956490    -0.00074918    -0.00051977     0.00013172
H        -2.07184978    -0.29622495     0.83108920     0.00184470     0.00050461     0.00116631
C        -1.85516111     1.65256435    -0.03977649     0.00040354     0.00032878     0.00012657
H        -2.41317684     2.37370229    -0.70724204    -0.00073131     0.00184008    -0.00013387
N        -0.47210886     1.82680770     0.14384039     0.00008934    -0.00003328    -0.00021471
H        -0.04574549     2.67774600    -0.09782620     0.00059205     0.00083204     0.00000465
H        -0.01018434     1.27741776     0.84424218     0.00003087     0.00104431     0.00090904
    14
  Step:    20            Position(A)                                  Velocity(au)
C        -6.02648857    -0.76882337    -0.22100215    -0.00049566     0.00019619    -0.00022723
C        -4.70241223    -0.72768598     0.21166662     0.00026203     0.00004540     0.00009103
H        -6.43663707     0.06081453    -0.73175836    -0.00040253    -0.00072253     0.00028959
H        -6.65560813    -1.68196853    -0.25141389    -0.00016562    -0.00001606     0.00015087
H        -4.19629464    -1.56399805     0.73429143    -0.00038933    -0.00037047     0.00012102
C        -4.03295967     0.43425314    -0.01281421    -0.00027868    -0.00048768    -0.00009132
C        -2.45899730     0.49875774     0.29999063    -0.00003481    -0.00027415     0.00013479
H        -4.36139925     1.34585788    -0.44867961    -0.00096158    -0.00039892     0.00003258
H        -2.05026733    -0.29253698     0.84508687     0.00207423     0.00020347     0.00136690
C        -1.85042181     1.65634850    -0.03855134     0.00045779     0.00036170     0.00009655
H        -2.42012392     2.39336019    -0.70754840    -0.00051569     0.00172034     0.00009987
N        -0.47140384     1.82637097     0.14148788     0.00004314    -0.00004220    -0.00021574