|===============================================================================
|
|  DFTB+ release 20.1
|
|  Copyright (C) 2006 - 2020  DFTB+ developers group
|
|===============================================================================
|
|  When publishing results obtained with DFTB+, please cite the following
|  reference:
|
|  * DFTB+, a software package for efficient approximate density functional
|    theory based atomistic simulations, J. Chem. Phys. 152, 124101 (2020).
|    [doi: 10.1063/1.5143190]
|
|  You should also cite additional publications crediting the parametrization
|  data you use. Please consult the documentation of the SK-files for the
|  references.
|
|===============================================================================

Reading input file 'dftb_in.hsd'
Parser version: 8

--------------------------------------------------------------------------------
Reading SK-files:
Done.


Processed input in HSD format written to 'dftb_pin.hsd'

Starting initialization...
--------------------------------------------------------------------------------
WARNING!
-> Excited state forces are not implemented yet for fractional occupations, kT=  0.3158E-02K
OpenMP threads:              1
Chosen random seed:          508853624
Mode:                        Static calculation
Self consistent charges:     Yes
SCC-tolerance:                 0.100000E-05
Max. scc iterations:                    100
Shell resolved Hubbard:      No
Spin polarisation:           No
Nr. of up electrons:             6.000000
Nr. of down electrons:           6.000000
Periodic boundaries:         No
Electronic solver:           Relatively robust
Mixer:                       Broyden mixer
Mixing parameter:                  0.200000
Maximal SCC-cycles:                     100
Nr. of chrg. vec. in memory:              0
Electronic temperature:        0.100000E-07 H      0.272114E-06 eV
Initial charges:             Set automatically (system chrg:   0.100E+01)
Included shells:             C:  s, p
                             N:  s, p
                             H:  s
Extra options:
                             Mulliken analysis
                             Force calculation
Force type                   original
                             Eigenvector printing

--------------------------------------------------------------------------------

***  Geometry step: 0

 iSCC Total electronic   Diff electronic      SCC error    
    1   -0.52058369E+01    0.00000000E+00    0.11127736E+01
    2   -0.52366552E+01   -0.30818350E-01    0.66080077E+00
    3   -0.52450562E+01   -0.84009833E-02    0.31818509E+00
    4   -0.46909283E+01    0.55412790E+00    0.23931769E+01
    5   -0.52472678E+01   -0.55633948E+00    0.17902376E+00
    6   -0.52507697E+01   -0.35018925E-02    0.73055018E-02
    7   -0.52507658E+01    0.38917433E-05    0.36490506E-02
    8   -0.52507622E+01    0.36145315E-05    0.85034748E-02
    9   -0.52507700E+01   -0.77840622E-05    0.13442040E-02
   10   -0.52507701E+01   -0.15952100E-06    0.25874213E-03
   11   -0.52507701E+01   -0.63457595E-08    0.11881861E-04
   12   -0.52507701E+01    0.83284490E-11    0.14359028E-04
   13   -0.52507701E+01   -0.18797408E-10    0.10534019E-05
   14   -0.52507701E+01   -0.10746959E-12    0.13287709E-08
>> Charges saved for restart in charges.bin

Total Energy:                       -5.0247354164 H         -136.7300 eV
Extrapolated to 0:                  -5.1214932421 H         -139.3629 eV
Total Mermin free energy:           -5.0247354164 H         -136.7300 eV
Force related energy:               -5.1214932421 H         -139.3629 eV

--------------------------------------------------------------------------------
DFTB+ running times                          cpu [s]             wall clock [s]
--------------------------------------------------------------------------------
SCC                                    +     0.02  ( 63.2%)      0.08  ( 76.0%)
Post-SCC processing                    +     0.01  ( 31.2%)      0.02  ( 20.0%)
--------------------------------------------------------------------------------
Missing                                +     0.00  (  5.6%)      0.00  (  4.0%)
Total                                  =     0.04  (100.0%)      0.10  (100.0%)
--------------------------------------------------------------------------------
