|===============================================================================
|
|  DFTB+ release 20.1
|
|  Copyright (C) 2006 - 2020  DFTB+ developers group
|
|===============================================================================
|
|  When publishing results obtained with DFTB+, please cite the following
|  reference:
|
|  * DFTB+, a software package for efficient approximate density functional
|    theory based atomistic simulations, J. Chem. Phys. 152, 124101 (2020).
|    [doi: 10.1063/1.5143190]
|
|  You should also cite additional publications crediting the parametrization
|  data you use. Please consult the documentation of the SK-files for the
|  references.
|
|===============================================================================

Reading input file 'dftb_in.hsd'
Parser version: 8

--------------------------------------------------------------------------------
Reading SK-files:
Done.


Processed input in HSD format written to 'dftb_pin.hsd'

Starting initialization...
--------------------------------------------------------------------------------
OpenMP threads:              1
Chosen random seed:          451678846
Mode:                        Static calculation
Self consistent charges:     Yes
SCC-tolerance:                 0.100000E-05
Max. scc iterations:                   1000
Shell resolved Hubbard:      No
Spin polarisation:           No
Nr. of up electrons:             6.000000
Nr. of down electrons:           6.000000
Periodic boundaries:         No
Electronic solver:           Relatively robust
Maximal SCC-cycles:                    1000
Initial charges:             Set automatically (system chrg:   0.100E+01)
Included shells:             C:  s, p
                             N:  s, p
                             H:  s
Spin coupling constants:     C   1(s)-1(s):  -0.455900E-01
                             C   1(s)-2(p):  -0.293000E-01
                             C   2(p)-1(s):  -0.293000E-01
                             C   2(p)-2(p):  -0.275500E-01
                             N   1(s)-1(s):  -0.468700E-01
                             N   1(s)-2(p):  -0.317000E-01
                             N   2(p)-1(s):  -0.317000E-01
                             N   2(p)-2(p):  -0.307200E-01
                             H   1(s)-1(s):  -0.792500E-01
Range separated hybrid:      Yes
  Screening parameter omega:   0.300000E+00
  Range separated algorithm:   MatrixBased
Extra options:
                             Mulliken analysis
                             Force calculation
Force type                   original
                             Eigenvector printing


REKS Calcuation:             Yes
SSR(2,2) Calcuation:         Yes
Energy Functional:           (PPS+OSS)/2
Number of Core Orbitals:                  5
Number of Active Orbitals:                2
Number of Basis:                         12
Number of States:                         2
State-Averaging Weight:          0.500000
                                 0.500000
State of Interest:                        1
Initial Guess:               Diagonalize H0 matrix
Newton-Raphson for FON opt:  Yes
NR max. Iterations:                      50
Level Shifting:              Yes
Shift Value:                     0.300000
W Scale Factor:              C  =    3.200000
                             N  =    3.200000
                             H  =    3.200000
Transition Dipole:           No
Gradient of Microstate:      No
CP-REKS Solver:              Preconditioned Conjugate-Gradient
CG max. Iterations:                     100
CG Tolerance:                  0.100000E-07
Memory for A and Hxc:        Direct Updating Without Saving
Non-Adiabatic Coupling:      Yes

--------------------------------------------------------------------------------

***  Geometry step: 0

  iSCC       reks energy        Diff energy         x_a       SCC error   
    1       -6.1222135164       0.0000000000     0.992804    0.92006562
    2       -6.1392099738      -0.0169964574     0.999950    0.08549970
    3       -6.1451991520      -0.0059891782     1.000000    0.06251037
    4       -6.1465106445      -0.0013114925     1.000000    0.02441985
    5       -6.1468230845      -0.0003124400     1.000000    0.00857702
    6       -6.1469330989      -0.0001100144     1.000000    0.00562245
    7       -6.1469822446      -0.0000491458     1.000000    0.00370640
    8       -6.1470072088      -0.0000249642     1.000000    0.00248312
    9       -6.1470208923      -0.0000136834     1.000000    0.00169642
   10       -6.1470287833      -0.0000078910     1.000000    0.00118177
   11       -6.1470335026      -0.0000047193     1.000000    0.00083811
   12       -6.1470364024      -0.0000028999     1.000000    0.00060386
   13       -6.1470382214      -0.0000018190     1.000000    0.00044109
   14       -6.1470393808      -0.0000011594     1.000000    0.00035017
   15       -6.1470401291      -0.0000007483     1.000000    0.00028793
   16       -6.1470406168      -0.0000004877     1.000000    0.00023680
   17       -6.1470409372      -0.0000003204     1.000000    0.00019476
   18       -6.1470411489      -0.0000002118     1.000000    0.00016018
   19       -6.1470412896      -0.0000001407     1.000000    0.00013173
   20       -6.1470413834      -0.0000000938     1.000000    0.00010832
   21       -6.1470414462      -0.0000000628     1.000000    0.00008907
   22       -6.1470414883      -0.0000000421     1.000000    0.00007324
   23       -6.1470415166      -0.0000000283     1.000000    0.00006021
   24       -6.1470415357      -0.0000000191     1.000000    0.00004951
   25       -6.1470415485      -0.0000000129     1.000000    0.00004070
   26       -6.1470415572      -0.0000000087     1.000000    0.00003346
   27       -6.1470415630      -0.0000000059     1.000000    0.00002751
   28       -6.1470415670      -0.0000000040     1.000000    0.00002262
   29       -6.1470415697      -0.0000000027     1.000000    0.00001871
   30       -6.1470415715      -0.0000000018     1.000000    0.00001551
   31       -6.1470415727      -0.0000000012     1.000000    0.00001286
   32       -6.1470415736      -0.0000000008     1.000000    0.00001065
   33       -6.1470415741      -0.0000000006     1.000000    0.00000882
   34       -6.1470415745      -0.0000000004     1.000000    0.00000730
   35       -6.1470415748      -0.0000000003     1.000000    0.00000604
   36       -6.1470415749      -0.0000000002     1.000000    0.00000499
   37       -6.1470415751      -0.0000000001     1.000000    0.00000413
   38       -6.1470415751      -0.0000000001     1.000000    0.00000341
   39       -6.1470415752      -0.0000000001     1.000000    0.00000282
   40       -6.1470415752      -0.0000000000     1.000000    0.00000233
   41       -6.1470415753      -0.0000000000     1.000000    0.00000192
   42       -6.1470415753      -0.0000000000     1.000000    0.00000159
   43       -6.1470415753      -0.0000000000     1.000000    0.00000131
   44       -6.1470415753      -0.0000000000     1.000000    0.00000108
   45       -6.1470415753      -0.0000000000     1.000000    0.00000089
  
--------------------------------------------------
 Final SA-REKS(2,2) energy:      -6.14704158
  
 State     Energy      FON(1)    FON(2)   Spin
  PPS   -6.14860611   2.000000  0.000000  0.00
  OSS   -6.14547704   1.000000  1.000000  0.00
 Trip   -6.16039979   1.000000  1.000000  1.00
--------------------------------------------------

 Lagrangian Wab:  -0.03794008 -0.03794008

--------------------------------------------------
 SSR: 2SI-2SA-REKS(2,2) Hamiltonian matrix
               PPS           OSS
   PPS    -6.14860611   -0.05365261
   OSS    -0.05365261   -6.14547704
--------------------------------------------------

----------------------------------------------------------------
 SSR: 2SI-2SA-REKS(2,2) states
                    E_n       C_{PPS}    C_{OSS}
 SSR state  1   -6.20071699  -0.717338  -0.696725
 SSR state  2   -6.09336616   0.696725  -0.717338
----------------------------------------------------------------

 unrelaxed SSR FONs for S0:  1.514574  0.485426

Total Energy:                       -6.2007169930 H         -168.7301 eV
Extrapolated to 0:                  -6.2007169930 H         -168.7301 eV

----------------------------------------------------------------------------------
 Solving CP-REKS equation for  1 state vector...
----------------------------------------------------------------------------------
  CG solver: Constructing Y initial guess
  CG solver: Iteration    1    eps =    0.002516592029
  CG solver: Iteration    2    eps =    0.000037106286
  CG solver: Iteration    3    eps =    0.000010795572
  CG solver: Iteration    4    eps =    0.000001185530
  CG solver: Iteration    5    eps =    0.000000168788
  CG solver: Iteration    6    eps =    0.000000011771
  CG solver: Iteration    7    eps =    0.000000000975
  Convergence reached in CG solver after    7 iterations
  CG solver: Calculating converged R, Z, Q2 matrix
----------------------------------------------------------------------------------

----------------------------------------------------------------------------------
 Solving CP-REKS equation for SI between  1 and  2 state vectors...
----------------------------------------------------------------------------------
  CG solver: Constructing Y initial guess
  CG solver: Iteration    1    eps =    0.002357988661
  CG solver: Iteration    2    eps =    0.000109620686
  CG solver: Iteration    3    eps =    0.000012083549
  CG solver: Iteration    4    eps =    0.000001492223
  CG solver: Iteration    5    eps =    0.000000344700
  CG solver: Iteration    6    eps =    0.000000032915
  CG solver: Iteration    7    eps =    0.000000001460
  Convergence reached in CG solver after    7 iterations
  CG solver: Calculating converged R, Z, Q2 matrix
----------------------------------------------------------------------------------

--------------------------------------------------
 Gradient Information
--------------------------------------------------
           1 st state (SSR)
    -0.01037632    -0.04363570    -0.05119696
    -0.04076702    -0.04673455     0.08982092
    -0.00893299     0.02518176    -0.01646290
     0.00148073     0.01092521     0.00295931
     0.05857918     0.06065257     0.06165548
     0.00001642    -0.00638929    -0.08677585

           2 st state (SSR)
    -0.00115287    -0.03583544     0.04323865
    -0.04079639    -0.05787347    -0.01377104
     0.01475744     0.02440604    -0.01707024
     0.01138784     0.00491083     0.00293258
     0.03591024     0.07258455     0.06485739
    -0.02010626    -0.00819250    -0.08018735
--------------------------------------------------
 Coupling Information
--------------------------------------------------
 between  1 and  2 states
--------------------------------------------------
 g vector - difference gradient
    -0.01279171     0.00434699    -0.06366132
     0.02101034    -0.00517266     0.05116169
    -0.00412185    -0.00170251     0.00288091
    -0.00940060     0.00157522     0.00426386
     0.00052350     0.00148526     0.00228336
     0.00478032    -0.00053230     0.00307151

 h vector - derivative coupling
    -0.00424067    -0.00402855    -0.04538149
    -0.00059798     0.00572267     0.05032610
    -0.01173005     0.00043767     0.00021979
    -0.00468154     0.00296254    -0.00011097
     0.01132402    -0.00601183    -0.00166822
     0.00992622     0.00091751    -0.00338522

 G vector - GDV
    -0.00461172    -0.00390013    -0.04721781
     0.00001468     0.00556946     0.05179598
    -0.01184521     0.00038786     0.00030367
    -0.00495356     0.00300719     0.00001336
     0.01133447    -0.00596599    -0.00160096
     0.01006134     0.00090160    -0.00329425

 H vector - DCV - non-adiabatic coupling
     0.11795591    -0.04156989     0.58044720
    -0.19579579     0.04971795    -0.46271690
     0.03519484     0.01597137    -0.02676529
     0.08626058    -0.01386296    -0.03973214
    -0.00179974    -0.01546205    -0.02171396
    -0.04181580     0.00520557    -0.02951890
--------------------------------------------------


--------------------------------------------------------------------------------
DFTB+ running times                          cpu [s]             wall clock [s]
--------------------------------------------------------------------------------
SCC                                    +     0.02  ( 63.5%)      0.02  ( 59.5%)
Post-SCC processing                    +     0.01  ( 32.8%)      0.01  ( 29.7%)
  Force calculation                          0.01  ( 32.2%)      0.01  ( 27.0%)
--------------------------------------------------------------------------------
Missing                                +     0.00  (  3.8%)      0.00  ( 10.8%)
Total                                  =     0.03  (100.0%)      0.04  (100.0%)
--------------------------------------------------------------------------------
