    14
  Step:     0            Position(A)                                  Velocity(au)
C        -5.96103915    -0.78233215    -0.12183592     0.00008175     0.00008270    -0.00013653
C        -4.67073563    -0.77960468     0.15479741    -0.00018429    -0.00016039     0.00008235
H        -6.38216663     0.19827869    -0.57397601     0.00071053     0.00007720     0.00090257
H        -6.64635853    -1.63300889    -0.14658381    -0.00045913     0.00024002    -0.00014327
H        -4.00407051    -1.54355668     0.64358462     0.00014488     0.00036391     0.00071746
C        -3.93805974     0.47690023    -0.03649924    -0.00021852     0.00009983    -0.00013882
C        -2.56550166     0.59420313     0.18279621     0.00018144    -0.00015690     0.00005470
H        -4.53055912     1.36888342    -0.22832094     0.00088452    -0.00036560    -0.00031578
H        -2.06439426    -0.30824577     0.43069383     0.00042053     0.00071522    -0.00049084
C        -1.88020751     1.71599442    -0.05732939    -0.00016594    -0.00017520     0.00024638
H        -2.33937435     2.67761906    -0.35024220    -0.00062084     0.00014020    -0.00003561
N        -0.53735453     1.72191707     0.24965484     0.00009984     0.00014086    -0.00017331
H         0.08676044     2.51621904    -0.01019784     0.00083043     0.00103692    -0.00011553
H        -0.03563253     0.83724116     0.32661017     0.00034269    -0.00047187     0.00060138
    14
  Step:     1            Position(A)                                  Velocity(au)
C        -5.96065317    -0.78132165    -0.12356086    -0.00001157     0.00010032    -0.00017787
C        -4.67212776    -0.78118987     0.15585977    -0.00006927    -0.00012840     0.00011211
H        -6.37392129     0.19721453    -0.56315942     0.00078553    -0.00025537     0.00106260
H        -6.65112261    -1.63040075    -0.14765009    -0.00040664     0.00024189    -0.00005317
H        -4.00395032    -1.53965605     0.65051427    -0.00012385     0.00034655     0.00054785
C        -3.94095879     0.47783435    -0.03801404    -0.00030781     0.00006747    -0.00013711
C        -2.56342455     0.59230502     0.18340482     0.00019578    -0.00018826     0.00005581
H        -4.52090321     1.36500131    -0.23213200     0.00085696    -0.00031453    -0.00038859
H        -2.05885228    -0.30133962     0.42598663     0.00060270     0.00051845    -0.00036277
C        -1.88182715     1.71438120    -0.05463578    -0.00012998    -0.00011780     0.00024563
H        -2.34584376     2.67851144    -0.35049317    -0.00055402     0.00000955    -0.00000494
N        -0.53611277     1.72355861     0.24770710     0.00012957     0.00015925    -0.00018323
H         0.09479284     2.52666433    -0.01113002     0.00061130     0.00083826    -0.00004572
H        -0.03216806     0.83218077     0.33329315     0.00027454    -0.00042038     0.00061639
    14
  Step:     2            Position(A)                                  Velocity(au)
C        -5.96129235    -0.78013738    -0.12572725    -0.00010350     0.00011380    -0.00021642
C        -4.67225110    -0.78241359     0.15725000     0.00004521    -0.00009416     0.00014157
H        -6.36498156     0.19269192    -0.55072968     0.00083266    -0.00054418     0.00119270
H        -6.65525459    -1.62771701    -0.14774691    -0.00034586     0.00025130     0.00003343
H        -4.00678006    -1.53597534     0.65556981    -0.00038787     0.00031959     0.00037859
C        -3.94479369     0.47837624    -0.03949871    -0.00038891     0.00002837    -0.00013320
C        -2.56121850     0.59008469     0.18401718     0.00020547    -0.00021616     0.00005551
H        -4.51181150     1.36200239    -0.23682220     0.00078243    -0.00020591    -0.00047644
H        -2.05120913    -0.29690359     0.42275764     0.00079798     0.00027516    -0.00022422
C        -1.88305114     1.71341739    -0.05195587    -0.00009355    -0.00005765     0.00024419
H        -2.35149454     2.67782789    -0.35035031    -0.00047395    -0.00014121     0.00003452
N        -0.53451988     1.72540099     0.24564629     0.00016279     0.00017701    -0.00019373
H         0.10013389     2.53455751    -0.01119806     0.00035009     0.00058445     0.00003799
H        -0.02962633     0.82804465     0.34009488     0.00017757    -0.00030860     0.00062341
    14
  Step:     3            Position(A)                                  Velocity(au)
C        -5.96291747    -0.77883202    -0.12829553    -0.00018973     0.00012170    -0.00025055
C        -4.67113875    -0.78324977     0.15895683     0.00015429    -0.00005739     0.00016927
H        -6.35570531     0.18530955    -0.53706674     0.00084212    -0.00076622     0.00128326
H        -6.65868894    -1.62490299    -0.14691867    -0.00028164     0.00026300     0.00011543
H        -4.01243582    -1.53266430     0.65879658    -0.00063402     0.00027489     0.00021737
C        -3.94946701     0.47845510    -0.04092808    -0.00046070    -0.00001659    -0.00012698
C        -2.55892953     0.58757621     0.18461929     0.00021159    -0.00024150     0.00005413
H        -4.50378607     1.36049655    -0.24255510     0.00066576    -0.00004738    -0.00057826
H        -2.04139495    -0.29531987     0.42108137     0.00099138     0.00001109    -0.00008308
C        -1.88387375     1.71312005    -0.04929364    -0.00005651     0.00000287     0.00024271
H        -2.35621234     2.67542229    -0.34973803    -0.00038638    -0.00029841     0.00007890
N        -0.53255136     1.72743104     0.24346885     0.00019692     0.00019312    -0.00020434
H         0.10245178     2.53945039    -0.01029886     0.00007035     0.00030402     0.00012681
H        -0.02828337     0.82542954     0.34693151     0.00006005    -0.00015003     0.00062346
    14
  Step:     4            Position(A)                                  Velocity(au)
C        -5.96544311    -0.77747489    -0.13120840    -0.00026630     0.00012247    -0.00027870
C        -4.66887560    -0.78366901     0.16095305     0.00025354    -0.00001778     0.00019380
H        -6.34655860     0.17592929    -0.52265582     0.00080434    -0.00089722     0.00132515
H        -6.66141597    -1.62196328    -0.14522160    -0.00021911     0.00027162     0.00019179
H        -4.02065050    -1.52996161     0.66032522    -0.00084957     0.00020450     0.00007192
C        -3.95487239     0.47801337    -0.04227657    -0.00052268    -0.00006587    -0.00011850
C        -2.55658963     0.58480134     0.18520142     0.00021552    -0.00026546     0.00005208
H        -4.49724677     1.36096594    -0.24947272     0.00051688     0.00014549    -0.00069109
H        -2.02952090    -0.29666097     0.42094014     0.00116607    -0.00024530     0.00005229
C        -1.88428736     1.71348027    -0.04664613    -0.00001865     0.00006143     0.00024181
H        -2.35994743     2.67129957    -0.34862413    -0.00029730    -0.00044834     0.00012419
N        -0.53021196     1.72962595     0.24117591     0.00022923     0.00020679    -0.00021466
H         0.10167300     2.54120856    -0.00842386    -0.00020440     0.00002567     0.00021227
H        -0.02831256     0.82476250     0.35373420    -0.00006801     0.00003862     0.00061822
    14
  Step:     5            Position(A)                                  Velocity(au)
C        -5.96874329    -0.77615271    -0.13439263    -0.00032993     0.00011462    -0.00029961
C        -4.66559201    -0.78363876     0.16319659     0.00033922     0.00002491     0.00021391
H        -6.33810883     0.16568118    -0.50807659     0.00071108    -0.00091422     0.00131101
H        -6.66348243    -1.61896082    -0.14272281    -0.00016327     0.00027204     0.00026158
H        -4.03102182    -1.52819047     0.66037001    -0.00102296     0.00010116    -0.00005045
C        -3.96090166     0.47701396    -0.04352052    -0.00057494    -0.00011737    -0.00010805
C        -2.55421460     0.58176870     0.18575860     0.00021872    -0.00028908     0.00004976
H        -4.49247836     1.36367937    -0.25767397     0.00034968     0.00035036    -0.00081014
H        -2.01588503    -0.30068635     0.42222524     0.00130615    -0.00046771     0.00017421
C        -1.88428186     1.71446384    -0.04400369     0.00002024     0.00011576     0.00024207
H        -2.36271637     2.66561410    -0.34702108    -0.00021275    -0.00057764     0.00016631
N        -0.52753645     1.73195506     0.23877266     0.00025702     0.00021734    -0.00022434
H         0.09798005     2.54001189    -0.00565505    -0.00045095    -0.00022187     0.00028626
H        -0.02977123     0.82627446     0.36045617    -0.00019581     0.00023886     0.00060997
    14
  Step:     6            Position(A)                                  Velocity(au)
C        -5.97266093    -0.77496732    -0.13776292    -0.00037840     0.00009715    -0.00031247
C        -4.66145462    -0.78312398     0.16563276     0.00040853     0.00007080     0.00022861
H        -6.33100232     0.15592902    -0.49397497     0.00055746    -0.00080076     0.00123733
H        -6.66498784    -1.61601183    -0.13949900    -0.00011855     0.00025979     0.00032402
H        -4.04302979    -1.52774860     0.65922155    -0.00114496    -0.00004076    -0.00014369
C        -3.96745029     0.47544562    -0.04464037    -0.00061792    -0.00016861    -0.00009607
C        -2.55180471     0.57847713     0.18629006     0.00022246    -0.00031298     0.00004751
H        -4.48959687     1.36863077    -0.26719605     0.00017979     0.00054122    -0.00092926
H        -2.00094642    -0.30689301     0.42475129     0.00139913    -0.00063607     0.00027674
C        -1.88384452     1.71601268    -0.04135049     0.00006039     0.00016379     0.00024401
H        -2.36460168     2.65866249    -0.34498573    -0.00013858    -0.00067397     0.00020132
N        -0.52458917     1.73438062     0.23626794     0.00027766     0.00022413    -0.00023307
H         0.09180760     2.53635479    -0.00216146    -0.00064670    -0.00041014     0.00034108
H        -0.03259619     0.82998803     0.36707845    -0.00031239     0.00043161     0.00060148
    14
  Step:     7            Position(A)                                  Velocity(au)
C        -5.97702150    -0.77402742    -0.14122861    -0.00041087     0.00007012    -0.00031723
C        -4.65665466    -0.78208980     0.16819797     0.00045988     0.00011968     0.00023733
H        -6.32591340     0.14816300    -0.48100768     0.00034448    -0.00055426     0.00110683
H        -6.66607598    -1.61327737    -0.13563419    -0.00008851     0.00023135     0.00037862
H        -4.05606998    -1.52908216     0.65722656    -0.00121021    -0.00022363    -0.00020421
C        -3.97441977     0.47332522    -0.04562217    -0.00065216    -0.00021711    -0.00008309
C        -2.54934783     0.57492175     0.18679787     0.00022765    -0.00033719     0.00004550
H        -4.48854507     1.37551956    -0.27800329     0.00002194     0.00069252    -0.00104174
H        -1.98527634    -0.31460164     0.42827948     0.00143754    -0.00073881     0.00035624
C        -1.88296077     1.71804709    -0.03866542     0.00010194     0.00020372     0.00024808
H        -2.36574807     2.65086962    -0.34261686    -0.00008014    -0.00072670     0.00022565
N        -0.52146218     1.73685837     0.23367374     0.00028879     0.00022665    -0.00024060
H         0.08383218     2.53103923     0.00180681    -0.00077107    -0.00051261     0.00036999
H        -0.03660536     0.83571675     0.37361477    -0.00040740     0.00059833     0.00059587
    14
  Step:     8            Position(A)                                  Velocity(au)
C        -5.98164957    -0.77343322    -0.14470283    -0.00042804     0.00003527    -0.00031466
C        -4.65139388    -0.78050566     0.17082482     0.00049289     0.00017086     0.00024000
H        -6.32346612     0.14380362    -0.46976093     0.00008120    -0.00019286     0.00093025
H        -6.66692417    -1.61095069    -0.13121601    -0.00007547     0.00018445     0.00042512
H        -4.06950547    -1.53264091     0.65475412    -0.00121864    -0.00044481    -0.00023208
C        -3.98171749     0.47069584    -0.04645812    -0.00067807    -0.00026069    -0.00006967
C        -2.54682447     0.57110041     0.18728541     0.00023472    -0.00036123     0.00004379
H        -4.48911684     1.38378093    -0.28998605    -0.00011238     0.00078335    -0.00114131
H        -1.96949744    -0.32305596     0.43254472     0.00141933    -0.00077305     0.00041138
C        -1.88161434     1.72046937    -0.03592330     0.00014496     0.00023413     0.00025455
H        -2.36635488     2.64276457    -0.34004924    -0.00004169    -0.00072804     0.00023647
N        -0.51827142     1.73933903     0.23100431     0.00028858     0.00022461    -0.00024679
H         0.07493901     2.52514056     0.00593269    -0.00080801    -0.00050786     0.00036800
H        -0.04150882     0.84307763     0.38011427    -0.00047175     0.00072224     0.00059639
    14
  Step:     9            Position(A)                                  Velocity(au)
C        -5.98638561    -0.77325589    -0.14811237    -0.00043202    -0.00000389    -0.00030639
C        -4.64587182    -0.77835190     0.17344842     0.00050831     0.00022296     0.00023715
H        -6.32413694     0.14394380    -0.46065678    -0.00021493     0.00024221     0.00072590
H        -6.66772710    -1.60924220    -0.12633391    -0.00008021     0.00011840     0.00046351
H        -4.08273004    -1.53881323     0.65214945    -0.00117623    -0.00069498    -0.00023194
C        -3.98925390     0.46762209    -0.04714639    -0.00069576    -0.00029767    -0.00005631
C        -2.54421285     0.56701916     0.18775584     0.00024367    -0.00038421     0.00004231
H        -4.49100366     1.39265693    -0.30297164    -0.00021631     0.00080038    -0.00122302
H        -1.95422585    -0.33151369     0.43727912     0.00134712    -0.00074303     0.00044274
C        -1.87978940     1.72316908    -0.03309665     0.00018930     0.00025415     0.00026354
H        -2.36666011     2.63494238    -0.33744351    -0.00002570    -0.00067431     0.00023214
N        -0.51514898     1.74177213     0.22827472     0.00027610     0.00021823    -0.00025168
H         0.06615544     2.51992882     0.00985758    -0.00074983    -0.00038479     0.00033335
H        -0.04692583     0.85151720     0.38666202    -0.00049841     0.00078985     0.00060617
    14
  Step:    10            Position(A)                                  Velocity(au)
C        -5.99110093    -0.77351838    -0.15140573    -0.00042605    -0.00004251    -0.00029455
C        -4.64027354    -0.77562798     0.17601297     0.00050785     0.00027385     0.00022987
H        -6.32816808     0.14910238    -0.45388043    -0.00052046     0.00069219     0.00051652
H        -6.66867894    -1.60836055    -0.12107590    -0.00010175     0.00003439     0.00049403
H        -4.09523765    -1.54784501     0.64968007    -0.00109467    -0.00095762    -0.00021299
C        -3.99693852     0.46418375    -0.04769011    -0.00070494    -0.00032691    -0.00004341
C        -2.54149372     0.56269510     0.18821110     0.00025408    -0.00040506     0.00004093
H        -4.49384895     1.40129069    -0.31674204    -0.00028766     0.00073878    -0.00128369
H        -1.94002668    -0.33931114     0.44223060     0.00122704    -0.00065793     0.00045237
C        -1.87747303     1.72602947    -0.03015784     0.00023452     0.00026357     0.00027494
H        -2.36691712     2.62801285    -0.33497073    -0.00003217    -0.00056701     0.00021260
N        -0.51223126     1.74411320     0.22549835     0.00025168     0.00020850    -0.00025556
H         0.05853515     2.51672254     0.01322530    -0.00060118    -0.00014826     0.00026883
H        -0.05241258     0.86035719     0.39337543    -0.00048341     0.00079292     0.00062774
    14
  Step:    11            Position(A)                                  Velocity(au)
C        -5.99570624    -0.77418581    -0.15455631    -0.00041376    -0.00007552    -0.00028130
C        -4.63476174    -0.77236084     0.17847722     0.00049365     0.00032074     0.00021963
H        -6.33552305     0.15908687    -0.44935682    -0.00081063     0.00109363     0.00032414
H        -6.66995313    -1.60848981    -0.11552613    -0.00013723    -0.00006420     0.00051706
H        -4.10667802    -1.55976295     0.64748986    -0.00098937    -0.00121041    -0.00018766
C        -4.00467583     0.46047022    -0.04809616    -0.00070505    -0.00034772    -0.00003128
C        -2.53865437     0.55815762     0.18865131     0.00026527    -0.00042269     0.00003946
H        -4.49729675     1.40881918    -0.33105485    -0.00032811     0.00060142    -0.00132187
H        -1.92738202    -0.34590707     0.44717564     0.00106749    -0.00052984     0.00044329
C        -1.87465875     1.72893511    -0.02708189     0.00027984     0.00026284     0.00028838
H        -2.36736385     2.62253793    -0.33279246    -0.00005801    -0.00041368     0.00017980
N        -0.50964305     1.74633339     0.22268393     0.00021717     0.00019729    -0.00025897
H         0.05300351     2.51668524     0.01573882    -0.00038129     0.00017718     0.00018250
H        -0.05750144     0.86886390     0.40039496    -0.00042678     0.00073051     0.00066243
    14
  Step:    12            Position(A)                                  Velocity(au)
C        -6.00015277    -0.77517045    -0.15755976    -0.00039862    -0.00009891    -0.00026836
C        -4.62947399    -0.76861111     0.18081781     0.00046794     0.00036045     0.00020807
H        -6.34590208     0.17302767    -0.44678925    -0.00106442     0.00139322     0.00016536
H        -6.67168105    -1.60976499    -0.10976416    -0.00018198    -0.00017184     0.00053301
H        -4.11688195    -1.57432515     0.64557454    -0.00087645    -0.00142859    -0.00016920
C        -4.01236284     0.45657663    -0.04837443    -0.00069533    -0.00035969    -0.00002015
C        -2.53569054     0.55344786     0.18907440     0.00027638    -0.00043608     0.00003770
H        -4.50102699     1.41444801    -0.34566038    -0.00034197     0.00039711    -0.00133766
H        -1.91667337    -0.35090238     0.45192844     0.00087806    -0.00037215     0.00041910
C        -1.87135101     1.73177950    -0.02384907     0.00032408     0.00025310     0.00030326
H        -2.36818609     2.61896286    -0.33103722    -0.00009690    -0.00022771     0.00013774
N        -0.50748032     1.74842921     0.21983292     0.00017584     0.00018716    -0.00026262
H         0.05019375     2.52059878     0.01721786    -0.00012241     0.00054862     0.00008682
H        -0.06174910     0.87633850     0.40786735    -0.00033311     0.00061042     0.00070981
    14
  Step:    13            Position(A)                                  Velocity(au)
C        -6.00442671    -0.77634961    -0.16042715    -0.00038335    -0.00011057    -0.00025674
C        -4.62452470    -0.76447527     0.18302918     0.00043254     0.00038981     0.00019669
H        -6.35880917     0.18956626    -0.44573922    -0.00126807     0.00155835     0.00004892
H        -6.67393432    -1.61224924    -0.10386559    -0.00022998    -0.00028123     0.00054215
H        -4.12585198    -1.59101600     0.64378828    -0.00076977    -0.00158913    -0.00016896
C        -4.01988755     0.45260133    -0.04853705    -0.00067500    -0.00036256    -0.00001022
C        -2.53260801     0.54861747     0.18947606     0.00028652    -0.00044432     0.00003544
H        -4.50477801     1.41750674    -0.36031874    -0.00033498     0.00013857    -0.00133248
H        -1.90817273    -0.35404845     0.45634436     0.00066896    -0.00019866     0.00038372
C        -1.86756898     1.73447211    -0.02044741     0.00036575     0.00023602     0.00031882
H        -2.36948371     2.61755623    -0.32977910    -0.00013993    -0.00002699     0.00009208
N        -0.50579611     1.75042784     0.21693855     0.00013197     0.00018079    -0.00026720
H         0.05032562     2.52868732     0.01763818     0.00013611     0.00091228    -0.00000372
H        -0.06478893     0.88221796     0.41592349    -0.00021162     0.00044940     0.00076724
    14
  Step:    14            Position(A)                                  Velocity(au)
C        -6.00853924    -0.77758942    -0.16317650    -0.00036978    -0.00011043    -0.00024677
C        -4.62001125    -0.76008316     0.18512070     0.00038870     0.00040611     0.00018662
H        -6.37364349     0.20711949    -0.44571912    -0.00141579     0.00157943    -0.00002408
H        -6.67671241    -1.61591745    -0.09790367    -0.00027448    -0.00038403     0.00054459
H        -4.13372206    -1.60909034     0.64187824    -0.00067877    -0.00167481    -0.00019434
C        -4.02712966     0.44864487    -0.04859800    -0.00064337    -0.00035622    -0.00000163
C        -2.52942247     0.54372742     0.18984979     0.00029479    -0.00044661     0.00003249
H        -4.50835536     1.41747950    -0.37481096    -0.00031342    -0.00015925    -0.00130867
H        -1.90203864    -0.35524835     0.46032309     0.00045059    -0.00002313     0.00034128
C        -1.86334954     1.73694290    -0.01687431     0.00040319     0.00021355     0.00033416
H        -2.37124722     2.61837243    -0.32902288    -0.00017678     0.00016865     0.00004934
N        -0.50459332     1.75238439     0.21398750     0.00009003     0.00018025    -0.00027310
H         0.05317140     2.54055665     0.01713657     0.00035638     0.00121536    -0.00007586
H        -0.06637863     0.88616992     0.42465226    -0.00007513     0.00027151     0.00082977
    14
  Step:    15            Position(A)                                  Velocity(au)
C        -6.01251645    -0.77876552    -0.16582568    -0.00035888    -0.00009998    -0.00023821
C        -4.61602118    -0.75559082     0.18711189     0.00033703     0.00040740     0.00017856
H        -6.38978235     0.22411925    -0.44626593    -0.00150831     0.00146539    -0.00005789
H        -6.67993900    -1.62065052    -0.09195158    -0.00030881    -0.00047193     0.00054025
H        -4.14070132    -1.62765575     0.63953675    -0.00060783    -0.00167665    -0.00024788
C        -4.03396249     0.44480841    -0.04857274    -0.00060002    -0.00034070     0.00000550
C        -2.52615884     0.53884695     0.19018688     0.00030043    -0.00044221     0.00002864
H        -4.51163464     1.41402292    -0.38894843    -0.00028359    -0.00048018    -0.00126937
H        -1.89831529    -0.35455446     0.46381041     0.00023339     0.00014094     0.00029605
C        -1.85874834     1.73914388    -0.01313701     0.00043472     0.00018762     0.00034843
H        -2.37335121     2.62124572    -0.32869965    -0.00019744     0.00034031     0.00001594
N        -0.50382646     1.75437112     0.21096403     0.00005405     0.00018641    -0.00028032
H         0.05812203     2.55527563     0.01597868     0.00050984     0.00141739    -0.00012038
H        -0.06643246     0.88815778     0.43407626     0.00006168     0.00010457     0.00089061
    14
  Step:    16            Position(A)                                  Velocity(au)
C        -6.01639044    -0.77977657    -0.16838784    -0.00035090    -0.00008155    -0.00023055
C        -4.61263816    -0.75117046     0.18902714     0.00027773     0.00039273     0.00017275
H        -6.40664077     0.23917769    -0.44698559    -0.00155055     0.00123650    -0.00005962
H        -6.68346815    -1.62624185    -0.08608474    -0.00032729    -0.00053779     0.00052885
H        -4.14701947    -1.64577031     0.63645541    -0.00055699    -0.00159408    -0.00032772
C        -4.04025617     0.44119136    -0.04847767    -0.00054483    -0.00031637     0.00001114
C        -2.52285002     0.53405313     0.19047637     0.00030275    -0.00043045     0.00002369
H        -4.51455940     1.40697454    -0.40258088    -0.00025157    -0.00080757    -0.00121844
H        -1.89693281    -0.35216502     0.46679985     0.00002767     0.00028045     0.00025246
C        -1.85383911     1.74104742    -0.00925180     0.00045885     0.00015992     0.00036087
H        -2.37556669     2.62581732    -0.32867411    -0.00019377     0.00047275    -0.00000284
N        -0.50341080     1.75646242     0.20785502     0.00002700     0.00019883    -0.00028842
H         0.06432506     2.57156467     0.01450302     0.00058153     0.00149698    -0.00013340
H        -0.06502924     0.88845748     0.44413605     0.00018462    -0.00002468     0.00094217
    14
  Step:    17            Position(A)                                  Velocity(au)
C        -6.02019314    -0.78054957    -0.17086930    -0.00034565    -0.00005773    -0.00022313
C        -4.60994523    -0.74699918     0.19089117     0.00021088     0.00036216     0.00016905
H        -6.42370349     0.25117014    -0.44757027    -0.00154942     0.00091779    -0.00003713
H        -6.68709899    -1.63241565    -0.08038195    -0.00032584    -0.00057646     0.00051011
H        -4.15288664    -1.66252933     0.63236719    -0.00052334    -0.00143374    -0.00042877
C        -4.04588162     0.43788711    -0.04832910    -0.00047806    -0.00028404     0.00001535
C        -2.51953564     0.52942996     0.19070507     0.00030119    -0.00041075     0.00001743
H        -4.51713824     1.39635583    -0.41560416    -0.00022318    -0.00112454    -0.00116047
H        -1.89770986    -0.34841899     0.46933343    -0.00015665     0.00038303     0.00021488
C        -1.84871017     1.74264253    -0.00524227     0.00047442     0.00013175     0.00037093
H        -2.37759031     2.63158795    -0.32876185    -0.00016069     0.00055613    -0.00000357
N        -0.50323585     1.75872082     0.20465425     0.00001059     0.00021604    -0.00029668
H         0.07084413     2.58802487     0.01306027     0.00056998     0.00145230    -0.00011599
H        -0.06239357     0.88761790     0.45468807     0.00028226    -0.00009514     0.00097735
    14
  Step:    18            Position(A)                                  Velocity(au)
C        -6.02395229    -0.78103957    -0.17326930    -0.00034265    -0.00003093    -0.00021536
C        -4.60802482    -0.74324760     0.19272546     0.00013663     0.00031678     0.00016705
H        -6.44053725     0.25925600    -0.44779778    -0.00151248     0.00053470     0.00000216
H        -6.69059648    -1.63885296    -0.07492517    -0.00030237    -0.00058530     0.00048380
H        -4.15846852    -1.67713605     0.62707526    -0.00050238    -0.00120747    -0.00054402
C        -4.05071462     0.43497743    -0.04814187    -0.00040035    -0.00024508     0.00001836
C        -2.51626096     0.52506726     0.19085762     0.00029530    -0.00038264     0.00000968
H        -4.51944182     1.38237304    -0.42796844    -0.00020398    -0.00141427    -0.00110082
H        -1.90035985    -0.34378557     0.47150086    -0.00031052     0.00043756     0.00018753
C        -1.84346025     1.74392981    -0.00113689     0.00048074     0.00010395     0.00037828
H        -2.37908210     2.63798362    -0.32875213    -0.00009662     0.00058651     0.00001513
N        -0.50317906     1.76118869     0.20136462     0.00000539     0.00023608    -0.00030425
H         0.07679454     2.60333661     0.01196550     0.00048418     0.00129702    -0.00007276
H        -0.05885416     0.88637616     0.46551753     0.00034750    -0.00009445     0.00099074
    14
  Step:    19            Position(A)                                  Velocity(au)
C        -6.02768923    -0.78122623    -0.17558079    -0.00034125    -0.00000322    -0.00020671
C        -4.60695618    -0.74006902     0.19454581     0.00005548     0.00025863     0.00016617
H        -6.45679181     0.26286764    -0.44752305    -0.00144725     0.00011136     0.00005161
H        -6.69371381    -1.64522027    -0.06979800    -0.00025677    -0.00056428     0.00044989
H        -4.16387727    -1.68894501     0.62046567    -0.00048918    -0.00093034    -0.00066573
C        -4.05464014     0.43252553    -0.04792737    -0.00031275    -0.00020151     0.00002058
C        -2.51307547     0.52105894     0.19091677     0.00028478    -0.00034591     0.00000030
H        -4.52160059     1.36541591    -0.43968678    -0.00019929    -0.00166030    -0.00104557
H        -1.90450311    -0.33884644     0.47343608    -0.00042647     0.00043524     0.00017406
C        -1.83819317     1.74491670     0.00303336     0.00047756     0.00007696     0.00038278
H        -2.37970400     2.64441902    -0.32843078    -0.00000322     0.00056524     0.00005268
N        -0.50311787     1.76388558     0.19799820     0.00001097     0.00025697    -0.00031038
H         0.08143643     2.61639956     0.01146842     0.00033957     0.00105458    -0.00001027
H        -0.05479145     0.88555160     0.47636237     0.00037802    -0.00001993     0.00097938
    14
  Step:    20            Position(A)                                  Velocity(au)
C        -6.03141786    -0.78111009    -0.17779149    -0.00034077     0.00002363    -0.00019675
C        -4.60681115    -0.73758957     0.19636068    -0.00003170     0.00019057     0.00016566
H        -6.47219856     0.26169216    -0.44666881    -0.00136116    -0.00032969     0.00010538
H        -6.69621388    -1.65119763    -0.06508291    -0.00019080    -0.00051576     0.00040866
H        -4.16917020    -1.69748906     0.61251110    -0.00047883    -0.00061935    -0.00078606
C        -4.05755652     0.43056902    -0.04769158    -0.00021662    -0.00015592     0.00002258
C        -2.51003088     0.51749987     0.19086410     0.00026956    -0.00030068    -0.00001076
H        -4.52380167     1.34605075    -0.45084226    -0.00021404    -0.00184729    -0.00100127
H        -1.90968980    -0.33426377     0.47530877    -0.00049982     0.00037113     0.00017699
C        -1.83301264     1.74561350     0.00723726     0.00046514     0.00005092     0.00038450
H        -2.37915263     2.65034936    -0.32759968     0.00011514     0.00049783     0.00010690
N        -0.50293909     1.76681033     0.19457452     0.00002615     0.00027697    -0.00031449