|===============================================================================
|
|  DFTB+ release 20.1
|
|  Copyright (C) 2006 - 2020  DFTB+ developers group
|
|===============================================================================
|
|  When publishing results obtained with DFTB+, please cite the following
|  reference:
|
|  * DFTB+, a software package for efficient approximate density functional
|    theory based atomistic simulations, J. Chem. Phys. 152, 124101 (2020).
|    [doi: 10.1063/1.5143190]
|
|  You should also cite additional publications crediting the parametrization
|  data you use. Please consult the documentation of the SK-files for the
|  references.
|
|===============================================================================

Reading input file 'dftb_in.hsd'
Parser version: 8

--------------------------------------------------------------------------------
Reading SK-files:
Done.


Processed input in HSD format written to 'dftb_pin.hsd'

Starting initialization...
--------------------------------------------------------------------------------
OpenMP threads:              1
Chosen random seed:          511186000
Mode:                        Static calculation
Self consistent charges:     Yes
SCC-tolerance:                 0.100000E-05
Max. scc iterations:                   1000
Shell resolved Hubbard:      No
Spin polarisation:           No
Nr. of up electrons:             6.000000
Nr. of down electrons:           6.000000
Periodic boundaries:         No
Electronic solver:           Relatively robust
Maximal SCC-cycles:                    1000
Initial charges:             Set automatically (system chrg:   0.100E+01)
Included shells:             C:  s, p
                             N:  s, p
                             H:  s
Spin coupling constants:     C   1(s)-1(s):  -0.455900E-01
                             C   1(s)-2(p):  -0.293000E-01
                             C   2(p)-1(s):  -0.293000E-01
                             C   2(p)-2(p):  -0.275500E-01
                             N   1(s)-1(s):  -0.468700E-01
                             N   1(s)-2(p):  -0.317000E-01
                             N   2(p)-1(s):  -0.317000E-01
                             N   2(p)-2(p):  -0.307200E-01
                             H   1(s)-1(s):  -0.792500E-01
Range separated hybrid:      Yes
  Screening parameter omega:   0.300000E+00
  Range separated algorithm:   MatrixBased
Extra options:
                             Mulliken analysis
                             Force calculation
Force type                   original
                             Eigenvector printing


REKS Calcuation:             Yes
SSR(2,2) Calcuation:         Yes
Energy Functional:           (PPS+OSS)/2
Number of Core Orbitals:                  5
Number of Active Orbitals:                2
Number of Basis:                         12
Number of States:                         2
State-Averaging Weight:          0.500000
                                 0.500000
State of Interest:                        1
Initial Guess:               Diagonalize H0 matrix
Newton-Raphson for FON opt:  Yes
NR max. Iterations:                      50
Level Shifting:              Yes
Shift Value:                     0.300000
W Scale Factor:              C  =    3.000000
                             N  =    3.000000
                             H  =    3.000000
Transition Dipole:           No
Gradient of Microstate:      No
CP-REKS Solver:              Preconditioned Conjugate-Gradient
CG max. Iterations:                     100
CG Tolerance:                  0.100000E-07
Memory for A and Hxc:        Direct Updating Without Saving
Non-Adiabatic Coupling:      Yes

--------------------------------------------------------------------------------

***  Geometry step: 0

  iSCC       reks energy        Diff energy         x_a       SCC error   
    1       -6.2771479193       0.0000000000     0.999956    1.19727608
    2       -6.2807327082      -0.0035847889     0.999966    0.02327542
    3       -6.2816320118      -0.0008993036     0.999971    0.00918561
    4       -6.2819498559      -0.0003178441     0.999973    0.00505684
    5       -6.2820823090      -0.0001324532     0.999975    0.00311679
    6       -6.2821429794      -0.0000606703     0.999975    0.00234770
    7       -6.2821722966      -0.0000293172     0.999976    0.00171702
    8       -6.2821869224      -0.0000146258     0.999976    0.00123299
    9       -6.2821943766      -0.0000074542     0.999976    0.00093522
   10       -6.2821982387      -0.0000038622     0.999977    0.00072050
   11       -6.2822002685      -0.0000020298     0.999977    0.00055688
   12       -6.2822013497      -0.0000010811     0.999977    0.00043136
   13       -6.2822019330      -0.0000005833     0.999977    0.00033466
   14       -6.2822022518      -0.0000003188     0.999977    0.00025994
   15       -6.2822024282      -0.0000001764     0.999977    0.00020211
   16       -6.2822025269      -0.0000000988     0.999977    0.00015727
   17       -6.2822025829      -0.0000000560     0.999977    0.00012247
   18       -6.2822026149      -0.0000000320     0.999977    0.00009543
   19       -6.2822026335      -0.0000000185     0.999977    0.00007441
   20       -6.2822026443      -0.0000000108     0.999977    0.00005805
   21       -6.2822026506      -0.0000000064     0.999977    0.00004532
   22       -6.2822026544      -0.0000000038     0.999977    0.00003539
   23       -6.2822026567      -0.0000000022     0.999977    0.00002765
   24       -6.2822026580      -0.0000000013     0.999977    0.00002161
   25       -6.2822026588      -0.0000000008     0.999977    0.00001690
   26       -6.2822026593      -0.0000000005     0.999977    0.00001322
   27       -6.2822026596      -0.0000000003     0.999977    0.00001035
   28       -6.2822026598      -0.0000000002     0.999977    0.00000810
   29       -6.2822026599      -0.0000000001     0.999977    0.00000634
   30       -6.2822026600      -0.0000000001     0.999977    0.00000496
   31       -6.2822026600      -0.0000000000     0.999977    0.00000389
   32       -6.2822026600      -0.0000000000     0.999977    0.00000305
   33       -6.2822026600      -0.0000000000     0.999977    0.00000239
   34       -6.2822026600      -0.0000000000     0.999977    0.00000187
   35       -6.2822026601      -0.0000000000     0.999977    0.00000147
   36       -6.2822026601      -0.0000000000     0.999977    0.00000115
   37       -6.2822026601      -0.0000000000     0.999977    0.00000090
  
--------------------------------------------------
 Final SA-REKS(2,2) energy:      -6.28220266
  
 State     Energy      FON(1)    FON(2)   Spin
  PPS   -6.41287273   1.999954  0.000046  0.00
  OSS   -6.15153260   1.000000  1.000000  0.00
 Trip   -6.22831099   1.000000  1.000000  1.00
--------------------------------------------------

 Lagrangian Wab:  -0.00044729 -0.00044730

--------------------------------------------------
 SSR: 2SI-2SA-REKS(2,2) Hamiltonian matrix
               PPS           OSS
   PPS    -6.41287273   -0.00062953
   OSS    -0.00062953   -6.15153260
--------------------------------------------------

----------------------------------------------------------------
 SSR: 2SI-2SA-REKS(2,2) states
                    E_n       C_{PPS}    C_{OSS}
 SSR state  1   -6.41287424  -0.999997  -0.002409
 SSR state  2   -6.15153108   0.002409  -0.999997
----------------------------------------------------------------

 unrelaxed SSR FONs for S0:  1.999948  0.000052

Total Energy:                       -6.4128742415 H         -174.5032 eV
Extrapolated to 0:                  -6.4128742415 H         -174.5032 eV

----------------------------------------------------------------------------------
 Solving CP-REKS equation for  1 state vector...
----------------------------------------------------------------------------------
  CG solver: Constructing Y initial guess
  CG solver: Iteration    1    eps =    0.000024129253
  CG solver: Iteration    2    eps =    0.000000638256
  CG solver: Iteration    3    eps =    0.000000187899
  CG solver: Iteration    4    eps =    0.000000004316
  Convergence reached in CG solver after    4 iterations
  CG solver: Calculating converged R, Z, Q2 matrix
----------------------------------------------------------------------------------

----------------------------------------------------------------------------------
 Solving CP-REKS equation for SI between  1 and  2 state vectors...
----------------------------------------------------------------------------------
  CG solver: Constructing Y initial guess
  CG solver: Iteration    1    eps =    0.000376483769
  CG solver: Iteration    2    eps =    0.000097528486
  CG solver: Iteration    3    eps =    0.000006557734
  CG solver: Iteration    4    eps =    0.000000788463
  CG solver: Iteration    5    eps =    0.000000027795
  CG solver: Iteration    6    eps =    0.000000006984
  Convergence reached in CG solver after    6 iterations
  CG solver: Calculating converged R, Z, Q2 matrix
----------------------------------------------------------------------------------

--------------------------------------------------
 Gradient Information
--------------------------------------------------
           1 st state (SSR)
    -0.00736116    -0.01782081     0.03492459
     0.03096035    -0.00346356    -0.04782048
     0.00091358     0.00554019    -0.00673444
    -0.01187934     0.00547194     0.00844501
    -0.01176210     0.00787817     0.00548059
    -0.00087134     0.00239406     0.00570473

           2 st state (SSR)
     0.00942032    -0.00304389     0.14424043
    -0.01374805    -0.00133720    -0.17486288
    -0.00478074     0.01160855     0.01412639
     0.00265282    -0.00131857    -0.00023915
     0.00599106     0.01311794    -0.00427213
     0.00046458    -0.01902683     0.02100734
--------------------------------------------------
 Coupling Information
--------------------------------------------------
 between  1 and  2 states
--------------------------------------------------
 g vector - difference gradient
    -0.00838299    -0.00736590    -0.05465694
     0.02236404    -0.00110230     0.06352150
     0.00287032    -0.00303697    -0.01043022
    -0.00724072     0.00341263     0.00434884
    -0.00890858    -0.00260872     0.00487007
    -0.00070207     0.01070126    -0.00765325

 h vector - derivative coupling
    -0.00162911    -0.00470065    -0.00033512
    -0.00198853     0.00811667     0.00009049
    -0.00479958     0.00057171    -0.00006409
    -0.00528026    -0.00359768    -0.00139360
     0.00661999    -0.00232353     0.00131810
     0.00707749     0.00193348     0.00038422

 G vector - GDV
    -0.00839074    -0.00738846    -0.05465792
     0.02235420    -0.00106318     0.06352120
     0.00284716    -0.00303418    -0.01043041
    -0.00726608     0.00339525     0.00434208
    -0.00887658    -0.00261988     0.00487636
    -0.00066796     0.01071045    -0.00765131

 H vector - DCV - non-adiabatic coupling
    -0.00607899    -0.01785053    -0.00027472
    -0.00802106     0.03107749    -0.00082474
    -0.01841773     0.00224354    -0.00005296
    -0.02007062    -0.01382886    -0.00541255
     0.02549458    -0.00884252     0.00495373
     0.02709382     0.00720087     0.00161125
--------------------------------------------------


--------------------------------------------------------------------------------
DFTB+ running times                          cpu [s]             wall clock [s]
--------------------------------------------------------------------------------
SCC                                    +     0.02  ( 56.5%)      0.02  ( 44.4%)
Post-SCC processing                    +     0.01  ( 38.7%)      0.01  ( 27.8%)
  Force calculation                          0.01  ( 37.7%)      0.01  ( 18.5%)
--------------------------------------------------------------------------------
Missing                                +     0.00  (  4.8%)      0.02  ( 27.8%)
Total                                  =     0.03  (100.0%)      0.05  (100.0%)
--------------------------------------------------------------------------------
