     6
  Step:     0            Position(A)                                  Velocity(au)
C        -0.03478927     0.00493570     0.03468285    -0.00007619    -0.00008686    -0.00008015
N        -0.04546073    -0.04289060     1.27901325    -0.00014961     0.00004686     0.00008847
H         0.91603569     0.02042142    -0.49616501     0.00070124     0.00047186    -0.00011478
H         0.81458216    -0.18114815     1.85852131     0.00153491    -0.00043227     0.00078549
H        -0.89352078    -0.07698422     1.90084210     0.00080844     0.00010549    -0.00070481
H        -1.00374550     0.10514136    -0.55805768    -0.00005763     0.00023876    -0.00024021
     6
  Step:     1            Position(A)                                  Velocity(au)
C        -0.03523056     0.00446568     0.03399168    -0.00008456    -0.00008511    -0.00017202
N        -0.04628691    -0.04263953     1.27975318    -0.00015060     0.00004488     0.00018145
H         0.92005455     0.02303957    -0.49708268     0.00076157     0.00048578    -0.00021695
H         0.82289654    -0.18353012     1.86274582     0.00148883    -0.00043625     0.00074805
H        -0.88895835    -0.07641276     1.89683257     0.00084884     0.00010294    -0.00075202
H        -1.00390157     0.10644551    -0.55940115     0.00000115     0.00023809    -0.00025069
     6
  Step:     2            Position(A)                                  Velocity(au)
C        -0.03571422     0.00400466     0.03280114    -0.00009162    -0.00008356    -0.00026207
N        -0.04710807    -0.04239967     1.28099806    -0.00014775     0.00004279     0.00027233
H         0.92436626     0.02573525    -0.49853813     0.00080787     0.00050002    -0.00031110
H         0.83086810    -0.18592022     1.86670405     0.00141118    -0.00043540     0.00068949
H        -0.88423559    -0.07585817     1.89261590     0.00086533     0.00009923    -0.00077919
H        -1.00373296     0.10774577    -0.56079987     0.00006057     0.00023733    -0.00026070
     6
  Step:     3            Position(A)                                  Velocity(au)
C        -0.03623284     0.00355148     0.03112460    -0.00009726    -0.00008222    -0.00034894
N        -0.04790332    -0.04217144     1.28273247    -0.00014108     0.00004065     0.00035957
H         0.92889265     0.02850981    -0.50048613     0.00083953     0.00051428    -0.00039668
H         0.83833489    -0.18829345     1.87028889     0.00130559    -0.00043014     0.00061278
H        -0.87949159    -0.07532714     1.88830826     0.00085483     0.00009423    -0.00078391
H        -1.00323898     0.10904194    -0.56225317     0.00011953     0.00023652    -0.00027084
     6
  Step:     4            Position(A)                                  Velocity(au)
C        -0.03677852     0.00310494     0.02898271    -0.00010141    -0.00008108    -0.00043127
N        -0.04865188    -0.04195488     1.28493278    -0.00013063     0.00003852     0.00044165
H         0.93355318     0.03136291    -0.50287898     0.00085624     0.00052820    -0.00047326
H         0.84515500    -0.19062719     1.87340959     0.00117579    -0.00042089     0.00052096
H        -0.87488127    -0.07482706     1.88403770     0.00081475     0.00008780    -0.00076428
H        -1.00242493     0.11033400    -0.56376365     0.00017690     0.00023569    -0.00028169
     6
  Step:     5            Position(A)                                  Velocity(au)
C        -0.03734305     0.00266388     0.02640325    -0.00010402    -0.00008013    -0.00050773
N        -0.04933336    -0.04174972     1.28756747    -0.00011650     0.00003647     0.00051714
H         0.93826645     0.03429237    -0.50566719     0.00085798     0.00054143    -0.00054052
H         0.85120699    -0.19290118     1.87599214     0.00102564    -0.00040810     0.00041717
H        -0.87057207    -0.07436594     1.87994121     0.00074333     0.00007987    -0.00071913
H        -1.00130231     0.11162213    -0.56533697     0.00023150     0.00023485    -0.00029376
     6
  Step:     6            Position(A)                                  Velocity(au)
C        -0.03791796     0.00222720     0.02342087    -0.00010505    -0.00007935    -0.00057708
N        -0.04992808    -0.04155543     1.29059772    -0.00009891     0.00003453     0.00058476
H         0.94295179     0.03729398    -0.50880005     0.00084502     0.00055359    -0.00059827
H         0.85639020    -0.19509763     1.87797947     0.00085906    -0.00039223     0.00030458
H        -0.86673856    -0.07395211     1.87616012     0.00064006     0.00007041    -0.00064827
H        -0.99988899     0.11290659    -0.56698156     0.00028212     0.00023402    -0.00030751
     6
  Step:     7            Position(A)                                  Velocity(au)
C        -0.03849472     0.00179391     0.02007657    -0.00010450    -0.00007873    -0.00063821
N        -0.05041771    -0.04137122     1.29397832    -0.00007817     0.00003274     0.00064341
H         0.94753061     0.04036157    -0.51222614     0.00081791     0.00056431    -0.00064639
H         0.86062508    -0.19720129     1.87933139     0.00068010    -0.00037378     0.00018637
H        -0.86355494    -0.07359397     1.87283401     0.00050594     0.00005946    -0.00055277
H        -0.99820931     0.11418774    -0.56870828     0.00032759     0.00023321    -0.00032334
     6
  Step:     8            Position(A)                                  Velocity(au)
C        -0.03906483     0.00136319     0.01641695    -0.00010241    -0.00007823    -0.00069016
N        -0.05078590    -0.04119615     1.29765874    -0.00005473     0.00003113     0.00069225
H         0.95192786     0.04348694    -0.51589378     0.00077751     0.00057324    -0.00068490
H         0.86385384    -0.19919960     1.88002477     0.00049295    -0.00035328     0.00006574
H        -0.86118618    -0.07329956     1.87009386     0.00034374     0.00004713    -0.00043500
H        -0.99629392     0.11546597    -0.57052997     0.00036677     0.00023244    -0.00034153
     6
  Step:     9            Position(A)                                  Velocity(au)
C        -0.03961999     0.00093438     0.01249333    -0.00009883    -0.00007781    -0.00073220
N        -0.05101908    -0.04102914     1.30158447    -0.00002921     0.00002973     0.00073070
H         0.95607356     0.04666005    -0.51975159     0.00072494     0.00058006    -0.00071394
H         0.86604137    -0.20108298     1.88005369     0.00030196    -0.00033132    -0.00005410
H        -0.85977802    -0.07307615     1.86805444     0.00015811     0.00003361    -0.00029875
H        -0.99417939     0.11674168    -0.57246089     0.00039866     0.00023169    -0.00036227
     6
  Step:    10            Position(A)                                  Velocity(au)
C        -0.04015226     0.00050701     0.00836062    -0.00009385    -0.00007745    -0.00076382
N        -0.05110732    -0.04086899     1.30569852    -0.00000236     0.00002856     0.00075848
H         0.95990430     0.04986926    -0.52374914     0.00066161     0.00058452    -0.00073374
H         0.86717631    -0.20284513     1.87942953     0.00011167    -0.00030856    -0.00016994
H        -0.85944655    -0.07292973     1.86680672    -0.00004452     0.00001919    -0.00014910
H        -0.99190748     0.11801526    -0.57451604     0.00042244     0.00023097    -0.00038562
     6
  Step:    11            Position(A)                                  Velocity(au)
C        -0.04065425     0.00008082     0.00407598    -0.00008760    -0.00007711    -0.00078478
N        -0.05104511    -0.04071445     1.30994301     0.00002495     0.00002761     0.00077563
H         0.96336462     0.05310158    -0.52783753     0.00058917     0.00058646    -0.00074472
H         0.86727202    -0.20448337     1.87818093    -0.00007329    -0.00028571    -0.00027866
H        -0.86026864    -0.07286463     1.86641137    -0.00025620     0.00000423     0.00000790
H        -0.98952410     0.11928695    -0.57671044     0.00043750     0.00023024    -0.00041147
     6
  Step:    12            Position(A)                                  Velocity(au)
C        -0.04111926    -0.00034424    -0.00030256    -0.00008023    -0.00007676    -0.00079516
N        -0.05083194    -0.04056421     1.31426071     0.00005176     0.00002690     0.00078249
H         0.96640817     0.05634314    -0.53197010     0.00050945     0.00058578    -0.00074741
H         0.86636731    -0.20599909     1.87635344    -0.00024825    -0.00026355    -0.00037726
H        -0.86227468    -0.07288309     1.86689394    -0.00046801    -0.00001089     0.00016560
H        -0.98707791     0.12055686    -0.57905822     0.00044357     0.00022949    -0.00043959
     6
  Step:    13            Position(A)                                  Velocity(au)
C        -0.04154152    -0.00076808    -0.00471766    -0.00007194    -0.00007638    -0.00079531
N        -0.05047267    -0.04041692     1.31859660     0.00007711     0.00002645     0.00077968
H         0.96899863     0.05957972    -0.53610312     0.00042439     0.00058252    -0.00074248
H         0.86452662    -0.20739800     1.87400883    -0.00040868    -0.00024291    -0.00046299
H        -0.86544442    -0.07298508     1.86824275    -0.00067080    -0.00002574     0.00031731
H        -0.98461865     0.12182488    -0.58157187     0.00044069     0.00022869    -0.00046962
     6
  Step:    14            Position(A)                                  Velocity(au)
C        -0.04191628    -0.00119046    -0.00911432    -0.00006293    -0.00007594    -0.00078592
N        -0.04997754    -0.04027118     1.32289933     0.00010009     0.00002625     0.00076809
H         0.97111029     0.06279729    -0.54019659     0.00033602     0.00057683    -0.00073081
H         0.86183931    -0.20869048     1.87122365    -0.00055037    -0.00022465    -0.00053349
H        -0.86970698    -0.07316826     1.87040963    -0.00085588    -0.00003989     0.00045684
H        -0.98219519     0.12309067    -0.58426150     0.00042928     0.00022783    -0.00050113
     6
  Step:    15            Position(A)                                  Velocity(au)
C        -0.04224004    -0.00161106    -0.01344147    -0.00005344    -0.00007547    -0.00076798
N        -0.04936169    -0.04012551     1.32712250     0.00011989     0.00002634     0.00074884
H         0.97272848     0.06598260    -0.54421517     0.00024631     0.00056903    -0.00071340
H         0.85841746    -0.20989164     1.86808705    -0.00066963    -0.00020964    -0.00058684
H        -0.87494479    -0.07342788     1.87331375    -0.00101589    -0.00005299     0.00057905
H        -0.97985361     0.12435382    -0.58713449     0.00041011     0.00022691    -0.00053364
     6
  Step:    16            Position(A)                                  Velocity(au)
C        -0.04251054    -0.00202959    -0.01765363    -0.00004371    -0.00007497    -0.00074274
N        -0.04864451    -0.03997835     1.33122581     0.00013589     0.00002672     0.00072322
H         0.97384910     0.06912440    -0.54812899     0.00015710     0.00055960    -0.00069142
H         0.85439356    -0.21102152     1.86469845    -0.00076349    -0.00019874    -0.00062173
H        -0.88100279    -0.07375745     1.87684820    -0.00114540    -0.00006477     0.00068023
H        -0.97763516     0.12561370    -0.59019511     0.00038426     0.00022592    -0.00056668
     6
  Step:    17            Position(A)                                  Velocity(au)
C        -0.04272681    -0.00244585    -0.02171224    -0.00003396    -0.00007448    -0.00071160
N        -0.04784844    -0.03982799     1.33517593     0.00014772     0.00002743     0.00069261
H         0.97447791     0.07221403    -0.55191447     0.00006997     0.00054913    -0.00066611
H         0.84991555    -0.21210476     1.86116380    -0.00082997    -0.00019274    -0.00063749
H        -0.88769942    -0.07414908     1.88088848    -0.00124120    -0.00007504     0.00075829
H        -0.97557461     0.12686961    -0.59344483     0.00035309     0.00022491    -0.00059989
     6
  Step:    18            Position(A)                                  Velocity(au)
C        -0.04288912    -0.00285983    -0.02558656    -0.00002222    -0.00007063    -0.00072329
N        -0.04699772    -0.03967255     1.33894698     0.00015527     0.00002695     0.00069549
H         0.97462911     0.07524610    -0.55555480    -0.00004985     0.00057584    -0.00059967
H         0.84514115    -0.21317020     1.85759178    -0.00089198    -0.00024294    -0.00065223
H        -0.89483961    -0.07459403     1.88530159    -0.00128613    -0.00002957     0.00080281
H        -0.97369891     0.12812099    -0.59688271     0.00033499     0.00016370    -0.00059702
     6
  Step:    19            Position(A)                                  Velocity(au)
C        -0.04297466    -0.00323379    -0.02978149    -0.00000860    -0.00006328    -0.00078092
N        -0.04611616    -0.03952728     1.34293513     0.00015830     0.00002509     0.00073496
H         0.97392175     0.07863828    -0.55860461    -0.00020196     0.00062257    -0.00049427
H         0.83996432    -0.21481507     1.85388723    -0.00094811    -0.00032965    -0.00066719
H        -0.90204797    -0.07447901     1.88984497    -0.00127886     0.00005405     0.00080911
H        -0.97183738     0.12869588    -0.60010538     0.00033171     0.00005847    -0.00055548
     6
  Step:    20            Position(A)                                  Velocity(au)
C        -0.04298514    -0.00356620    -0.03430350     0.00000464    -0.00005591    -0.00083596
N        -0.04523076    -0.03939253     1.34715094     0.00015662     0.00002341     0.00077293
H         0.97237476     0.08219552    -0.56107205    -0.00034761     0.00064485    -0.00039229
H         0.83455791    -0.21684984     1.85014433    -0.00097160    -0.00039457    -0.00066343
H        -0.90911476    -0.07399075     1.89433323    -0.00123775     0.00011403     0.00078846
H        -0.96999622     0.12877370    -0.60308323     0.00032527    -0.00002344    -0.00051230
     6
  Step:    21            Position(A)                                  Velocity(au)
C        -0.04292288    -0.00385807    -0.03911641     0.00001739    -0.00004878    -0.00088407
N        -0.04436722    -0.03926587     1.35156621     0.00015052     0.00002224     0.00080542
H         0.97004010     0.08583914    -0.56298527    -0.00048258     0.00065600    -0.00029641
H         0.82911470    -0.21922114     1.84647883    -0.00096050    -0.00045324    -0.00063892
H        -0.91586960    -0.07320571     1.89864949    -0.00116891     0.00016286     0.00074962
H        -0.96820516     0.12843417    -0.60582606     0.00031306    -0.00009337    -0.00047203
     6
  Step:    22            Position(A)                                  Velocity(au)
C        -0.04279092    -0.00411107    -0.04417761     0.00002954    -0.00004199    -0.00092473
N        -0.04354957    -0.03914414     1.35614660     0.00014037     0.00002167     0.00083189
H         0.96698490     0.08952231    -0.56438263    -0.00060459     0.00066045    -0.00020819
H         0.82383020    -0.22191202     1.84300826    -0.00091503    -0.00051072    -0.00059387
H        -0.92217021    -0.07217173     1.90270563    -0.00107734     0.00020441     0.00069720
H        -0.96649973     0.12773092    -0.60835528     0.00029433    -0.00015493    -0.00043628
     6
  Step:    23            Position(A)                                  Velocity(au)
C        -0.04259291    -0.00432703    -0.04944437     0.00004099    -0.00003555    -0.00095811
N        -0.04279952    -0.03902385     1.36085733     0.00012659     0.00002174     0.00085247
H         0.96328770     0.09321545    -0.56531050    -0.00071189     0.00066079    -0.00012885
H         0.81889508    -0.22492516     1.83984610    -0.00083670    -0.00056973    -0.00052939
H        -0.92790201    -0.07092272     1.90643621    -0.00096777     0.00024067     0.00063491
H        -0.96491795     0.12670380    -0.61069875     0.00026880    -0.00021020    -0.00040594
     6
  Step:    24            Position(A)                                  Velocity(au)
C        -0.04233317    -0.00450802    -0.05487607     0.00005162    -0.00002949    -0.00098460
N        -0.04213608    -0.03890141     1.36566541     0.00010968     0.00002245     0.00086747
H         0.95903578     0.09690076    -0.56582137    -0.00080299     0.00065878    -0.00005934
H         0.81448749    -0.22827368     1.83709699    -0.00072818    -0.00063174    -0.00044729
H        -0.93297647    -0.06948433     1.90979514    -0.00084459     0.00027289     0.00056592
H        -0.96349830     0.12538383    -0.61288803     0.00023645    -0.00026054    -0.00038143
     6
  Step:    25            Position(A)                                  Velocity(au)
C        -0.04201670    -0.00465617    -0.06043470     0.00006130    -0.00002380    -0.00100458
N        -0.04157522    -0.03877325     1.37054024     0.00009021     0.00002379     0.00087728
H         0.95432455     0.10056883    -0.56597283    -0.00087641     0.00065566    -0.00000048
H         0.81076701    -0.23197679     1.83485341    -0.00059323    -0.00069745    -0.00034995
H        -0.93732948    -0.06787670     1.91275315    -0.00071187     0.00030186     0.00049297
H        -0.96227865     0.12379556    -0.61495635     0.00019744    -0.00030698    -0.00036289
     6
  Step:    26            Position(A)                                  Velocity(au)
C        -0.04164924    -0.00477359    -0.06608478     0.00006987    -0.00001849    -0.00101833
N        -0.04112950    -0.03863603     1.37545375     0.00006880     0.00002568     0.00088222
H         0.94925716     0.10421634    -0.56582667    -0.00093068     0.00065232     0.00004704
H         0.80786840    -0.23605553     1.83319233    -0.00043678    -0.00076678    -0.00024039
H        -0.94091922    -0.06611632     1.91529556    -0.00057336     0.00032809     0.00041846
H        -0.96129533     0.12195866    -0.61693704     0.00015210    -0.00035025    -0.00035020
     6
  Step:    27            Position(A)                                  Velocity(au)
C        -0.04123738    -0.00486238    -0.07179261     0.00007718    -0.00001354    -0.00102606
N        -0.04080782    -0.03848678     1.38037998     0.00004614     0.00002806     0.00088258
H         0.94394426     0.10784441    -0.56544813    -0.00096440     0.00064938     0.00008264
H         0.80589546    -0.24052898     1.83217225    -0.00026482    -0.00083900    -0.00012213
H        -0.94372441    -0.06421734     1.91742040    -0.00043262     0.00035189     0.00034451
H        -0.96058219     0.11988909    -0.61886225     0.00010096    -0.00039089    -0.00034302
     6
  Step:    28            Position(A)                                  Velocity(au)
C        -0.04078861    -0.00492459    -0.07752577     0.00008306    -0.00000896    -0.00102791
N        -0.04061503    -0.03832309     1.38529484     0.00002297     0.00003081     0.00087863
H         0.93850366     0.11145723    -0.56490519    -0.00097629     0.00064734     0.00010585
H         0.80491559    -0.24541077     1.83183054    -0.00008432    -0.00091286     0.00000084
H        -0.94574314    -0.06219265     1.91913701    -0.00029307     0.00037340     0.00027307
H        -0.96016955     0.11760006    -0.62076187     0.00004479    -0.00042930    -0.00034086
     6
  Step:    29            Position(A)                                  Velocity(au)
C        -0.04031138    -0.00496226    -0.08325282     0.00008732    -0.00000474    -0.00102402
N        -0.04055172    -0.03814326     1.39017585     0.00000008     0.00003379     0.00087065
H         0.93305955     0.11506161    -0.56426799    -0.00096535     0.00064658     0.00011638
H         0.80495534    -0.25070650     1.83218163     0.00009711    -0.00098666     0.00012429
H        -0.94699183    -0.06005428     1.92046487    -0.00015800     0.00039273     0.00020592
H        -0.96008286     0.11510281    -0.62266251    -0.00001543    -0.00046576    -0.00034307
     6
  Step:    30            Position(A)                                  Velocity(au)
C        -0.03981503    -0.00497742    -0.08894314     0.00008983    -0.00000088    -0.00101460
N        -0.04061409    -0.03794635     1.39500212    -0.00002172     0.00003685     0.00085893
H         0.92774046     0.11866624    -0.56360764    -0.00093111     0.00064739     0.00011418
H         0.80599827    -0.25641156     1.83321633     0.00027170    -0.00105844     0.00024398
H        -0.94750473    -0.05781389     1.92143287    -0.00003063     0.00040992     0.00014470
H        -0.96034156     0.11240709    -0.62458691    -0.00007848    -0.00050048    -0.00034891
     6
  Step:    31            Position(A)                                  Velocity(au)
C        -0.03930961    -0.00497209    -0.09456734     0.00009048     0.00000261    -0.00099992
N        -0.04079399    -0.03773229     1.39975446    -0.00004170     0.00003984     0.00084384
H         0.92267602     0.12228116    -0.56299465    -0.00087377     0.00065002     0.00009956
H         0.80798524    -0.26250997     1.83490239     0.00043201    -0.00112615     0.00035592
H        -0.94733335    -0.05548293     1.92207853     0.00008601     0.00042498     0.00009091
H        -0.96095802     0.10952153    -0.62655343    -0.00014298    -0.00053364    -0.00035755
     6
  Step:    32            Position(A)                                  Velocity(au)
C        -0.03880565    -0.00494831    -0.10009766     0.00008923     0.00000574    -0.00098038
N        -0.04107926    -0.03750187     1.40441548    -0.00005916     0.00004262     0.00082574
H         0.91799322     0.12591750    -0.56249705    -0.00079426     0.00065463     0.00007313
H         0.81081752    -0.26897427     1.83718679     0.00057144    -0.00118785     0.00045667
H        -0.94654523    -0.05307304     1.92244703     0.00018912     0.00043798     0.00004587
H        -0.96193659     0.10645410    -0.62857559    -0.00020747    -0.00056540    -0.00036818
     6
  Step:    33            Position(A)                                  Velocity(au)
C        -0.03831381    -0.00490803    -0.10550855     0.00008609     0.00000852    -0.00095650
N        -0.04145420    -0.03725667     1.40896985    -0.00007354     0.00004504     0.00080508
H         0.91381197     0.12958688    -0.56217855    -0.00069439     0.00066129     0.00003590
H         0.81436262    -0.27576650     1.83999888     0.00068467    -0.00124185     0.00054347
H        -0.94522275    -0.05059500     1.92259043     0.00027626     0.00044907     0.00001067
H        -0.96327342     0.10321156    -0.63066232    -0.00027046    -0.00059598    -0.00037996
     6
  Step:    34            Position(A)                                  Velocity(au)
C        -0.03784441    -0.00485313    -0.11077731     0.00008117     0.00001098    -0.00092888
N        -0.04190036    -0.03699898     1.41340443    -0.00008444     0.00004700     0.00078228
H         0.91024013     0.13330106    -0.56209619    -0.00057680     0.00067002    -0.00001073
H         0.81846214    -0.28283992     1.84325487     0.00076794    -0.00128687     0.00061447
H        -0.94346073    -0.04805898     1.92256622     0.00034548     0.00045842    -0.00001386
H        -0.96495635     0.09979978    -0.63281792    -0.00033050    -0.00062556    -0.00039211
     6
  Step:    35            Position(A)                                  Velocity(au)
C        -0.03740706    -0.00478537    -0.11588459     0.00007465     0.00001314    -0.00089819
N        -0.04239740    -0.03673164     1.41770828    -0.00009160     0.00004843     0.00075778
H         0.90736877     0.13707133    -0.56229836    -0.00044490     0.00068070    -0.00006504
H         0.82294096    -0.29014154     1.84686280     0.00081918    -0.00132211     0.00066868
H        -0.94136357    -0.04547420     1.92243565     0.00039541     0.00046623    -0.00002722
H        -0.96696532     0.09622368    -0.63504239    -0.00038629    -0.00065436    -0.00040393
     6
  Step:    36            Position(A)                                  Velocity(au)
C        -0.03701021    -0.00470628    -0.12081480     0.00006676     0.00001505    -0.00086517
N        -0.04292399    -0.03645781     1.42187281    -0.00009494     0.00004927     0.00073203
H         0.90526826     0.14090802    -0.56282308    -0.00030265     0.00069314    -0.00012511
H         0.82761667    -0.29761482     1.85072752     0.00083796    -0.00134726     0.00070600
H        -0.93904195    -0.04284871     1.92226205     0.00042530     0.00047277    -0.00002923
H        -0.96927325     0.09248714    -0.63733189    -0.00043669    -0.00068260    -0.00041480
     6
  Step:    37            Position(A)                                  Velocity(au)
C        -0.03666081    -0.00461717    -0.12555626     0.00005779     0.00001674    -0.00083051
N        -0.04345876    -0.03618087     1.42589159    -0.00009454     0.00004951     0.00070540
H         0.90398547     0.14481995    -0.56369697    -0.00015439     0.00070705    -0.00018884
H         0.83230850    -0.30520256     1.85475516     0.00082528    -0.00136247     0.00072703
H        -0.93660919    -0.04018908     1.92210892     0.00043504     0.00047833    -0.00002004
H        -0.97184711     0.08859295    -0.63967938    -0.00048079    -0.00071049    -0.00042421
     6
  Step:    38            Position(A)                                  Velocity(au)
C        -0.03636405    -0.00451906    -0.13010119     0.00004807     0.00001829    -0.00079491
N        -0.04398107    -0.03590417     1.42976026    -0.00009058     0.00004918     0.00067825
H         0.90354197     0.14881392    -0.56493461    -0.00000463     0.00072204    -0.00025410
H         0.83684458    -0.31284935     1.85885685     0.00078327    -0.00136828     0.00073294
H        -0.93417756    -0.03750028     1.92203801     0.00042520     0.00048320    -0.00000013
H        -0.97464925     0.08454277    -0.64207524    -0.00051791    -0.00073826    -0.00043179
     6
  Step:    39            Position(A)                                  Velocity(au)
C        -0.03612323    -0.00441264    -0.13444546     0.00003795     0.00001975    -0.00075896
N        -0.04447170    -0.03563096     1.43347628    -0.00008338     0.00004829     0.00065088
H         0.90393364     0.15289428    -0.56653854     0.00014216     0.00073765    -0.00031883
H         0.84106763    -0.32050363     1.86295139     0.00071489    -0.00136551     0.00072527
H        -0.93185434    -0.03478560     1.92210746     0.00039699     0.00048769     0.00002968
H        -0.97763871     0.08033716    -0.64450793    -0.00054757    -0.00076611    -0.00043724
     6
  Step:    40            Position(A)                                  Velocity(au)
C        -0.03593972    -0.00429825    -0.13858822     0.00002775     0.00002117    -0.00072318
N        -0.04491342    -0.03536422     1.43703875    -0.00007331     0.00004689     0.00062354
H         0.90513168     0.15706263    -0.56849993     0.00028181     0.00075337    -0.00038110
H         0.84483888    -0.32811919     1.86696714     0.00062364    -0.00135521     0.00070581
H        -0.92973827    -0.03204674     1.92236994     0.00035221     0.00049206     0.00006829
H        -0.98077248     0.07597573    -0.64696461    -0.00056954    -0.00079420    -0.00044037
     6
  Step:    41            Position(A)                                  Velocity(au)
C        -0.03581300    -0.00417589    -0.14253136     0.00001779     0.00002263    -0.00068800
N        -0.04529138    -0.03510663     1.44044802    -0.00006083     0.00004507     0.00059640
H         0.90708460     0.16131765    -0.57079961     0.00041058     0.00076868    -0.00043921
H         0.84804048    -0.33565618     1.87084299     0.00051326    -0.00133853     0.00067644
H        -0.92791624    -0.02928386     1.92287104     0.00029323     0.00049658     0.00011433
H        -0.98400666     0.07145724    -0.64943167    -0.00058372    -0.00082266    -0.00044108
     6
  Step:    42            Position(A)                                  Velocity(au)
C        -0.03574089    -0.00404526    -0.14627894     0.00000834     0.00002417    -0.00065374
N        -0.04559338    -0.03486047     1.44370551    -0.00004641     0.00004287     0.00056963
H         0.90972127     0.16565512    -0.57340956     0.00052527     0.00078305    -0.00049173
H         0.85057631    -0.34308163     1.87452862     0.00038760    -0.00131666     0.00063905
H        -0.92646048    -0.02649585     1.92364793     0.00022281     0.00050143     0.00016619
H        -0.98729743     0.06677984    -0.65189515    -0.00059019    -0.00085156    -0.00043934
     6
  Step:    43            Position(A)                                  Velocity(au)
C        -0.03571975    -0.00390576    -0.14983670    -0.00000034     0.00002584    -0.00062061
N        -0.04581000    -0.03462761     1.44681349    -0.00003055     0.00004037     0.00054333
H         0.91295439     0.17006803    -0.57629453     0.00062335     0.00079601    -0.00053752
H         0.85237181    -0.35036947     1.87798417     0.00025039    -0.00129081     0.00059542
H        -0.92542635    -0.02368056     1.92472822     0.00014411     0.00050676     0.00022213
H        -0.99060185     0.06194131    -0.65434112    -0.00058914    -0.00088094    -0.00043515
     6
  Step:    44            Position(A)                                  Velocity(au)
C        -0.03574473    -0.00375658    -0.15321146    -0.00000809     0.00002768    -0.00058876
N        -0.04593469    -0.03440949     1.44977480    -0.00001377     0.00003766     0.00051758
H         0.91668442     0.17454694    -0.57941388     0.00070296     0.00080713    -0.00057575
H         0.85337330    -0.35750057     1.88117980     0.00010525    -0.00126215     0.00054728
H        -0.92485073    -0.02083513     1.92612924     0.00006047     0.00051267     0.00028027
H        -0.99387846     0.05693927    -0.65675602    -0.00058088    -0.00091081    -0.00042860
     6