 Fermi distribution function

Calculation with static geometry


********************************************************************************
 iSCC Total electronic   Diff electronic      SCC error    
   10   -0.54125600E+01   -0.87041485E-13    0.31758208E-06
********************************************************************************

 Total charge:     1.00000000

 Atomic gross charges (e)
 Atom           Charge
    1       0.19934756
    2      -0.08836549
    3       0.15416543
    4       0.28172970
    5       0.27492628
    6       0.17819652

Nr. of electrons (up):     12.00000000
Atom populations (up)
 Atom       Population
    1       3.80065244
    2       5.08836549
    3       0.84583457
    4       0.71827030
    5       0.72507372
    6       0.82180348

l-shell populations (up)
 Atom Sh.   l       Population
    1   1   0       1.31614604
    1   2   1       2.48450639
    2   1   0       1.42140117
    2   2   1       3.66696432
    3   1   0       0.84583457
    4   1   0       0.71827030
    5   1   0       0.72507372
    6   1   0       0.82180348

Orbital populations (up)
 Atom Sh.   l   m       Population  Label
    1   1   0   0       1.31614604  s
    1   2   1  -1       0.59698404  p_y
    1   2   1   0       0.87617455  p_z
    1   2   1   1       1.01134781  p_x
    2   1   0   0       1.42140117  s
    2   2   1  -1       1.37805413  p_y
    2   2   1   0       1.08700415  p_z
    2   2   1   1       1.20190604  p_x
    3   1   0   0       0.84583457  s
    4   1   0   0       0.71827030  s
    5   1   0   0       0.72507372  s
    6   1   0   0       0.82180348  s

Fermi level:                        -0.4901570323 H          -13.3379 eV
Band energy:                        -8.9022983700 H         -242.2439 eV
TS:                                  0.0000000000 H            0.0000 eV
Band free energy (E-TS):            -8.9022983700 H         -242.2439 eV
Extrapolated E(0K):                 -8.9022983700 H         -242.2439 eV
Input / Output electrons (q):     12.0000000000     12.0000000000

Energy H0:                          -5.5448254538 H         -150.8824 eV
Energy SCC:                          0.1322654314 H            3.5991 eV
Total Electronic energy:            -5.4125600224 H         -147.2833 eV
Repulsive energy:                    0.1836897046 H            4.9985 eV
Total energy:                       -5.2288703179 H         -142.2848 eV
Extrapolated to 0:                  -5.2288703179 H         -142.2848 eV
Total Mermin free energy:           -5.2288703179 H         -142.2848 eV
Force related energy:               -5.2288703179 H         -142.2848 eV

SCC converged

Excitation Energy:                   0.1455354045 H            3.9602 eV

Total Forces
    1     -0.005980890108     -0.000434274205      0.042266403781
    2      0.010495593631      0.006534965900     -0.054386118622
    3     -0.006991307550     -0.006927876280      0.002124808245
    4     -0.012594063733      0.006460865683     -0.001195218051
    5      0.001965138318     -0.011602133896      0.007277303221
    6      0.013105529442      0.005968452798      0.003912821425

Maximal derivative component:        0.543861E-01 au


