     6
  Step:   120            Position(A)                                  Velocity(au)
C        -0.01323777    -0.06311105    -0.02856126     0.00008574    -0.00001408    -0.00003358
N        -0.05022413    -0.05259256     1.34012850     0.00001094     0.00008987    -0.00006295
H         0.67460348     0.73432377    -0.48753683    -0.00083513     0.00095700     0.00083145
H         0.76487463    -0.40643350     1.87551229    -0.00103149    -0.00149655     0.00001024
H        -0.82054245     0.45189471     1.86331165     0.00080414     0.00079771     0.00014043
H        -0.97621004     0.03331204    -0.64179053    -0.00011126    -0.00133916     0.00029282
