     6
  Step:   300            Position(A)                                  Velocity(au)
C        -0.05735352     0.00259403     0.01530422     0.00005369    -0.00008830     0.00004686
N        -0.02693286    -0.05003988     1.30106197    -0.00018431     0.00001263    -0.00005690
H         0.22497745     0.95141733    -0.43059137     0.00005914     0.00017093     0.00070205
H         0.04061936    -0.93256057     1.81616943     0.00109494     0.00032818     0.00010758
H        -0.05931824     0.84147589     1.80581952     0.00088797     0.00013254    -0.00015919
H        -0.36150669    -0.86565634    -0.56172370    -0.00012050     0.00024508    -0.00041812
