     6
  Step:     0            Position(A)                                  Velocity(au)
C        -0.03940626     0.01135771     0.00440998     0.00005568     0.00008772     0.00006556
N        -0.04611078    -0.05880531     1.30822748     0.00009302    -0.00003378     0.00003595
H         0.93634327     0.01203673    -0.49189683     0.00029546    -0.00048619    -0.00044942
H         0.88713517    -0.06645894     1.86585188    -0.00095274     0.00019632    -0.00108057
H        -0.91878642    -0.02333826     1.85846515    -0.00088801    -0.00005881     0.00045489
H        -1.00729057     0.08982283    -0.57251799    -0.00041091    -0.00022711    -0.00020566
     6
  Step:     1            Position(A)                                  Velocity(au)
C        -0.03911823     0.01184022     0.00444168     0.00004962     0.00008883    -0.00005416
N        -0.04556813    -0.05901931     1.30871495     0.00010379    -0.00004443     0.00014204
H         0.93801942     0.00947687    -0.49442945     0.00031371    -0.00045027    -0.00047418
H         0.88145949    -0.06529152     1.85968461    -0.00111046     0.00023027    -0.00116612
H        -0.92370812    -0.02355490     1.86099423    -0.00090030    -0.00002110     0.00046318
H        -1.00934288     0.08865645    -0.57349880    -0.00033654    -0.00020000    -0.00015138
     6
  Step:     2            Position(A)                                  Velocity(au)
C        -0.03886359     0.01232930     0.00381766     0.00004354     0.00009015    -0.00017373
N        -0.04497559    -0.05929121     1.30978105     0.00011114    -0.00005489     0.00024704
H         0.93977452     0.00711187    -0.49708319     0.00032424    -0.00041529    -0.00049402
H         0.87498944    -0.06394034     1.85309743    -0.00124086     0.00026325    -0.00123265
H        -0.92863342    -0.02356902     1.86353114    -0.00089002     0.00001490     0.00045843
H        -1.01097147     0.08763537    -0.57417366    -0.00025671    -0.00017422    -0.00009452
     6
  Step:     3            Position(A)                                  Velocity(au)
C        -0.03864200     0.01282618     0.00254161     0.00003758     0.00009167    -0.00029200
N        -0.04435265    -0.05961967     1.31141679     0.00011473    -0.00006502     0.00034972
H         0.94156556     0.00493502    -0.49983239     0.00032678    -0.00038162    -0.00050925
H         0.86788857    -0.06241245     1.84620355    -0.00133808     0.00029453    -0.00127623
H        -0.93344200    -0.02339191     1.86600789    -0.00085814     0.00004851     0.00044177
H        -1.01215042     0.08675103    -0.57453252    -0.00017280    -0.00015015    -0.00003652
     6
  Step:     4            Position(A)                                  Velocity(au)
C        -0.03845255     0.01333200     0.00062368     0.00003183     0.00009334    -0.00040758
N        -0.04372061    -0.06000242     1.31360631     0.00011425    -0.00007463     0.00044862
H         0.94334889     0.00293762    -0.50265351     0.00032137    -0.00034957    -0.00052024
H         0.86035326    -0.06071867     1.83913776    -0.00139598     0.00032344    -0.00129293
H        -0.93801989    -0.02303843     1.86836330    -0.00080598     0.00007910     0.00041452
H        -1.01286161     0.08599300    -0.57457310    -0.00008645    -0.00012806     0.00002114
     6
  Step:     5            Position(A)                                  Velocity(au)
C        -0.03829373     0.01384758    -0.00191837     0.00002639     0.00009508    -0.00051883
N        -0.04310240    -0.06043633     1.31632594     0.00010944    -0.00008356     0.00054215
H         0.94508223     0.00110976    -0.50552519     0.00030846    -0.00031927    -0.00052733
H         0.85261276    -0.05887309     1.83205542    -0.00140875     0.00034944    -0.00127920
H        -0.94226161    -0.02252632     1.87054382    -0.00073534     0.00010624     0.00037815
H        -1.01309642     0.08534966    -0.57430113     0.00000035    -0.00010810     0.00007693
     6
  Step:     6            Position(A)                                  Velocity(au)
C        -0.03816356     0.01437317    -0.00505794     0.00002137     0.00009675    -0.00062396
N        -0.04252221    -0.06091747     1.31954327     0.00010011    -0.00009167     0.00062856
H         0.94672676    -0.00055859    -0.50842817     0.00028884    -0.00029065    -0.00053088
H         0.84492634    -0.05689203     1.82512957    -0.00137140     0.00037219    -0.00123224
H        -0.94607245    -0.02187506     1.87250432    -0.00064851     0.00012969     0.00033433
H        -1.01285782     0.08480921    -0.57373066     0.00008522    -0.00009022     0.00012923
     6
  Step:     7            Position(A)                                  Velocity(au)
C        -0.03805947     0.01490824    -0.00875868     0.00001687     0.00009820    -0.00072106
N        -0.04200494    -0.06144124     1.32321670     0.00008625    -0.00009883     0.00070612
H         0.94824874    -0.00207659    -0.51134507     0.00026358    -0.00026353    -0.00053119
H         0.83757845    -0.05479287     1.81854669    -0.00128047     0.00039158    -0.00115042
H        -0.94937102    -0.02110459     1.87420901    -0.00054829     0.00014945     0.00028493
H        -1.01216223     0.08436065    -0.57288439     0.00016550    -0.00007420     0.00017641
     6
  Step:     8            Position(A)                                  Velocity(au)
C        -0.03797836     0.01545130    -0.01297418     0.00001299     0.00009926    -0.00080824
N        -0.04157527    -0.06200252     1.32729549     0.00006805    -0.00010497     0.00077318
H         0.94962057    -0.00345178    -0.51425998     0.00023387    -0.00023760    -0.00052850
H         0.83086841    -0.05259295     1.81249945    -0.00113491     0.00040769    -0.00103371
H        -0.95209192    -0.02023427     1.87563252    -0.00043799     0.00016569     0.00023202
H        -1.01104086     0.08399457    -0.57179393     0.00023840    -0.00005975     0.00021682
     6
  Step:     9            Position(A)                                  Velocity(au)
C        -0.03791655     0.01599991    -0.01764825     0.00000985     0.00009975    -0.00088383
N        -0.04125643    -0.06259576     1.33172069     0.00004597    -0.00011001     0.00082842
H         0.95082105    -0.00468989    -0.51715789     0.00020094    -0.00021259    -0.00052294
H         0.82509598    -0.05030886     1.80717723    -0.00093690     0.00042068    -0.00088415
H        -0.95418828    -0.01928225     1.87676095    -0.00032137     0.00017866     0.00017783
H        -1.00954019     0.08370350    -0.57049969     0.00030114    -0.00004651     0.00024891
     6
  Step:    10            Position(A)                                  Velocity(au)
C        -0.03786983     0.01655078    -0.02271604     0.00000752     0.00009955    -0.00094643
N        -0.04106859    -0.06321515     1.33642671     0.00002074    -0.00011394     0.00087091
H         0.95183543    -0.00579499    -0.52002404     0.00016608    -0.00018824    -0.00051473
H         0.82054151    -0.04795605     1.80275402    -0.00069253     0.00043079    -0.00070608
H        -0.95563419    -0.01826497     1.87759267    -0.00020258     0.00018872     0.00012470
H        -1.00772158     0.08348189    -0.56905034     0.00035118    -0.00003417     0.00027133
     6
  Step:    11            Position(A)                                  Velocity(au)
C        -0.03783348     0.01709989    -0.02810570     0.00000608     0.00009857    -0.00099510
N        -0.04102727    -0.06385468     1.34134372    -0.00000661    -0.00011673     0.00090024
H         0.95265616    -0.00676982    -0.52284534     0.00013067    -0.00016440    -0.00050430
H         0.81744398    -0.04554892     1.79937553    -0.00041174     0.00043822    -0.00050605
H        -0.95642664    -0.01719700     1.87813879    -0.00008596     0.00019625     0.00007496
H        -1.00565993     0.08332590    -0.56750166     0.00038636    -0.00002247     0.00028303
     6
  Step:    12            Position(A)                                  Velocity(au)
C        -0.03780248     0.01764278    -0.03374061     0.00001035     0.00017973    -0.00191223
N        -0.04114180    -0.06450833     1.34640034    -0.00006470    -0.00021996     0.00170261
H         0.95328310    -0.00761634    -0.52561107     0.00017843    -0.00026190    -0.00091427
H         0.81597994    -0.04310107     1.79714750    -0.00020016     0.00082318    -0.00054315
H        -0.95658657    -0.01609075     1.87842310     0.00004478     0.00037465     0.00005726
H        -1.00344120     0.08323300    -0.56591471     0.00075257    -0.00002079     0.00052640
     6
  Step:    13            Position(A)                                  Velocity(au)
C        -0.03775148     0.01862258    -0.04410127     0.00000863     0.00016762    -0.00175934
N        -0.04157483    -0.06571047     1.35563925    -0.00008842    -0.00020646     0.00157124
H         0.95445570    -0.00906414    -0.53095669     0.00023795    -0.00025228    -0.00097959
H         0.81577255    -0.03856203     1.79479638     0.00013035     0.00078877    -0.00029044
H        -0.95608344    -0.01406414     1.87865101     0.00012393     0.00034472     0.00003041
H        -0.99950030     0.08314570    -0.56337476     0.00063355    -0.00000939     0.00036943
     6
  Step:    14            Position(A)                                  Velocity(au)
C        -0.03770512     0.01953429    -0.05359387     0.00000856     0.00015347    -0.00158327
N        -0.04213955    -0.06683816     1.36413106    -0.00010926    -0.00019090     0.00141886
H         0.95596820    -0.01046325    -0.53666533     0.00029331    -0.00024117    -0.00102768
H         0.81745089    -0.03420014     1.79387001     0.00045379     0.00074950    -0.00004198
H        -0.95518810    -0.01220074     1.87876630     0.00018109     0.00031239     0.00001684
H        -0.99629195     0.08312704    -0.56174583     0.00048802     0.00000339     0.00020216
     6
  Step:    15            Position(A)                                  Velocity(au)
C        -0.03765423     0.02036706    -0.06209826     0.00001008     0.00013923    -0.00140590
N        -0.04281673    -0.06788038     1.37176743    -0.00012692    -0.00017555     0.00126520
H         0.95778970    -0.01180554    -0.54263832     0.00034377    -0.00023113    -0.00106707
H         0.82093080    -0.03004246     1.79431915     0.00075349     0.00071309     0.00018903
H        -0.95402503    -0.01051319     1.87884248     0.00021747     0.00028149     0.00001603
H        -0.99395297     0.08318426    -0.56107681     0.00032870     0.00001708     0.00003319
     6
  Step:    16            Position(A)                                  Velocity(au)
C        -0.03759023     0.02112075    -0.06961313     0.00001308     0.00012626    -0.00124165
N        -0.04358567    -0.06883847     1.37854713    -0.00014169    -0.00016201     0.00112339
H         0.95988523    -0.01309681    -0.54882389     0.00039002    -0.00022409    -0.00110646
H         0.82603643    -0.02607492     1.79602385     0.00102284     0.00068500     0.00039770
H        -0.95271014    -0.00899338     1.87894892     0.00023602     0.00025449     0.00002690
H        -0.99254661     0.08332171    -0.56136765     0.00016413     0.00003153    -0.00013368
     6
  Step:    17            Position(A)                                  Velocity(au)
C        -0.03750551     0.02180253    -0.07621521     0.00001738     0.00011501    -0.00109530
N        -0.04442767    -0.06972233     1.38453991    -0.00015378    -0.00015079     0.00099797
H         0.96222411    -0.01435332    -0.55521825     0.00043246    -0.00022084    -0.00115078
H         0.83256001    -0.02225429     1.79884079     0.00125951     0.00066697     0.00058381
H        -0.95134158    -0.00761979     1.87914830     0.00023938     0.00023211     0.00004846
H        -0.99208693     0.08354274    -0.56259666    -0.00000154     0.00004675    -0.00029802
     6
  Step:    18            Position(A)                                  Velocity(au)
C        -0.03739352     0.02242211    -0.08200646     0.00002279     0.00010533    -0.00096499
N        -0.04532574    -0.07054463     1.38983922    -0.00016299    -0.00014163     0.00088740
H         0.96477854    -0.01559559    -0.56184500     0.00047015    -0.00022116    -0.00120027
H         0.84028779    -0.01852816     1.80262968     0.00145995     0.00065762     0.00074748
H        -0.95000160    -0.00636703     1.87949723     0.00022907     0.00021384     0.00007986
H        -0.99256404     0.08385074    -0.56473979    -0.00016593     0.00006273    -0.00045987
     6
  Step:    19            Position(A)                                  Velocity(au)
C        -0.03724892     0.02298824    -0.08707785     0.00002905     0.00009682    -0.00084669
N        -0.04626238    -0.07131659     1.39452920    -0.00016880    -0.00013395     0.00078810
H         0.96751647    -0.01684289    -0.56872940     0.00050110    -0.00022436    -0.00125222
H         0.84899434    -0.01485163     1.80725505     0.00161850     0.00065420     0.00088753
H        -0.94876295    -0.00521268     1.88004729     0.00020601     0.00019870     0.00012019
H        -0.99395474     0.08424889    -0.56777336    -0.00032619     0.00007926    -0.00061799
     6
  Step:    20            Position(A)                                  Velocity(au)
C        -0.03706783     0.02350748    -0.09149780     0.00003586     0.00008912    -0.00073698
N        -0.04721796    -0.07204624     1.39867377    -0.00017075    -0.00012723     0.00069692
H         0.97039579    -0.01811061    -0.57588229     0.00052308    -0.00022965    -0.00130322
H         0.85843098    -0.01119470     1.81257878     0.00172955     0.00065394     0.00100216
H        -0.94769225    -0.00413963     1.88084459     0.00017121     0.00018583     0.00016828
H        -0.99622054     0.08473926    -0.57166738    -0.00047846     0.00009601    -0.00076993
     6
  Step:    21            Position(A)                                  Velocity(au)
C        -0.03684805     0.02398438    -0.09531547     0.00004292     0.00008198    -0.00063368
N        -0.04817093    -0.07273869     1.40231903    -0.00016861    -0.00012106     0.00061177
H         0.97336318    -0.01940982    -0.58329613     0.00053423    -0.00023638    -0.00135031
H         0.86832628    -0.00754220     1.81845670     0.00178957     0.00065468     0.00109010
H        -0.94684926    -0.00313559     1.88192820     0.00012623     0.00017459     0.00022264
H        -0.99930276     0.08532204    -0.57637923    -0.00061845     0.00011257    -0.00091279
     6
  Step:    22            Position(A)                                  Velocity(au)
C        -0.03658903     0.02442217    -0.09856768     0.00004991     0.00007527    -0.00053561
N        -0.04909909    -0.07339690     1.40549919    -0.00016243    -0.00011519     0.00053142
H         0.97635612    -0.02074792    -0.59094758     0.00053326    -0.00024402    -0.00139133
H         0.87839704    -0.00389053     1.82474095     0.00179790     0.00065486     0.00115110
H        -0.94628394    -0.00219177     1.88332859     0.00007322     0.00016455     0.00028157
H        -1.00312051     0.08599515    -0.58185136    -0.00074204     0.00012851    -0.00104384
     6
  Step:    23            Position(A)                                  Velocity(au)
C        -0.03629183     0.02482324    -0.10128457     0.00005658     0.00006891    -0.00044224
N        -0.04998109    -0.07402246     1.40824150    -0.00015250    -0.00010947     0.00045525
H         0.97930615    -0.02212934    -0.59880190     0.00051954    -0.00025215    -0.00142490
H         0.88836311    -0.00024412     1.83128527     0.00175650     0.00065348     0.00118601
H        -0.94603329    -0.00130175     1.88506621     0.00001481     0.00015543     0.00034318
H        -1.00757249     0.08675424    -0.58801233    -0.00084584     0.00014345    -0.00116081
     6
  Step:    24            Position(A)                                  Velocity(au)
C        -0.03595890     0.02518961    -0.10349302     0.00006270     0.00006286    -0.00035335
N        -0.05079758    -0.07461612     1.41056942    -0.00013932    -0.00010381     0.00038290
H         0.98214238    -0.02355620    -0.60681719     0.00049298    -0.00026044    -0.00145027
H         0.89795978     0.00338748     1.83794996     0.00166932     0.00064995     0.00119652
H        -0.94611903    -0.00046070     1.88715074    -0.00004607     0.00014702     0.00040550
H        -1.01254093     0.08759281    -0.59477968    -0.00092739     0.00015704    -0.00126212
     6
  Step:    25            Position(A)                                  Velocity(au)
C        -0.03559380     0.02552308    -0.10521845     0.00006810     0.00005712    -0.00026887
N        -0.05153212    -0.07517817     1.41250437    -0.00012345    -0.00009816     0.00031421
H         0.98479447    -0.02502879    -0.61494783     0.00045397    -0.00026863    -0.00146717
H         0.90694769     0.00699176     1.84460621     0.00154162     0.00064396     0.00118494
H        -0.94654617     0.00033501     1.88958068    -0.00010636     0.00013915     0.00046656
H        -1.01789711     0.08850255    -0.60206359    -0.00098527     0.00016899    -0.00134688
     6
  Step:    26            Position(A)                                  Velocity(au)
C        -0.03520091     0.02582539    -0.10648557     0.00007267     0.00005169    -0.00018873
N        -0.05217162    -0.07570868     1.41406667    -0.00010554    -0.00009251     0.00024906
H         0.98719519    -0.02654607    -0.62314712     0.00040327    -0.00027653    -0.00147570
H         0.91511836     0.01055492     1.85113861     0.00137944     0.00063546     0.00115393
H        -0.94730283     0.00108807     1.89234366    -0.00016308     0.00013167     0.00052448
H        -1.02350720     0.08947375    -0.60977073    -0.00101907     0.00017911    -0.00141481
     6
  Step:    27            Position(A)                                  Velocity(au)
C        -0.03478511     0.02609825    -0.10731862     0.00007634     0.00004656    -0.00011286
N        -0.05270652    -0.07620762     1.41527589    -0.00008622    -0.00008685     0.00018734
H         0.98928206    -0.02810599    -0.63136918     0.00034184    -0.00028402    -0.00147615
H         0.92229788     0.01406309     1.85744698     0.00118916     0.00062454     0.00110635
H        -0.94836092     0.00180025     1.89541702    -0.00021347     0.00012443     0.00057752
H        -1.02923720     0.09049568    -0.61780742    -0.00102918     0.00018726    -0.00146615
     6
  Step:    28            Position(A)                                  Velocity(au)
C        -0.03435154     0.02634338    -0.10774125     0.00007910     0.00004173    -0.00004115
N        -0.05313084    -0.07667497     1.41615093    -0.00006611    -0.00008119     0.00012893
H         0.99099829    -0.02970589    -0.63957008     0.00027074    -0.00029101    -0.00146900
H         0.92834839     0.01750323     1.86344728     0.00097714     0.00061141     0.00104507
H        -0.94967780     0.00247243     1.89876881    -0.00025511     0.00011726     0.00062413
H        -1.03495734     0.09155708    -0.62608235    -0.00101669     0.00019337    -0.00150153
     6
  Step:    29            Position(A)                                  Velocity(au)
C        -0.03390533     0.02656246    -0.10777627     0.00008095     0.00003721     0.00002659
N        -0.05344184    -0.07711073     1.41670995    -0.00004575    -0.00007554     0.00007369
H         0.99229346    -0.03134279    -0.64770862     0.00019115    -0.00029746    -0.00145477
H         0.93316646     0.02086373     1.86907105     0.00074920     0.00059635     0.00097273
H        -0.95119841     0.00310455     1.90235912    -0.00028599     0.00011000     0.00066303
H        -1.04054560     0.09264654    -0.63450864    -0.00098318     0.00019747    -0.00152187
     6
  Step:    30            Position(A)                                  Velocity(au)
C        -0.03345143     0.02675716    -0.10744552     0.00008193     0.00003298     0.00009055
N        -0.05363961    -0.07751494     1.41697032    -0.00002562    -0.00006990     0.00002147
H         0.99312384    -0.03301359    -0.65574669     0.00010426    -0.00030338    -0.00143400
H         0.93667923     0.02413452     1.87426379     0.00051053     0.00057965     0.00089173
H        -0.95285792     0.00369561     1.90614149    -0.00030461     0.00010248     0.00069315
H        -1.04588998     0.09375285    -0.64300511    -0.00093056     0.00019959    -0.00152825
     6
  Step:    31            Position(A)                                  Velocity(au)
C        -0.03299452     0.02692909    -0.10676965     0.00008211     0.00002904     0.00015094
N        -0.05372662    -0.07788772     1.41694860    -0.00000610    -0.00006427    -0.00002789
H         0.99345239    -0.03471525    -0.66364934     0.00001123    -0.00030878    -0.00140722
H         0.93884167     0.02730730     1.87898375     0.00026589     0.00056161     0.00080423
H        -0.95458452     0.00424374     1.91006441    -0.00030995     0.00009454     0.00071372
H        -1.05088999     0.09486528    -0.65149705    -0.00086086     0.00019985    -0.00152176
     6
  Step:    32            Position(A)                                  Velocity(au)
C        -0.03253897     0.02707983    -0.10576814     0.00008153     0.00002536     0.00020797
N        -0.05370741    -0.07822921     1.41666037     0.00001246    -0.00005868    -0.00007456
H         0.99324864    -0.03644493    -0.67138463    -0.00008677    -0.00031368    -0.00137491
H         0.93963401     0.03037555     1.88320092     0.00001962     0.00054256     0.00071223
H        -0.95630227     0.00474621     1.91407277    -0.00030149     0.00008605     0.00072417
H        -1.05545643     0.09597368    -0.65991592    -0.00077609     0.00019833    -0.00150348
     6
  Step:    33            Position(A)                                  Velocity(au)
C        -0.03208884     0.02721087    -0.10445931     0.00008024     0.00002195     0.00026182
N        -0.05358815    -0.07853961     1.41612027     0.00002980    -0.00005313    -0.00011871
H         0.99248844    -0.03820000    -0.67892332    -0.00018862    -0.00031813    -0.00133750
H         0.93905958     0.03333460     1.88689593    -0.00022431     0.00052280     0.00061755
H        -0.95793382     0.00519965     1.91810930    -0.00027919     0.00007689     0.00072423
H        -1.05951158     0.09706860    -0.66819926    -0.00067825     0.00019518    -0.00147440
     6
  Step:    34            Position(A)                                  Velocity(au)
C        -0.03164781     0.02732363    -0.10286047     0.00007832     0.00001879     0.00031264
N        -0.05337643    -0.07881922     1.41534199     0.00004568    -0.00004762    -0.00016049
H         0.99115384    -0.03997806    -0.68623861    -0.00029321    -0.00032216    -0.00129537
H         0.93714290     0.03618161     1.89005924    -0.00046215     0.00050265     0.00052189
H        -0.95940293     0.00560011     1.92211587    -0.00024343     0.00006697     0.00071380
H        -1.06298897     0.09814135    -0.67629032    -0.00056935     0.00019053    -0.00143550
     6
  Step:    35            Position(A)                                  Velocity(au)
C        -0.03121926     0.02741946    -0.10098806     0.00007581     0.00001586     0.00036056
N        -0.05308093    -0.07906839     1.41433833     0.00005992    -0.00004219    -0.00020004
H         0.98923293    -0.04177697    -0.69330584    -0.00039942    -0.00032580    -0.00124886
H         0.93392835     0.03891554     1.89269050    -0.00069034     0.00048244     0.00042689
H        -0.96063668     0.00594326     1.92603467    -0.00019499     0.00005625     0.00069304
H        -1.06583303     0.09918401    -0.68413762    -0.00045129     0.00018450    -0.00138764
     6
  Step:    36            Position(A)                                  Velocity(au)
C        -0.03080623     0.02749965    -0.09885789     0.00007277     0.00001315     0.00040564
N        -0.05271129    -0.07928758     1.41312131     0.00007234    -0.00003685    -0.00023748
H         0.98671983    -0.04359474    -0.70010222    -0.00050615    -0.00032906    -0.00119827
H         0.92947938     0.04153720     1.89479819    -0.00090543     0.00046250     0.00033414
H        -0.96156751     0.00622457     1.92980931    -0.00013499     0.00004470     0.00066227
H        -1.06799873     0.10018947    -0.69169456    -0.00032593     0.00017724    -0.00133163
     6
  Step:    37            Position(A)                                  Velocity(au)
C        -0.03041150     0.02756543    -0.09648544     0.00006925     0.00001066     0.00044790
N        -0.05227792    -0.07947738     1.41170228     0.00008283    -0.00003162    -0.00027290
H         0.98361465    -0.04542958    -0.70660669    -0.00061226    -0.00033198    -0.00114391
H         0.92387802     0.04404929     1.89639947    -0.00110400     0.00044317     0.00024522
H        -0.96213504     0.00643946     1.93338586    -0.00006488     0.00003234     0.00062202
H        -1.06945082     0.10115135    -0.69891877    -0.00019503     0.00016887    -0.00126820
     6
  Step:    38            Position(A)                                  Velocity(au)
C        -0.03003759     0.02761798    -0.09388609     0.00006528     0.00000838     0.00048731
N        -0.05179189    -0.07963856     1.41009205     0.00009125    -0.00002654    -0.00030637
H         0.97992363    -0.04727980    -0.71279984    -0.00071660    -0.00033456    -0.00108607
H         0.91722468     0.04645649     1.89752022    -0.00128271     0.00042482     0.00016174
H        -0.96228766     0.00658353     1.93671383     0.00001361     0.00001920     0.00057300
H        -1.07016363     0.10206401    -0.70577190    -0.00006034     0.00015954    -0.00119807
     6
  Step:    39            Position(A)                                  Velocity(au)
C        -0.02968676     0.02765846    -0.09107541     0.00006092     0.00000631     0.00052381
N        -0.05126484    -0.07977204     1.40830102     0.00009753    -0.00002165    -0.00033794
H         0.97565918    -0.04914380    -0.71866393    -0.00081800    -0.00033682    -0.00102508
H         0.90963774     0.04876554     1.89819506    -0.00143830     0.00040783     0.00008529
H        -0.96198399     0.00665267     1.93974716     0.00009849     0.00000538     0.00051611
H        -1.07012074     0.10292256    -0.71221940     0.00007646     0.00014938    -0.00112191
     6
  Step:    40            Position(A)                                  Velocity(au)
C        -0.02936109     0.02768800    -0.08806938     0.00005620     0.00000443     0.00055728
N        -0.05070880    -0.07987899     1.40633936     0.00010160    -0.00001699    -0.00036762
H         0.97084002    -0.05102008    -0.72418304    -0.00091529    -0.00033877    -0.00096132
H         0.90125281     0.05098535     1.89846730    -0.00156776     0.00039260     0.00001743
H        -0.96119391     0.00664327     1.94244504     0.00018764    -0.00000903     0.00045239
H        -1.06931458     0.10372284    -0.71823033     0.00021373     0.00013853    -0.00104042
     6
  Step:    41            Position(A)                                  Velocity(au)
C        -0.02906242     0.02770772    -0.08488456     0.00005117     0.00000277     0.00058761
N        -0.05013611    -0.07996081     1.40421707     0.00010343    -0.00001261    -0.00039544
H         0.96549116    -0.05290721    -0.72934330    -0.00100733    -0.00034044    -0.00089523
H         0.89222142     0.05312700     1.89838865    -0.00166834     0.00037954    -0.00004033
H        -0.95989946     0.00655233     1.94477281     0.00027877    -0.00002390     0.00038306
H        -1.06774637     0.10446145    -0.72377748     0.00034986     0.00012712    -0.00095435
     6
  Step:    42            Position(A)                                  Velocity(au)
C        -0.02879237     0.02771877    -0.08153823     0.00004587     0.00000131     0.00061468
N        -0.04955922    -0.08001918     1.40194417     0.00010300    -0.00000857    -0.00042138
H         0.95964380    -0.05480393    -0.73413323    -0.00109301    -0.00034185    -0.00082728
H         0.88270968     0.05520387     1.89801907    -0.00173763     0.00036907    -0.00008654
H        -0.95809542     0.00637762     1.94670264     0.00036955    -0.00003908     0.00030943
H        -1.06542602     0.10513579    -0.72883767     0.00048323     0.00011533    -0.00086449
     6
  Step:    43            Position(A)                                  Velocity(au)
C        -0.02855231     0.02772228    -0.07804835     0.00004034     0.00000006     0.00063836
N        -0.04899061    -0.08005607     1.39953065     0.00010035    -0.00000490    -0.00044544
H         0.95333506    -0.05670915    -0.73854408    -0.00117132    -0.00034306    -0.00075806
H         0.87289606     0.05723162     1.89742623    -0.00177386     0.00036157    -0.00011995
H        -0.95578949     0.00611770     1.94821422     0.00045763    -0.00005441     0.00023294
H        -1.06237201     0.10574410    -0.73339206     0.00061233     0.00010330    -0.00077171
     6
  Step:    44            Position(A)                                  Velocity(au)
C        -0.02834336     0.02771944    -0.07443350     0.00003465    -0.00000097     0.00065860
N        -0.04844242    -0.08007371     1.39698661     0.00009557    -0.00000166    -0.00046762
H         0.94660749    -0.05862208    -0.74257016    -0.00124138    -0.00034415    -0.00068818
H         0.86296737     0.05922799     1.89668406    -0.00177612     0.00035739    -0.00013968
H        -0.95300217     0.00577205     1.94929518     0.00054077    -0.00006973     0.00015507
H        -1.05861102     0.10628552    -0.73742651     0.00073572     0.00009122    -0.00067693
     6