     6
  Step:   300            Position(A)                                  Velocity(au)
C        -0.01983809     0.02176779     0.02920639    -0.00002335     0.00001672     0.00009582
N        -0.04077021    -0.05238697     1.28730501     0.00015363    -0.00005109    -0.00009591
H         0.22039674     0.92655816    -0.53316085    -0.00177022     0.00007209    -0.00046290
H        -0.30026413    -0.94427219     1.74231088    -0.00272504     0.00087395     0.00054175
H        -0.12838323     0.73370206     1.93457861     0.00087895    -0.00043249     0.00041743
H        -0.20174013    -0.91715977    -0.48855063     0.00175967    -0.00000290    -0.00030523
