     6
  Step:     0            Position(A)                                  Velocity(au)
C        -0.03977846     0.00634108     0.03657872    -0.00007314     0.00010977     0.00026716
N        -0.03856327    -0.03078272     1.28519501    -0.00016239     0.00003445    -0.00021594
H         0.87754346    -0.02422855    -0.48502532     0.00056849    -0.00030604    -0.00067234
H         0.83182551    -0.23984127     1.81073237     0.00078000    -0.00081854     0.00139921
H        -0.94890280    -0.14007152     1.84392301     0.00175279     0.00011933    -0.00124871
H        -0.96351282     0.08656925    -0.57298484     0.00002689    -0.00078148     0.00033915
     6
  Step:     1            Position(A)                                  Velocity(au)
C        -0.04021525     0.00694327     0.03782145    -0.00008525     0.00011041     0.00018534
N        -0.03947815    -0.03059293     1.28425176    -0.00016954     0.00003474    -0.00012778
H         0.88121786    -0.02589953    -0.48918848     0.00076209    -0.00030457    -0.00084194
H         0.83601676    -0.24436889     1.81844541     0.00073570    -0.00083234     0.00140774
H        -0.93892358    -0.13943414     1.83693544     0.00187542     0.00011156    -0.00129320
H        -0.96343932     0.08231749    -0.57124771    -0.00000142    -0.00077301     0.00029455
     6
  Step:     2            Position(A)                                  Velocity(au)
C        -0.04071128     0.00754925     0.03860682    -0.00009454     0.00011096     0.00010032
N        -0.04041851    -0.03040257     1.28379680    -0.00017133     0.00003466    -0.00003812
H         0.88588281    -0.02756138    -0.49423849     0.00092756    -0.00030210    -0.00099384
H         0.83987602    -0.24894932     1.82613693     0.00065951    -0.00083682     0.00139017
H        -0.92838055    -0.13885079     1.82977187     0.00195271     0.00009905    -0.00130900
H        -0.96352834     0.07811038    -0.56976169    -0.00003229    -0.00076397     0.00024697
     6
  Step:     3            Position(A)                                  Velocity(au)
C        -0.04125063     0.00815840     0.03892006    -0.00010086     0.00011136     0.00001343
N        -0.04135451    -0.03021331     1.28383434    -0.00016760     0.00003435     0.00005128
H         0.89137600    -0.02920797    -0.50007245     0.00106197    -0.00029840    -0.00112571
H         0.84323937    -0.25353336     1.83366983     0.00055573    -0.00083265     0.00134880
H        -0.91753851    -0.13834938     1.82259999     0.00197846     0.00008112    -0.00129228
H        -0.96379299     0.07395093    -0.56854304    -0.00006525    -0.00075436     0.00019659
     6
  Step:     4            Position(A)                                  Velocity(au)
C        -0.04181680     0.00876981     0.03875400    -0.00010417     0.00011156    -0.00007389
N        -0.04225551    -0.03002606     1.28435886    -0.00015825     0.00003393     0.00013863
H         0.89752272    -0.03083200    -0.50657702     0.00116382    -0.00029328    -0.00123613
H         0.84596719    -0.25807567     1.84092066     0.00042897    -0.00082058     0.00128635
H        -0.90669528    -0.13796161     1.81560758     0.00194740     0.00005715    -0.00123992
H        -0.96424358     0.06984207    -0.56760689    -0.00009975    -0.00074422     0.00014369
     6
  Step:     5            Position(A)                                  Velocity(au)
C        -0.04239339     0.00938227     0.03810949    -0.00010454     0.00011152    -0.00016015
N        -0.04309059    -0.02984103     1.28535518    -0.00014333     0.00003355     0.00022224
H         0.90414338    -0.03242532    -0.51363312     0.00123286    -0.00028664    -0.00132448
H         0.84794527    -0.26253535     1.84778138     0.00028397    -0.00080152     0.00120581
H        -0.89617509    -0.13772244     1.80899778     0.00185578     0.00002664    -0.00114985
H        -0.96488732     0.06578670    -0.56696675    -0.00013520    -0.00073354     0.00008861
     6
  Step:     6            Position(A)                                  Velocity(au)
C        -0.04296468     0.00999433     0.03699550    -0.00010216     0.00011119    -0.00024391
N        -0.04382924    -0.02965771     1.28679908    -0.00012300     0.00003331     0.00030056
H         0.91105970    -0.03397930    -0.52111994     0.00126993    -0.00027841    -0.00139083
H         0.84908527    -0.26687646     1.85416065     0.00012549    -0.00077642     0.00111037
H        -0.88631857    -0.13766907     1.80298208     0.00170212    -0.00001065    -0.00102155
H        -0.96572806     0.06178766    -0.56663393    -0.00017094    -0.00072237     0.00003181
     6
  Step:     7            Position(A)                                  Velocity(au)
C        -0.04351613     0.01060431     0.03542883    -0.00009728     0.00011054    -0.00032380
N        -0.04444241    -0.02947495     1.28865841    -0.00009767     0.00003332     0.00037230
H         0.91810019    -0.03548510    -0.52891861     0.00127676    -0.00026860    -0.00143589
H         0.84932448    -0.27106838     1.85998458    -0.00004184    -0.00074630     0.00100325
H        -0.87746845    -0.13783943     1.79777070     0.00148778    -0.00005464    -0.00085641
H        -0.96676602     0.05784769    -0.56661714    -0.00020632    -0.00071071    -0.00002619
     6
  Step:     8            Position(A)                                  Velocity(au)
C        -0.04403479     0.01121037     0.03343357    -0.00009022     0.00010955    -0.00039857
N        -0.04490361    -0.02929117     1.29089457    -0.00006793     0.00003365     0.00043647
H         0.92510464    -0.03693404    -0.53691529     0.00125570    -0.00025726    -0.00146078
H         0.84862500    -0.27508609     1.86519688    -0.00021358    -0.00071220     0.00088769
H        -0.86995232    -0.13827017     1.79356116     0.00121750    -0.00010487    -0.00065801
H        -0.96799763     0.05396950    -0.56692199    -0.00024062    -0.00069858    -0.00008478
     6
  Step:     9            Position(A)                                  Velocity(au)
C        -0.04450952     0.01181050     0.03104022    -0.00008132     0.00010817    -0.00046716
N        -0.04519034    -0.02910446     1.29346427    -0.00003464     0.00003433     0.00049238
H         0.93192650    -0.03831776    -0.54500297     0.00120947    -0.00024446    -0.00146690
H         0.84697280    -0.27891029     1.86975879    -0.00038543    -0.00067517     0.00076686
H        -0.86406285    -0.13899416     1.79052551     0.00089952    -0.00016038    -0.00043216
H        -0.96941541     0.05015575    -0.56755065    -0.00027312    -0.00068596    -0.00014331
     6
  Step:    10            Position(A)                                  Velocity(au)
C        -0.04493111     0.01240257     0.02828476    -0.00007096     0.00010640    -0.00052865
N        -0.04528540    -0.02891283     1.29632129     0.00000110     0.00003536     0.00053966
H         0.93843485    -0.03962835    -0.55308278     0.00114103    -0.00023029    -0.00145581
H         0.84437697    -0.28252754     1.87364878    -0.00055322    -0.00063629     0.00064385
H        -0.86003828    -0.14003784     1.78879809     0.00054553    -0.00021973    -0.00018682
H        -0.97100781     0.04640921    -0.56850147    -0.00030308    -0.00067279    -0.00020104
     6
  Step:    11            Position(A)                                  Velocity(au)
C        -0.04529237     0.01298434     0.02520772    -0.00005948     0.00010420    -0.00058230
N        -0.04517822    -0.02871439     1.29941818     0.00003798     0.00003669     0.00057820
H         0.94451526    -0.04085846    -0.56106461     0.00105338    -0.00021484    -0.00142905
H         0.84086918    -0.28593036     1.87686228    -0.00071285    -0.00059663     0.00052173
H        -0.85804412    -0.14141844     1.78846440     0.00017013    -0.00028101     0.00006835
H        -0.97275920     0.04273294    -0.56976867    -0.00032974    -0.00065900    -0.00025718
     6
  Step:    12            Position(A)                                  Velocity(au)
C        -0.04558807     0.01355346     0.02185323    -0.00004725     0.00010156    -0.00062751
N        -0.04486586    -0.02850758     1.30270756     0.00007456     0.00003827     0.00060811
H         0.95006953    -0.04200129    -0.56886684     0.00094951    -0.00019823    -0.00138819
H         0.83650345    -0.28911741     1.87941133    -0.00086025    -0.00055732     0.00040350
H        -0.85815918    -0.14314164     1.78955305    -0.00021010    -0.00034194     0.00032259
H        -0.97464985     0.03913051    -0.57134208    -0.00035238    -0.00064445    -0.00031091
     6
  Step:    13            Position(A)                                  Velocity(au)
C        -0.04581485     0.01410746     0.01826826    -0.00003460     0.00009846    -0.00066386
N        -0.04435363    -0.02829121     1.30614307     0.00010933     0.00004000     0.00062964
H         0.95501570    -0.04305060    -0.57641625     0.00083246    -0.00018056    -0.00133477
H         0.83135596    -0.29209364     1.88132446    -0.00099140    -0.00051953     0.00029214
H        -0.86036758    -0.14519983     1.79203186    -0.00057786    -0.00040003     0.00056491
H        -0.97665604     0.03560613    -0.57320690    -0.00037028    -0.00062903    -0.00036134
     6
  Step:    14            Position(A)                                  Velocity(au)
C        -0.04597119     0.01464382     0.01450170    -0.00002186     0.00009490    -0.00069112
N        -0.04365512    -0.02806460     1.30968011     0.00014084     0.00004181     0.00064318
H         0.95928810    -0.04400077    -0.58364801     0.00070521    -0.00016197    -0.00127039
H         0.82552475    -0.29487062     1.88264647    -0.00110248    -0.00048449     0.00019058
H        -0.86455833    -0.14757154     1.79580882    -0.00091658    -0.00045283     0.00078502
H        -0.97875032     0.03216468    -0.57534356    -0.00038286    -0.00061264    -0.00040765
     6
  Step:    15            Position(A)                                  Velocity(au)
C        -0.04605725     0.01516000     0.01060331    -0.00000932     0.00009090    -0.00070931
N        -0.04279166    -0.02782747     1.31327635     0.00016781     0.00004363     0.00064925
H         0.96283695    -0.04484690    -0.59050571     0.00057078    -0.00014262    -0.00119677
H         0.81912877    -0.29746689     1.88343809    -0.00119008    -0.00045348     0.00010158
H        -0.87053298    -0.15022197     1.80073824    -0.00121192    -0.00049814     0.00097429
H        -0.98090218     0.02881158    -0.57772794    -0.00038968    -0.00059525    -0.00044907
     6
  Step:    16            Position(A)                                  Velocity(au)
C        -0.04607474     0.01565356     0.00662243     0.00000274     0.00008649    -0.00071876
N        -0.04179102    -0.02757991     1.31689217     0.00018928     0.00004542     0.00064848
H         0.96562854    -0.04558505    -0.59694206     0.00043214    -0.00012271    -0.00111579
H         0.81230500    -0.29990801     1.88377486    -0.00125145    -0.00042785     0.00002765
H        -0.87802075    -0.15310498     1.80663154    -0.00145314    -0.00053428     0.00112651
H        -0.98307899     0.02555250    -0.58033198    -0.00039053    -0.00057696    -0.00048504
     6
  Step:    17            Position(A)                                  Velocity(au)
C        -0.04602671     0.01612227     0.00260638     0.00001413     0.00008174    -0.00072013
N        -0.04068577    -0.02732209     1.32049129     0.00020463     0.00004719     0.00064165
H         0.96764489    -0.04621220    -0.60291991     0.00029210    -0.00010243    -0.00102953
H         0.80520519    -0.30222712     1.88374569    -0.00128478    -0.00040894    -0.00002916
H        -0.88670057    -0.15616640     1.81327182    -0.00163388    -0.00056030     0.00123840
H        -0.98524718     0.02239230    -0.58312448    -0.00038545    -0.00055806    -0.00051522
     6
  Step:    18            Position(A)                                  Velocity(au)
C        -0.04591729     0.01656429    -0.00140134     0.00002468     0.00007673    -0.00071438
N        -0.03951100    -0.02705410     1.32404153     0.00021367     0.00004898     0.00062968
H         0.96888321    -0.04672639    -0.60841329     0.00015324    -0.00008199    -0.00094019
H         0.79798973    -0.30446450     1.88344997    -0.00128944    -0.00039801    -0.00006738
H        -0.89622576    -0.15934797     1.82043004    -0.00175237    -0.00057598     0.00130960
H        -0.98737373     0.01933443    -0.58607267    -0.00037476    -0.00053896    -0.00053960
     6
  Step:    19            Position(A)                                  Velocity(au)
C        -0.04575141     0.01697824    -0.00536273     0.00003429     0.00007157    -0.00070275
N        -0.03830223    -0.02677573     1.32751548     0.00021657     0.00005087     0.00061356
H         0.96935435    -0.04712681    -0.61340798     0.00001766    -0.00006155    -0.00084992
H         0.79082118    -0.30666701     1.88299410    -0.00126596    -0.00039616    -0.00008624
H        -0.90624867    -0.16259161     1.82788075    -0.00181096    -0.00058182     0.00134237
H        -0.98942768     0.01638010    -0.58914388    -0.00035899    -0.00052016    -0.00055848
     6
  Step:    20            Position(A)                                  Velocity(au)
C        -0.04553445     0.01736329    -0.00924651     0.00004295     0.00006636    -0.00068655
N        -0.03709329    -0.02648626     1.33089105     0.00021380     0.00005296     0.00059432
H         0.96908032    -0.04741353    -0.61790133    -0.00011312    -0.00004124    -0.00076063
H         0.78385723    -0.30888707     1.88248726    -0.00121589    -0.00040428    -0.00008570
H        -0.91644236    -0.16584316     1.83541558    -0.00181506    -0.00057886     0.00134081
H        -0.99138128     0.01352767    -0.59230727    -0.00033880    -0.00050221    -0.00057239
     6
  Step:    21            Position(A)                                  Velocity(au)
C        -0.04527188     0.01771917    -0.01302863     0.00005065     0.00006117    -0.00066703
N        -0.03591491    -0.02618443     1.33415156     0.00020601     0.00005536     0.00057285
H         0.96809126    -0.04758730    -0.62190108    -0.00023812    -0.00002110    -0.00067388
H         0.77724467    -0.31118117     1.88203718    -0.00114153    -0.00042296    -0.00006637
H        -0.92651544    -0.16905508     1.84285209    -0.00177185    -0.00056840     0.00131000
H        -0.99321074     0.01077248    -0.59553511    -0.00031491    -0.00048562    -0.00058198
     6
  Step:    22            Position(A)                                  Velocity(au)
C        -0.04496904     0.01804603    -0.01669200     0.00005747     0.00005606    -0.00064527
N        -0.03479377    -0.02586837     1.33728535     0.00019390     0.00005816     0.00054993
H         0.96642242    -0.04764911    -0.62542333    -0.00035682    -0.00000112    -0.00059080
H         0.77111530    -0.31360827     1.88174648    -0.00104559    -0.00045250    -0.00002939
H        -0.93622011    -0.17218776     1.85003808    -0.00168900    -0.00055182     0.00125520
H        -0.99489630     0.00810714    -0.59880345    -0.00028792    -0.00047076    -0.00058791
     6
  Step:    23            Position(A)                                  Velocity(au)
C        -0.04463097     0.01834435    -0.02022534     0.00006344     0.00005105    -0.00062207
N        -0.03375230    -0.02553573     1.34028490     0.00017819     0.00006145     0.00052608
H         0.96411165    -0.04759981    -0.62849024    -0.00046899     0.00001879    -0.00051208
H         0.76558323    -0.31622787     1.88170938    -0.00093111    -0.00049279     0.00002356
H        -0.94535285    -0.17520950     1.85685132    -0.00157374    -0.00053034     0.00118122
H        -0.99642190     0.00552208    -0.60209202    -0.00025837    -0.00045789    -0.00059070
     6
  Step:    24            Position(A)                                  Velocity(au)
C        -0.04426235     0.01861476    -0.02362163     0.00006863     0.00004616    -0.00059793
N        -0.03280876    -0.02518387     1.34314571     0.00015954     0.00006524     0.00050166
H         0.96119808    -0.04743977    -0.63112771    -0.00057444     0.00003876    -0.00043811
H         0.76074312    -0.31909783     1.88200888    -0.00080133    -0.00054340     0.00009035
H        -0.95375098    -0.17809561     1.86319650    -0.00143240    -0.00050499     0.00109220
H        -0.99777448     0.00300640    -0.60538363    -0.00022667    -0.00044710    -0.00059071
     6
  Step:    25            Position(A)                                  Velocity(au)
C        -0.04386756     0.01885788    -0.02687663     0.00007755     0.00004179    -0.00060685
N        -0.03197757    -0.02480997     1.34586529     0.00013624     0.00007107     0.00050226
H         0.95772165    -0.04716862    -0.63336371    -0.00070123     0.00013080    -0.00033914
H         0.75666931    -0.32227267     1.88271447    -0.00067595    -0.00069621     0.00013874
H        -0.96128676    -0.18082699     1.86900088    -0.00125575    -0.00040486     0.00100706
H        -0.99894333     0.00054854    -0.60866307    -0.00018435    -0.00051536    -0.00055496
     6
  Step:    26            Position(A)                                  Velocity(au)
C        -0.04340092     0.01907899    -0.03036260     0.00008934     0.00003908    -0.00066155
N        -0.03129542    -0.02439439     1.34872486     0.00010848     0.00007709     0.00053957
H         0.95340867    -0.04598683    -0.63489493    -0.00085241     0.00025828    -0.00020882
H         0.75323456    -0.32683142     1.88355004    -0.00055570    -0.00090358     0.00016152
H        -0.96770013    -0.18259291     1.87438313    -0.00103811    -0.00026207     0.00090918
H        -0.99982228    -0.00271830    -0.61154827    -0.00012583    -0.00062959    -0.00047689
     6
  Step:    27            Position(A)                                  Velocity(au)
C        -0.04287628     0.01929149    -0.03421676     0.00009908     0.00003770    -0.00072760
N        -0.03077400    -0.02395461     1.35185203     0.00007913     0.00008138     0.00058806
H         0.94826393    -0.04430295    -0.63568065    -0.00099631     0.00034121    -0.00007839
H         0.75050369    -0.33229823     1.88450662    -0.00042662    -0.00106075     0.00018535
H        -0.97280491    -0.18373470     1.87908852    -0.00079714    -0.00015580     0.00078211
H        -1.00033940    -0.00643694    -0.61395436    -0.00006015    -0.00070477    -0.00039074
     6
  Step:    28            Position(A)                                  Velocity(au)
C        -0.04230241     0.01949700    -0.03842962     0.00010718     0.00003649    -0.00079007
N        -0.03041814    -0.02349213     1.35524471     0.00004916     0.00008544     0.00063462
H         0.94236244    -0.04220383    -0.63576403    -0.00112433     0.00041139     0.00004304
H         0.74850461    -0.33859207     1.88560509    -0.00029430    -0.00120565     0.00021174
H        -0.97653811    -0.18432033     1.88305443    -0.00054724    -0.00005912     0.00064606
H        -1.00048912    -0.01053222    -0.61588051     0.00000544    -0.00076873    -0.00030522
     6
  Step:    29            Position(A)                                  Velocity(au)
C        -0.04168826     0.01969594    -0.04297393     0.00011355     0.00003530    -0.00084639
N        -0.03022906    -0.02300759     1.35888620     0.00001929     0.00008932     0.00067723
H         0.93580188    -0.03974313    -0.63520365    -0.00123227     0.00047280     0.00015273
H         0.74724169    -0.34566172     1.88685351    -0.00016323    -0.00134094     0.00023809
H        -0.97887050    -0.18439003     1.88624947    -0.00029440     0.00003117     0.00050591
H        -1.00027914    -0.01495750    -0.61733746     0.00006871    -0.00082483    -0.00022218
     6
  Step:    30            Position(A)                                  Velocity(au)
C        -0.04104359     0.01988832    -0.04781259     0.00011802     0.00003407    -0.00089493
N        -0.03020427    -0.02250196     1.36275245    -0.00000977     0.00009292     0.00071471
H         0.92870160    -0.03696240    -0.63407092    -0.00131613     0.00052699     0.00024824
H         0.74669508    -0.35345762     1.88824452    -0.00003801    -0.00146597     0.00026157
H        -0.97980178    -0.18397477     1.88866296    -0.00004422     0.00011605     0.00036541
H        -0.99972735    -0.01967624    -0.61834358     0.00012783    -0.00087435    -0.00014306
     6
  Step:    31            Position(A)                                  Velocity(au)
C        -0.04037914     0.02007389    -0.05290104     0.00012040     0.00003278    -0.00093449
N        -0.03033743    -0.02197683     1.36681421    -0.00003728     0.00009614     0.00074624
H         0.92120259    -0.03389744    -0.63245008    -0.00137204     0.00057468     0.00032715
H         0.74682006    -0.36192314     1.88975505     0.00007680    -0.00157903     0.00027948
H        -0.97936103    -0.18310277     1.89030282     0.00019760     0.00019562     0.00022805
H        -0.99886121    -0.02465628    -0.61892437     0.00018105    -0.00091783    -0.00006921
     6
  Step:    32            Position(A)                                  Velocity(au)
C        -0.03970675     0.02025233    -0.05818870     0.00012052     0.00003143    -0.00096418
N        -0.03061824    -0.02143452     1.37103828    -0.00006252     0.00009883     0.00077122
H         0.91346714    -0.03058147    -0.63043835    -0.00139651     0.00061620     0.00038724
H         0.74754780    -0.37099038     1.89134769     0.00017701    -0.00167800     0.00028945
H        -0.97760767    -0.18180275     1.89119509     0.00042528     0.00026950     0.00009724
H        -0.99771705    -0.02986740    -0.61911209     0.00022680    -0.00095552    -0.00000192
     6
  Step:    33            Position(A)                                  Velocity(au)
C        -0.03903918     0.02042329    -0.06362078     0.00011826     0.00003001    -0.00098350
N        -0.03103248    -0.02087807     1.37538868    -0.00008479     0.00010089     0.00078935
H         0.90567619    -0.02704650    -0.62814470    -0.00138683     0.00065180     0.00042666
H         0.74878805    -0.38057915     1.89297313     0.00025911    -0.00176089     0.00028971
H        -0.97463271    -0.18010648     1.89138397     0.00063306     0.00033706    -0.00002366
H        -0.99633960    -0.03527974    -0.61894576     0.00026371    -0.00098756     0.00005764
     6
  Step:    34            Position(A)                                  Velocity(au)
C        -0.03838989     0.02058650    -0.06914012     0.00011356     0.00002855    -0.00099237
N        -0.03156238    -0.02031111     1.37982782    -0.00010352     0.00010224     0.00080056
H         0.89802457    -0.02332353    -0.62568745    -0.00134139     0.00068176     0.00044414
H         0.75043305    -0.39059825     1.89457361     0.00032051    -0.00182625     0.00027917
H        -0.97055845    -0.17804950     1.89093158     0.00081551     0.00039766    -0.00013152
H        -0.99478058    -0.04086405    -0.61847023     0.00029072    -0.00101423     0.00010855
     6
  Step:    35            Position(A)                                  Velocity(au)
C        -0.03777258     0.02074177    -0.07468947     0.00010645     0.00002708    -0.00099120
N        -0.03218710    -0.01973767     1.38431791    -0.00011824     0.00010287     0.00080509
H         0.89071467    -0.01944228    -0.62319084    -0.00126000     0.00070654     0.00043926
H         0.75236295    -0.40094869     1.89608689     0.00035973    -0.00187340     0.00025748
H        -0.96553675    -0.17567111     1.88991703     0.00096779     0.00045069    -0.00022348
H        -0.99309698    -0.04659219    -0.61773505     0.00030715    -0.00103602     0.00015012
     6
  Step:    36            Position(A)                                  Velocity(au)
C        -0.03720057     0.02088903    -0.08021405     0.00009709     0.00002561    -0.00098079
N        -0.03288344    -0.01916181     1.38882248    -0.00012866     0.00010280     0.00080344
H         0.88394751    -0.01542983    -0.62077991    -0.00114399     0.00072682     0.00041249
H         0.75445203    -0.41152845     1.89745023     0.00037642    -0.00190261     0.00022498
H        -0.95974600    -0.17301426     1.88843474     0.00108594     0.00049574    -0.00029719
H        -0.99134905    -0.05243877    -0.61679304     0.00031272    -0.00105368     0.00018202
     6
  Step:    37            Position(A)                                  Velocity(au)
C        -0.03668625     0.02102834    -0.08566388     0.00008571     0.00002417    -0.00096235
N        -0.03362677    -0.01858738     1.39330786    -0.00013464     0.00010211     0.00079634
H         0.87791410    -0.01130959    -0.61857532    -0.00099624     0.00074349     0.00036527
H         0.75657488    -0.42223770     1.89860422     0.00037133    -0.00191504     0.00018257
H        -0.95338576    -0.17012415     1.88659163     0.00116711     0.00053265    -0.00035088
H        -0.98959785    -0.05838220    -0.61569832     0.00030758    -0.00106818     0.00020427
     6
  Step:    38            Position(A)                                  Velocity(au)
C        -0.03624036     0.02115986    -0.09099580     0.00007265     0.00002279    -0.00093730
N        -0.03439193    -0.01801775     1.39774431    -0.00013619     0.00010092     0.00078464
H         0.87278603    -0.00710003    -0.61668762    -0.00082095     0.00075759     0.00029988
H         0.75861224    -0.43298383     1.89949566     0.00034601    -0.00191258     0.00013157
H        -0.94667021    -0.16704664     1.88450359     0.00120959     0.00056157    -0.00038345
H        -0.98790303    -0.06440619    -0.61450448     0.00029226    -0.00108060     0.00021721
     6
  Step:    39            Position(A)                                  Velocity(au)
C        -0.03587159     0.02128389    -0.09617475     0.00005831     0.00002147    -0.00090714
N        -0.03515403    -0.01745562     1.40210685    -0.00013345     0.00009936     0.00076924
H         0.86870796    -0.00281402    -0.61521243    -0.00062334     0.00077018     0.00021931
H         0.76045508    -0.44368543     1.90007962     0.00030261    -0.00189755     0.00007349
H        -0.93982139    -0.16382671     1.88229166     0.00121281     0.00058285    -0.00039442
H        -0.98632040    -0.07050001    -0.61326250     0.00026759    -0.00109203     0.00022147
     6
  Step:    40            Position(A)                                  Velocity(au)
C        -0.03558614     0.02140076    -0.10117402     0.00004314     0.00002022    -0.00087330
N        -0.03588925    -0.01690293     1.40637531    -0.00012665     0.00009755     0.00075095
H         0.86579211     0.00154146    -0.61422690    -0.00040935     0.00078230     0.00012701
H         0.76200757    -0.45427458     1.90032028     0.00024357    -0.00187238     0.00000992
H        -0.93306237    -0.16050699     1.88007810     0.00117718     0.00059704    -0.00038397
H        -0.98490063    -0.07665895    -0.61201954     0.00023455    -0.00110352     0.00021782
     6
  Step:    41            Position(A)                                  Velocity(au)
C        -0.03538747     0.02151084    -0.10597494     0.00002762     0.00001905    -0.00083703
N        -0.03657534    -0.01636092     1.41053406    -0.00011610     0.00009561     0.00073046
H         0.86411423     0.00596503    -0.61378709    -0.00018540     0.00079484     0.00002674
H         0.76318841    -0.46469738     1.90019092     0.00017142    -0.00183938    -0.00005765
H        -0.92661100    -0.15712663     1.87798271     0.00110406     0.00060484    -0.00035280
H        -0.98368825    -0.08288379    -0.61081807     0.00019424    -0.00111590     0.00020713
     6
  Step:    42            Position(A)                                  Velocity(au)
C        -0.03527624     0.02161451    -0.11056588     0.00001223     0.00001795    -0.00079939
N        -0.03719199    -0.01583018     1.41457135    -0.00010217     0.00009363     0.00070831
H         0.86371182     0.01045994    -0.61392682     0.00004188     0.00080848    -0.00007762
H         0.76393092    -0.47491316     1.89967341     0.00008863    -0.00180060    -0.00012781
H        -0.92067435    -0.15372046     1.87611957     0.00099574     0.00060702    -0.00030217
H        -0.98272114    -0.08917980    -0.60969544     0.00014784    -0.00112979     0.00019030
     6
  Step:    43            Position(A)                                  Velocity(au)
C        -0.03525032     0.02171212    -0.11494091    -0.00000256     0.00001690    -0.00076119
N        -0.03772128    -0.01531082     1.41847843    -0.00008528     0.00009167     0.00068489
H         0.86458391     0.01503289    -0.61465766     0.00026588     0.00082363    -0.00018225
H         0.76418252    -0.48489292     1.89875744    -0.00000240    -0.00175778    -0.00019924
H        -0.91544281    -0.15031833     1.87459361     0.00085551     0.00060445    -0.00023392
H        -0.98203007    -0.09555546    -0.60868363     0.00009659    -0.00114553     0.00016826
     6
  Step:    44            Position(A)                                  Velocity(au)
C        -0.03530495     0.02180399    -0.11909864    -0.00001631     0.00001592    -0.00072304
N        -0.03814794    -0.01480262     1.42224886    -0.00006592     0.00008976     0.00066051
H         0.86669230     0.01969266    -0.61596986     0.00048025     0.00084049    -0.00028354
H         0.76390402    -0.49461757     1.89743992    -0.00009941    -0.00171237    -0.00027075
H        -0.91108427    -0.14694467     1.87349741     0.00068772     0.00059809    -0.00015045
H        -0.98163840    -0.10202103    -0.60780926     0.00004181    -0.00116327     0.00014193
     6