     6
  Step:   120            Position(A)                                  Velocity(au)
C        -0.03310072     0.07644476    -0.12170745     0.00000517     0.00016234     0.00006832
N        -0.04204406     0.00721212     1.42976346     0.00004584     0.00002846    -0.00014029
H         0.87577474    -0.37989787    -0.50792196    -0.00049229    -0.00079954     0.00089856
H         0.79093302    -0.53328987     1.75453125    -0.00028825    -0.00016029    -0.00053415
H        -0.90974969    -0.47143391     1.73413006    -0.00043482    -0.00059581    -0.00029092
H        -0.99121037    -0.29629570    -0.50693082     0.00051685    -0.00077432     0.00106199
