     6
  Step:     0            Position(A)                                  Velocity(au)
C        -0.03055535     0.00864616     0.02654172    -0.00001329     0.00004303     0.00028929
N        -0.04760652    -0.05276259     1.28642019    -0.00017795     0.00007823    -0.00018514
H         0.91276569     0.00355901    -0.51483746     0.00016823    -0.00036421     0.00004541
H         0.82426817    -0.09805873     1.85650124     0.00079935    -0.00047469     0.00030027
H        -0.90339014    -0.06317132     1.88452270     0.00170335    -0.00039799    -0.00092447
H        -1.02092515     0.11807251    -0.52696500    -0.00003976    -0.00036297    -0.00029564
     6
  Step:     1            Position(A)                                  Velocity(au)
C        -0.03067464     0.00887991     0.02773766    -0.00003034     0.00004301     0.00014909
N        -0.04857386    -0.05237052     1.28575090    -0.00017344     0.00006574    -0.00006096
H         0.91406923     0.00170340    -0.51463942     0.00031314    -0.00031915     0.00002891
H         0.82868485    -0.10053112     1.85803529     0.00080614    -0.00043229     0.00025183
H        -0.89415110    -0.06519685     1.87929467     0.00165257    -0.00034686    -0.00097600
H        -1.02102078     0.11619225    -0.52841918    -0.00000012    -0.00032772    -0.00023414
     6
  Step:     2            Position(A)                                  Velocity(au)
C        -0.03088724     0.00911661     0.02817250    -0.00004720     0.00004410     0.00001090
N        -0.04950368    -0.05204353     1.28575335    -0.00016430     0.00005442     0.00006036
H         0.91619090     0.00006806    -0.51452127     0.00046357    -0.00028337     0.00001630
H         0.83308588    -0.10278726     1.85925584     0.00079446    -0.00039551     0.00018754
H        -0.88531392    -0.06696532     1.87384703     0.00155619    -0.00030413    -0.00100297
H        -1.02092644     0.11448779    -0.52952603     0.00003131    -0.00029867    -0.00016958
     6
  Step:     3            Position(A)                                  Velocity(au)
C        -0.03119085     0.00936221     0.02785687    -0.00006346     0.00004614    -0.00012520
N        -0.05037086    -0.05177533     1.28641110    -0.00015064     0.00004416     0.00017836
H         0.91913942    -0.00139588    -0.51446111     0.00061273    -0.00025553     0.00000800
H         0.83737410    -0.10485688     1.86008648     0.00076610    -0.00036350     0.00011097
H        -0.87713061    -0.06852317     1.86832489     0.00141358    -0.00026923    -0.00100213
H        -1.02067834     0.11292560    -0.53027390     0.00005703    -0.00027511    -0.00010361
     6
  Step:     4            Position(A)                                  Velocity(au)
C        -0.03158119     0.00962116     0.02680337    -0.00007877     0.00004883    -0.00025859
N        -0.05115106    -0.05156065     1.28770391    -0.00013261     0.00003475     0.00029219
H         0.92289164    -0.00272637    -0.51443378     0.00075551    -0.00023355     0.00000463
H         0.84146388    -0.10676247     1.86046935     0.00072323    -0.00033487     0.00002527
H        -0.86985514    -0.06990962     1.86288780     0.00122450    -0.00024067    -0.00097133
H        -1.02030275     0.11147916    -0.53065905     0.00007822    -0.00025563    -0.00003753
     6
  Step:     5            Position(A)                                  Velocity(au)
C        -0.03205225     0.00989616     0.02502908    -0.00009282     0.00005180    -0.00038831
N        -0.05182102    -0.05139534     1.28960625    -0.00011047     0.00002596     0.00040076
H         0.92740110    -0.00394978    -0.51441047     0.00088788    -0.00021510     0.00000679
H         0.84528278    -0.10851875     1.86036285     0.00066825    -0.00030799    -0.00006659
H        -0.86374039    -0.07115500     1.85770318     0.00098987    -0.00021652    -0.00090973
H        -1.01982299     0.11013019    -0.53068432     0.00009516    -0.00023849     0.00002746
     6
  Step:     6            Position(A)                                  Velocity(au)
C        -0.03259630     0.01018770     0.02255673    -0.00010410     0.00005331    -0.00052664
N        -0.05235922    -0.05127670     1.29208677    -0.00008539     0.00001485     0.00051348
H         0.93260173    -0.00507881    -0.51435948     0.00096418    -0.00018185     0.00001039
H         0.84877210    -0.11013071     1.85974110     0.00059640    -0.00026869    -0.00014908
H        -0.85902963    -0.07227756     1.85293872     0.00072493    -0.00017984    -0.00080399
H        -1.01926202     0.10887099    -0.53035872     0.00014145    -0.00021117     0.00008273
     6
  Step:     7            Position(A)                                  Velocity(au)
C        -0.03319113     0.01047939     0.01926745    -0.00011100     0.00005761    -0.00067702
N        -0.05275517    -0.05123293     1.29522383    -0.00005818     0.00000537     0.00063347
H         0.93794947    -0.00593922    -0.51429678     0.00096108    -0.00015972     0.00001253
H         0.85180757    -0.11145824     1.85873187     0.00050533    -0.00024167    -0.00021659
H        -0.85580943    -0.07312252     1.84890731     0.00043950    -0.00016153    -0.00065208
H        -1.01827552     0.10781990    -0.52977925     0.00022516    -0.00019815     0.00012073
     6
  Step:     8            Position(A)                                  Velocity(au)
C        -0.03381158     0.01081848     0.01514422    -0.00011455     0.00006587    -0.00082275
N        -0.05299620    -0.05121794     1.29902237    -0.00002872     0.00000034     0.00074785
H         0.94312428    -0.00682755    -0.51422230     0.00092149    -0.00016422     0.00001648
H         0.85430477    -0.11277672     1.85736976     0.00040433    -0.00023967    -0.00027940
H        -0.85421766    -0.07404615     1.84579926     0.00012870    -0.00017598    -0.00047249
H        -1.01679682     0.10670156    -0.52903692     0.00030959    -0.00020981     0.00014687
     6
  Step:     9            Position(A)                                  Velocity(au)
C        -0.03444701     0.01120154     0.01024750    -0.00011598     0.00007329    -0.00095479
N        -0.05307005    -0.05122917     1.30342270     0.00000235    -0.00000420     0.00084935
H         0.94805195    -0.00773958    -0.51411616     0.00086827    -0.00016738     0.00002326
H         0.85624031    -0.11408580     1.85566878     0.00030083    -0.00023714    -0.00033769
H        -0.85439846    -0.07505183     1.84372733    -0.00020163    -0.00019025    -0.00027624
H        -1.01488137     0.10551968    -0.52816912     0.00038190    -0.00022008     0.00016513
     6
  Step:    10            Position(A)                                  Velocity(au)
C        -0.03508570     0.01162355     0.00465557    -0.00011509     0.00007958    -0.00106954
N        -0.05297039    -0.05126414     1.30835272     0.00003375    -0.00000825     0.00093547
H         0.95266249    -0.00866624    -0.51396679     0.00080246    -0.00016860     0.00003136
H         0.85760949    -0.11538183     1.85366017     0.00019871    -0.00023375    -0.00038814
H        -0.85643264    -0.07613611     1.84276465    -0.00053768    -0.00020332    -0.00007193
H        -1.01260150     0.10428392    -0.52722287     0.00043877    -0.00022806     0.00017382
     6
  Step:    11            Position(A)                                  Velocity(au)
C        -0.03571479     0.01207824    -0.00153443    -0.00011170     0.00008455    -0.00116351
N        -0.05269822    -0.05132001     1.31372769     0.00006400    -0.00001171     0.00100391
H         0.95689177    -0.00959683    -0.51377069     0.00072559    -0.00016765     0.00003936
H         0.85842926    -0.11666082     1.85139306     0.00010230    -0.00022949    -0.00042750
H        -0.86032148    -0.07729157     1.84293492    -0.00086318    -0.00021444     0.00013040
H        -1.01004795     0.10300735    -0.52625429     0.00047695    -0.00023319     0.00017149
     6
  Step:    12            Position(A)                                  Velocity(au)
C        -0.03632057     0.01255822    -0.00820718    -0.00010577     0.00008800    -0.00123381
N        -0.05226290    -0.05139355     1.31945106     0.00009150    -0.00001452     0.00105290
H         0.96068397    -0.01051966    -0.51353166     0.00063976    -0.00016445     0.00004605
H         0.85874045    -0.11791890     1.84893412     0.00001615    -0.00022446    -0.00045285
H        -0.86597523    -0.07850679     1.84420624    -0.00116095    -0.00022291     0.00032023
H        -1.00732870     0.10170597    -0.52532701     0.00049385    -0.00023503     0.00015720
     6
  Step:    13            Position(A)                                  Velocity(au)
C        -0.03688909     0.01305522    -0.01523246    -0.00009741     0.00008986    -0.00127884
N        -0.05168236    -0.05148119     1.32541724     0.00011481    -0.00001664     0.00108170
H         0.96399459    -0.01142257    -0.51325938     0.00054779    -0.00015904     0.00005052
H         0.85860857    -0.11915281     1.84636537    -0.00005546    -0.00021889    -0.00046211
H        -0.87321067    -0.07976642     1.84649024    -0.00141517    -0.00022817     0.00048788
H        -1.00456513     0.10039801    -0.52450900     0.00048801    -0.00023338     0.00013077
     6
  Step:    14            Position(A)                                  Velocity(au)
C        -0.03740709     0.01356055    -0.02247229    -0.00008690     0.00009017    -0.00129906
N        -0.05098221    -0.05157918     1.33151711     0.00013283    -0.00001808     0.00109116
H         0.96679439    -0.01229368    -0.51296815     0.00045314    -0.00015167     0.00005201
H         0.85812183    -0.12036051     1.84377938    -0.00010908    -0.00021317    -0.00045443
H        -0.88176110    -0.08105201     1.84964837    -0.00161404    -0.00022995     0.00062594
H        -1.00188507     0.09910267    -0.52386826     0.00045962    -0.00022840     0.00009289
     6
  Step:    15            Position(A)                                  Velocity(au)
C        -0.03786304     0.01406583    -0.02979207    -0.00007473     0.00008915    -0.00129740
N        -0.05019366    -0.05168384     1.33764682     0.00014500    -0.00001889     0.00108407
H         0.96907330    -0.01312250    -0.51267646     0.00035964    -0.00014282     0.00005002
H         0.85738598    -0.12154204     1.84127223    -0.00014265    -0.00020792    -0.00043041
H        -0.89130056    -0.08234369     1.85350568    -0.00175206    -0.00022840     0.00073060
H        -0.99941381     0.09783819    -0.52346790     0.00041060    -0.00022063     0.00004501
     6
  Step:    16            Position(A)                                  Velocity(au)
C        -0.03824819     0.01456388    -0.03707383    -0.00009559     0.00013547    -0.00198817
N        -0.04935032    -0.05179180     1.34371777     0.00023537    -0.00002980     0.00165524
H         0.97084198    -0.01390108    -0.51240523     0.00042099    -0.00020691     0.00006891
H         0.85651638    -0.12270058     1.83893529    -0.00024197    -0.00031693    -0.00060930
H        -0.90147966    -0.08362258     1.85787088    -0.00284595    -0.00034836     0.00124675
H        -0.99726395     0.09661958    -0.52336170     0.00053521    -0.00032799    -0.00001706
     6
  Step:    17            Position(A)                                  Velocity(au)
C        -0.03874999     0.01529686    -0.04783914    -0.00004988     0.00007555    -0.00110959
N        -0.04802547    -0.05195071     1.35270425     0.00014033    -0.00001604     0.00092940
H         0.97326049    -0.01503245    -0.51234865     0.00026706    -0.00011834    -0.00002867
H         0.85520873    -0.12442515     1.83569966    -0.00012640    -0.00017997    -0.00032121
H        -0.91754389    -0.08556897     1.86503784    -0.00171009    -0.00020706     0.00077364
H        -0.99474218     0.09489602    -0.52394910     0.00021371    -0.00017209    -0.00011716
     6
  Step:    18            Position(A)                                  Velocity(au)
C        -0.03899031     0.01571705    -0.05403101    -0.00003503     0.00007271    -0.00107425
N        -0.04724043    -0.05204053     1.35788779     0.00013494    -0.00001555     0.00089943
H         0.97453683    -0.01567312    -0.51253474     0.00018731    -0.00010795    -0.00003826
H         0.85456523    -0.12544726     1.83405849    -0.00009330    -0.00018190    -0.00025463
H        -0.92717480    -0.08671857     1.86946635    -0.00167130    -0.00019826     0.00077923
H        -0.99378993     0.09394949    -0.52479999     0.00011959    -0.00016216    -0.00018434
     6
  Step:    19            Position(A)                                  Velocity(au)
C        -0.03914694     0.01612068    -0.06001101    -0.00002069     0.00007040    -0.00104510
N        -0.04649656    -0.05212693     1.36289532     0.00012726    -0.00001499     0.00087581
H         0.97538287    -0.01625561    -0.51278213     0.00011654    -0.00009875    -0.00005084
H         0.85415153    -0.12648613     1.83281459    -0.00004696    -0.00018754    -0.00018354
H        -0.93648078    -0.08781540     1.87386695    -0.00161300    -0.00019027     0.00077258
H        -0.99338717     0.09305863    -0.52603776     0.00002146    -0.00015400    -0.00025529
     6
  Step:    20            Position(A)                                  Velocity(au)
C        -0.03922355     0.01651081    -0.06581504    -0.00000685     0.00006853    -0.00102088
N        -0.04580554    -0.05220953     1.36776297     0.00011745    -0.00001435     0.00085733
H         0.97585084    -0.01678661    -0.51310796     0.00005394    -0.00009047    -0.00006668
H         0.85403572    -0.12756189     1.83198895     0.00001110    -0.00019654    -0.00010805
H        -0.94536219    -0.08886398     1.87817758    -0.00153612    -0.00018276     0.00075517
H        -0.99354801     0.09221304    -0.52767854    -0.00007948    -0.00014747    -0.00032927
     6
  Step:    21            Position(A)                                  Velocity(au)
C        -0.03922385     0.01689003    -0.07147185     0.00000639     0.00006695    -0.00099930
N        -0.04517799    -0.05228800     1.37252000     0.00010558    -0.00001361     0.00084191
H         0.97598845    -0.01727125    -0.51353067    -0.00000090    -0.00008278    -0.00008591
H         0.85427612    -0.12869252     1.83160159     0.00007897    -0.00020828    -0.00002849
H        -0.95372586    -0.08986718     1.88234473    -0.00143995    -0.00017527     0.00072741
H        -0.99427947     0.09140308    -0.52973422    -0.00018147    -0.00014233    -0.00040486
     6
  Step:    22            Position(A)                                  Velocity(au)
C        -0.03915206     0.01726005    -0.07699743     0.00001885     0.00006553    -0.00097824
N        -0.04462406    -0.05236187     1.37718419     0.00009179    -0.00001277     0.00082767
H         0.97584082    -0.01771290    -0.51406933    -0.00004796    -0.00007542    -0.00010856
H         0.85491945    -0.12989258     1.83167012     0.00015414    -0.00022212     0.00005417
H        -0.96147564    -0.09082534     1.88631751    -0.00132432    -0.00016742     0.00068977
H        -0.99557869     0.09062037    -0.53220905    -0.00028207    -0.00013840    -0.00048025
     6
  Step:    23            Position(A)                                  Velocity(au)
C        -0.03901333     0.01762184    -0.08239617     0.00003030     0.00006417    -0.00095628
N        -0.04415296    -0.05243064     1.38176288     0.00007637    -0.00001183     0.00081327
H         0.97545282    -0.01811351    -0.51474301    -0.00008698    -0.00006824    -0.00013455
H         0.85599748    -0.13117303     1.83220653     0.00023350    -0.00023746     0.00013842
H        -0.96851489    -0.09173677     1.89004757    -0.00119037    -0.00015896     0.00064315
H        -0.99742943     0.08985749    -0.53509732    -0.00037844    -0.00013563    -0.00055346
     6
  Step:    24            Position(A)                                  Velocity(au)
C        -0.03881412     0.01797583    -0.08766449     0.00004046     0.00006282    -0.00093262
N        -0.04377219    -0.05249379     1.38625603     0.00005974    -0.00001078     0.00079791
H         0.97487055    -0.01847413    -0.51557015    -0.00011761    -0.00006115    -0.00016369
H         0.85752407    -0.13254133     1.83321413     0.00031356    -0.00025371     0.00022237
H        -0.97475387    -0.09259850     1.89349170    -0.00104058    -0.00014981     0.00058899
H        -0.99980008     0.08910742    -0.53838278    -0.00046766    -0.00013404    -0.00062262
     6
  Step:    25            Position(A)                                  Velocity(au)
C        -0.03856223     0.01832220    -0.09279431     0.00004910     0.00006145    -0.00090693
N        -0.04348691    -0.05255083     1.39065912     0.00004240    -0.00000965     0.00078119
H         0.97414150    -0.01879531    -0.51656805    -0.00013961    -0.00005410    -0.00019575
H         0.85949344    -0.13400181     1.83468587     0.00039069    -0.00027040     0.00030403
H        -0.98011675    -0.09340710     1.89661450    -0.00087835    -0.00013999     0.00052907
H        -1.00264361     0.08836307    -0.54203915    -0.00054705    -0.00013367    -0.00068606
     6
  Step:    26            Position(A)                                  Velocity(au)
C        -0.03826667     0.01866097    -0.09777576     0.00005603     0.00006008    -0.00087925
N        -0.04329951    -0.05260139     1.39496546     0.00002488    -0.00000846     0.00076302
H         0.97331406    -0.01907731    -0.51775252    -0.00015290    -0.00004708    -0.00023041
H         0.86187987    -0.13555603     1.83660375     0.00046143    -0.00028709     0.00038144
H        -0.98454655    -0.09415924     1.89939025    -0.00070764    -0.00012957     0.00046537
H        -1.00589908     0.08761713    -0.54603166    -0.00061434    -0.00013462    -0.00074249
     6
  Step:    27            Position(A)                                  Velocity(au)
C        -0.03793738     0.01899218    -0.10259901     0.00006112     0.00005871    -0.00084982
N        -0.04320948    -0.05264519     1.39916778     0.00000771    -0.00000723     0.00074350
H         0.97243650    -0.01932026    -0.51913744    -0.00015763    -0.00004006    -0.00026733
H         0.86463890    -0.13720316     1.83893941     0.00052262    -0.00030340     0.00045286
H        -0.98800786    -0.09485201     1.90180391    -0.00053260    -0.00011868     0.00039991
H        -1.00949423     0.08686191    -0.55031884    -0.00066784    -0.00013695    -0.00079095
     6
  Step:    28            Position(A)                                  Velocity(au)
C        -0.03758485     0.01931592    -0.10725548     0.00006431     0.00005736    -0.00081900
N        -0.04321354    -0.05268209     1.40325923    -0.00000863    -0.00000599     0.00072283
H         0.97155569    -0.01952419    -0.52073455    -0.00015420    -0.00003304    -0.00030609
H         0.86770965    -0.13894045     1.84165540     0.00057165    -0.00031907     0.00051685
H        -0.99048770    -0.09548314     1.90385123    -0.00035731    -0.00010745     0.00033466
H        -1.01334884     0.08608946    -0.55485470    -0.00070650    -0.00014072    -0.00083088
     6
  Step:    29            Position(A)                                  Velocity(au)
C        -0.03721974     0.01963233    -0.11173846     0.00006561     0.00005605    -0.00078723
N        -0.04330582    -0.05271207     1.40723404    -0.00002372    -0.00000476     0.00070127
H         0.97071574    -0.01968892    -0.52255319    -0.00014323    -0.00002597    -0.00034628
H         0.87101809    -0.14076369     1.84470708     0.00060655    -0.00033389     0.00057235
H        -0.99199517    -0.09605106     1.90553846    -0.00018565    -0.00009600     0.00027146
H        -1.01737822     0.08529156    -0.55959080    -0.00072988    -0.00014598    -0.00086207
     6
  Step:    30            Position(A)                                  Velocity(au)
C        -0.03685246     0.01994166    -0.11604346     0.00006510     0.00005480    -0.00075491
N        -0.04347831    -0.05273519     1.41108773    -0.00003720    -0.00000354     0.00067910
H         0.96995679    -0.01981407    -0.52460020    -0.00012554    -0.00001879    -0.00038746
H         0.87448076    -0.14266774     1.84804469     0.00062603    -0.00034777     0.00061867
H        -0.99256019    -0.09655485     1.90688160    -0.00002119    -0.00008445     0.00021198
H        -1.02149664     0.08445986    -0.56447823    -0.00073811    -0.00015275    -0.00088465
     6
  Step:    31            Position(A)                                  Velocity(au)
C        -0.03649285     0.02024425    -0.12016824     0.00006290     0.00005361    -0.00072248
N        -0.04372118    -0.05275162     1.41481726    -0.00004879    -0.00000236     0.00065657
H         0.96931389    -0.01989879    -0.52687982    -0.00010212    -0.00001142    -0.00042919
H         0.87800864    -0.14464707     1.85161552     0.00062944    -0.00036070     0.00065550
H        -0.99223175    -0.09699411     1.90790556     0.00013290    -0.00007287     0.00015772
H        -1.02562035     0.08358587    -0.56946927    -0.00073179    -0.00016107    -0.00089897
     6
  Step:    32            Position(A)                                  Velocity(au)
C        -0.03614990     0.02054047    -0.12411270     0.00005921     0.00005251    -0.00069027
N        -0.04402325    -0.05276156     1.41842092    -0.00005830    -0.00000122     0.00063391
H         0.96881621    -0.01994163    -0.52939376    -0.00007408    -0.00000371    -0.00047103
H         0.88151088    -0.14669638     1.85536589     0.00061679    -0.00037279     0.00068285
H        -0.99107581    -0.09736876     1.90864316     0.00027383    -0.00006129     0.00010999
H        -1.02966994     0.08266091    -0.57451868    -0.00071191    -0.00017098    -0.00090559
     6
  Step:    33            Position(A)                                  Velocity(au)
C        -0.03583152     0.02083079    -0.12787861     0.00005421     0.00005149    -0.00065858
N        -0.04437238    -0.05276524     1.42189811    -0.00006559    -0.00000012     0.00061128
H         0.96848640    -0.01994022    -0.53214124    -0.00004260     0.00000455    -0.00051257
H         0.88489824    -0.14881118     1.85924300     0.00058864    -0.00038426     0.00070102
H        -0.98917307    -0.09767869     1.90913414     0.00039920    -0.00004964     0.00006991
H        -1.03357247     0.08167601    -0.57958481    -0.00067977    -0.00018257    -0.00090524
     6
  Step:    34            Position(A)                                  Velocity(au)
C        -0.03554440     0.02111563    -0.13146908     0.00004814     0.00005056    -0.00062757
N        -0.04475587    -0.05276289     1.42524893    -0.00007059     0.00000095     0.00058874
H         0.96834040    -0.01989081    -0.53511919    -0.00000886     0.00001367    -0.00055343
H         0.88808602    -0.15098855     1.86319635     0.00054599    -0.00039546     0.00071052
H        -0.98661676    -0.09792324     1.90942409     0.00050701    -0.00003776     0.00003845
H        -1.03726301     0.08062158    -0.58463030    -0.00063688    -0.00019601    -0.00089873
     6
  Step:    35            Position(A)                                  Velocity(au)
C        -0.03529384     0.02139544    -0.13488789     0.00004125     0.00004970    -0.00059730
N        -0.04516078    -0.05275468     1.42847370    -0.00007329     0.00000198     0.00056628
H         0.96838745    -0.01978756    -0.53832255     0.00002598     0.00002414    -0.00059334
H         0.89099638    -0.15322812     1.86717883     0.00049022    -0.00040702     0.00071203
H        -0.98351029    -0.09810044     1.90956357     0.00059568    -0.00002527     0.00001640
H        -1.04068578     0.07948679    -0.58962267    -0.00058495    -0.00021162    -0.00088696
     6
  Step:    36            Position(A)                                  Velocity(au)
C        -0.03508377     0.02167059    -0.13813896     0.00003379     0.00004890    -0.00056770
N        -0.04557429    -0.05274073     1.43157250    -0.00007374     0.00000301     0.00054383
H         0.96863055    -0.01962122    -0.54174485     0.00006094     0.00003684    -0.00063213
H         0.89356020    -0.15553365     1.87114750     0.00042297    -0.00041993     0.00070630
H        -0.97996495    -0.09820547     1.90960720     0.00066403    -0.00001140     0.00000443
H        -1.04379506     0.07825844    -0.59453485    -0.00052589    -0.00023007    -0.00087099
     6
  Step:    37            Position(A)                                  Velocity(au)
C        -0.03491659     0.02194136    -0.14122556     0.00002606     0.00004814    -0.00053846
N        -0.04598400    -0.05272106     1.43454478    -0.00007205     0.00000405     0.00052110
H         0.96906771    -0.01937631    -0.54537947     0.00009543     0.00005354    -0.00067015
H         0.89571824    -0.15791613     1.87506376     0.00034608    -0.00043621     0.00069407
H        -0.97609728    -0.09822767     1.90961298     0.00071135     0.00000563     0.00000316
H        -1.04655667     0.07691836    -0.59934614    -0.00046216    -0.00025284    -0.00085223
     6
  Step:    38            Position(A)                                  Velocity(au)
C        -0.03479298     0.02220778    -0.14414796     0.00001844     0.00004729    -0.00050772
N        -0.04637833    -0.05269553     1.43738783    -0.00006843     0.00000516     0.00049683
H         0.96969556    -0.01902375    -0.54922348     0.00013083     0.00007898    -0.00070974
H         0.89742232    -0.16040161     1.87889309     0.00026176    -0.00046091     0.00067592
H        -0.97202655    -0.09814263     1.90964248     0.00073731     0.00003069     0.00001367
H        -1.04895257     0.07543681    -0.60404549    -0.00039863    -0.00028397    -0.00083400
     6
  Step:    39            Position(A)                                  Velocity(au)
C        -0.03471094     0.02246886    -0.14688916     0.00001163     0.00004549    -0.00046043
N        -0.04674737    -0.05266349     1.44008693    -0.00006341     0.00000673     0.00046060
H         0.97052713    -0.01849525    -0.55329660     0.00018572     0.00012340    -0.00077078
H         0.89863813    -0.16305754     1.88260361     0.00017520    -0.00050365     0.00065354
H        -0.96787263    -0.09788537     1.90976549     0.00074082     0.00007453     0.00003994
H        -1.05100336     0.07375072    -0.60864936    -0.00035921    -0.00032983    -0.00083677
     6
  Step:    40            Position(A)                                  Velocity(au)
C        -0.03466330     0.02271494    -0.14928152     0.00000546     0.00004489    -0.00040912
N        -0.04708529    -0.05262051     1.44252320    -0.00006105     0.00000972     0.00043103
H         0.97176619    -0.01764789    -0.55781724     0.00029986     0.00017119    -0.00093573
H         0.89937570    -0.16601697     1.88617966     0.00009953    -0.00057184     0.00067926
H        -0.96376684    -0.09731165     1.91008783     0.00077217     0.00011702     0.00008653
H        -1.05295760     0.07175944    -0.61337495    -0.00038814    -0.00038646    -0.00094470
     6
  Step:    41            Position(A)                                  Velocity(au)
C        -0.03465965     0.02296394    -0.15150240    -0.00000357     0.00004461    -0.00039042
N        -0.04739913    -0.05256408     1.44487045    -0.00005102     0.00001053     0.00041288
H         0.97348299    -0.01679587    -0.56308338     0.00031011     0.00014567    -0.00095106
H         0.89966385    -0.16907908     1.88990398     0.00000219    -0.00053941     0.00065499
H        -0.95954666    -0.09677669     1.91063920     0.00073400     0.00008585     0.00011701
H        -1.05486506     0.06968329    -0.61853857    -0.00029481    -0.00037004    -0.00090618
     6
  Step:    42            Position(A)                                  Velocity(au)
C        -0.03470303     0.02321185    -0.15363001    -0.00001159     0.00004447    -0.00037461
N        -0.04765354    -0.05250326     1.44712182    -0.00003982     0.00001134     0.00039606
H         0.97522013    -0.01602542    -0.56841002     0.00030963     0.00013530    -0.00096020
H         0.89940004    -0.17202484     1.89347486    -0.00009706    -0.00052327     0.00062648
H        -0.95559164    -0.09635547     1.91139107     0.00067825     0.00006933     0.00015754
H        -1.05624120     0.06763802    -0.62346794    -0.00019936    -0.00036882    -0.00086373
     6
  Step:    43            Position(A)                                  Velocity(au)
C        -0.03478870     0.02345895    -0.15567253    -0.00001880     0.00004436    -0.00036013
N        -0.04784238    -0.05243785     1.44927933    -0.00002763     0.00001219     0.00037952
H         0.97692971    -0.01528978    -0.57377213     0.00030086     0.00013124    -0.00096501
H         0.89858342    -0.17490401     1.89687784    -0.00019544    -0.00051393     0.00059613
H        -0.95199647    -0.09600495     1.91239295     0.00060657     0.00005844     0.00020615
H        -1.05708435     0.06557769    -0.62815349    -0.00010405    -0.00037378    -0.00082000
     6
  Step:    44            Position(A)                                  Velocity(au)
C        -0.03491216     0.02370539    -0.15763659    -0.00002519     0.00004428    -0.00034677
N        -0.04796093    -0.05236760     1.45134422    -0.00001474     0.00001310     0.00036320
H         0.97856732    -0.01456532    -0.57914631     0.00028429     0.00013058    -0.00096569
H         0.89722567    -0.17774262     1.90010715    -0.00029083    -0.00050850     0.00056530
H        -0.94884327    -0.09570534     1.91368462     0.00052144     0.00005030     0.00026113
H        -1.05739883     0.06347948    -0.63259085    -0.00000992    -0.00038202    -0.00077573
     6