 Fermi distribution function

Calculation with static geometry


********************************************************************************
 iSCC Total electronic   Diff electronic      SCC error    
   12   -0.53655244E+01   -0.20625279E-10    0.63956571E-07
********************************************************************************

 Total charge:     1.00000000

 Atomic gross charges (e)
 Atom           Charge
    1       0.35139152
    2      -0.24655831
    3       0.15164148
    4       0.31164262
    5       0.27961187
    6       0.15227082

Nr. of electrons (up):     12.00000000
Atom populations (up)
 Atom       Population
    1       3.64860848
    2       5.24655831
    3       0.84835852
    4       0.68835738
    5       0.72038813
    6       0.84772918

l-shell populations (up)
 Atom Sh.   l       Population
    1   1   0       1.31340567
    1   2   1       2.33520281
    2   1   0       1.42661725
    2   2   1       3.81994106
    3   1   0       0.84835852
    4   1   0       0.68835738
    5   1   0       0.72038813
    6   1   0       0.84772918

Orbital populations (up)
 Atom Sh.   l   m       Population  Label
    1   1   0   0       1.31340567  s
    1   2   1  -1       0.54120391  p_y
    1   2   1   0       0.89565612  p_z
    1   2   1   1       0.89834278  p_x
    2   1   0   0       1.42661725  s
    2   2   1  -1       1.37640388  p_y
    2   2   1   0       1.07412733  p_z
    2   2   1   1       1.36940984  p_x
    3   1   0   0       0.84835852  s
    4   1   0   0       0.68835738  s
    5   1   0   0       0.72038813  s
    6   1   0   0       0.84772918  s

Fermi level:                        -0.4885950996 H          -13.2953 eV
Band energy:                        -8.7979414156 H         -239.4042 eV
TS:                                  0.0000000000 H            0.0000 eV
Band free energy (E-TS):            -8.7979414156 H         -239.4042 eV
Extrapolated E(0K):                 -8.7979414156 H         -239.4042 eV
Input / Output electrons (q):     12.0000000000     12.0000000000

Energy H0:                          -5.4994163949 H         -149.6467 eV
Energy SCC:                          0.1338919595 H            3.6434 eV
Total Electronic energy:            -5.3655244354 H         -146.0033 eV
Repulsive energy:                    0.1816864330 H            4.9439 eV
Total energy:                       -5.1838380024 H         -141.0594 eV
Extrapolated to 0:                  -5.1838380024 H         -141.0594 eV
Total Mermin free energy:           -5.1838380024 H         -141.0594 eV
Force related energy:               -5.1838380024 H         -141.0594 eV

SCC converged

Excitation Energy:                   0.0781183871 H            2.1257 eV

Total Forces
    1     -0.005305263885      0.006733165601      0.033015658419
    2     -0.000384478016      0.003507490896     -0.028321760522
    3     -0.007777415155     -0.019232937767      0.003206340474
    4     -0.014540432660      0.011689287563     -0.000896655486
    5      0.017588334314     -0.015408497556     -0.007601396042
    6      0.010419255401      0.012711491263      0.000597813157

Maximal derivative component:        0.330157E-01 au


