|===============================================================================
|
|  DFTB+ release 20.1
|
|  Copyright (C) 2006 - 2020  DFTB+ developers group
|
|===============================================================================
|
|  When publishing results obtained with DFTB+, please cite the following
|  reference:
|
|  * DFTB+, a software package for efficient approximate density functional
|    theory based atomistic simulations, J. Chem. Phys. 152, 124101 (2020).
|    [doi: 10.1063/1.5143190]
|
|  You should also cite additional publications crediting the parametrization
|  data you use. Please consult the documentation of the SK-files for the
|  references.
|
|===============================================================================

Reading input file 'dftb_in.hsd'
Parser version: 8

--------------------------------------------------------------------------------
Reading SK-files:
Done.


Processed input in HSD format written to 'dftb_pin.hsd'

Starting initialization...
--------------------------------------------------------------------------------
WARNING!
-> Excited state forces are not implemented yet for fractional occupations, kT=  0.3158E-02K
OpenMP threads:              1
Chosen random seed:          506733991
Mode:                        Static calculation
Self consistent charges:     Yes
SCC-tolerance:                 0.100000E-05
Max. scc iterations:                    100
Shell resolved Hubbard:      No
Spin polarisation:           No
Nr. of up electrons:             6.000000
Nr. of down electrons:           6.000000
Periodic boundaries:         No
Electronic solver:           Relatively robust
Mixer:                       Broyden mixer
Mixing parameter:                  0.200000
Maximal SCC-cycles:                     100
Nr. of chrg. vec. in memory:              0
Electronic temperature:        0.100000E-07 H      0.272114E-06 eV
Initial charges:             Set automatically (system chrg:   0.100E+01)
Included shells:             C:  s, p
                             N:  s, p
                             H:  s
Extra options:
                             Mulliken analysis
                             Force calculation
Force type                   original
                             Eigenvector printing

--------------------------------------------------------------------------------

***  Geometry step: 0

 iSCC Total electronic   Diff electronic      SCC error    
    1   -0.53485780E+01    0.00000000E+00    0.98963227E+00
    2   -0.53578399E+01   -0.92619298E-02    0.68111028E+00
    3   -0.53642851E+01   -0.64451442E-02    0.14744585E+00
    4   -0.53558075E+01    0.84775907E-02    0.36861122E+00
    5   -0.53655151E+01   -0.97076635E-02    0.18330959E-01
    6   -0.53654952E+01    0.19889010E-04    0.25437153E-01
    7   -0.53655222E+01   -0.26973180E-04    0.67637017E-02
    8   -0.53655236E+01   -0.13735443E-05    0.42080018E-02
    9   -0.53655244E+01   -0.83189317E-06    0.62115027E-03
   10   -0.53655244E+01   -0.18334668E-07    0.55725019E-04
   11   -0.53655244E+01   -0.14744561E-09    0.20260746E-04
   12   -0.53655244E+01   -0.20625279E-10    0.63956571E-07
>> Charges saved for restart in charges.bin

Total Energy:                       -5.1057196153 H         -138.9337 eV
Extrapolated to 0:                  -5.1838380024 H         -141.0594 eV
Total Mermin free energy:           -5.1057196153 H         -138.9337 eV
Force related energy:               -5.1838380024 H         -141.0594 eV

--------------------------------------------------------------------------------
DFTB+ running times                          cpu [s]             wall clock [s]
--------------------------------------------------------------------------------
SCC                                    +     0.01  ( 57.4%)      0.04  ( 65.6%)
Post-SCC processing                    +     0.01  ( 37.5%)      0.02  ( 27.9%)
--------------------------------------------------------------------------------
Missing                                +     0.00  (  5.1%)      0.00  (  6.6%)
Total                                  =     0.02  (100.0%)      0.06  (100.0%)
--------------------------------------------------------------------------------
