|===============================================================================
|
|  DFTB+ release 20.1
|
|  Copyright (C) 2006 - 2020  DFTB+ developers group
|
|===============================================================================
|
|  When publishing results obtained with DFTB+, please cite the following
|  reference:
|
|  * DFTB+, a software package for efficient approximate density functional
|    theory based atomistic simulations, J. Chem. Phys. 152, 124101 (2020).
|    [doi: 10.1063/1.5143190]
|
|  You should also cite additional publications crediting the parametrization
|  data you use. Please consult the documentation of the SK-files for the
|  references.
|
|===============================================================================

Reading input file 'dftb_in.hsd'
Parser version: 8

--------------------------------------------------------------------------------
Reading SK-files:
Done.


Processed input in HSD format written to 'dftb_pin.hsd'

Starting initialization...
--------------------------------------------------------------------------------
WARNING!
-> Excited state forces are not implemented yet for fractional occupations, kT=  0.3158E-02K
OpenMP threads:              1
Chosen random seed:          506119492
Mode:                        Static calculation
Self consistent charges:     Yes
SCC-tolerance:                 0.100000E-05
Max. scc iterations:                    100
Shell resolved Hubbard:      No
Spin polarisation:           No
Nr. of up electrons:             6.000000
Nr. of down electrons:           6.000000
Periodic boundaries:         No
Electronic solver:           Relatively robust
Mixer:                       Broyden mixer
Mixing parameter:                  0.200000
Maximal SCC-cycles:                     100
Nr. of chrg. vec. in memory:              0
Electronic temperature:        0.100000E-07 H      0.272114E-06 eV
Initial charges:             Set automatically (system chrg:   0.100E+01)
Included shells:             C:  s, p
                             N:  s, p
                             H:  s
Extra options:
                             Mulliken analysis
                             Force calculation
Force type                   original
                             Eigenvector printing

--------------------------------------------------------------------------------

***  Geometry step: 0

 iSCC Total electronic   Diff electronic      SCC error    
    1   -0.53920908E+01    0.00000000E+00    0.83307346E+00
    2   -0.53981426E+01   -0.60518048E-02    0.57084595E+00
    3   -0.54024768E+01   -0.43342320E-02    0.90078765E-01
    4   -0.54020886E+01    0.38824490E-03    0.13843570E+00
    5   -0.54029027E+01   -0.81408837E-03    0.19359941E-01
    6   -0.54029106E+01   -0.79150977E-05    0.86733308E-02
    7   -0.54029124E+01   -0.18527912E-05    0.11349856E-03
    8   -0.54029124E+01   -0.13229684E-09    0.99147170E-04
    9   -0.54029124E+01   -0.42198955E-09    0.11527807E-05
   10   -0.54029124E+01    0.23092639E-13    0.12908100E-05
   11   -0.54029124E+01   -0.77271523E-13    0.19411176E-07
>> Charges saved for restart in charges.bin

Total Energy:                       -5.0983173027 H         -138.7323 eV
Extrapolated to 0:                  -5.1978726855 H         -141.4413 eV
Total Mermin free energy:           -5.0983173027 H         -138.7323 eV
Force related energy:               -5.1978726855 H         -141.4413 eV

--------------------------------------------------------------------------------
DFTB+ running times                          cpu [s]             wall clock [s]
--------------------------------------------------------------------------------
SCC                                    +     0.01  ( 41.3%)      0.09  ( 80.0%)
Post-SCC processing                    +     0.01  ( 51.0%)      0.02  ( 15.5%)
--------------------------------------------------------------------------------
Missing                                +     0.00  (  7.7%)      0.00  (  4.5%)
Total                                  =     0.02  (100.0%)      0.11  (100.0%)
--------------------------------------------------------------------------------
