 Fermi distribution function

Calculation with static geometry


********************************************************************************
 iSCC Total electronic   Diff electronic      SCC error    
   14   -0.52479502E+01   -0.28519409E-11    0.55952190E-08
********************************************************************************

 Total charge:     1.00000000

 Atomic gross charges (e)
 Atom           Charge
    1       0.30006118
    2      -0.18672826
    3       0.18812754
    4       0.25779732
    5       0.25687850
    6       0.18386370

Nr. of electrons (up):     12.00000000
Atom populations (up)
 Atom       Population
    1       3.69993882
    2       5.18672826
    3       0.81187246
    4       0.74220268
    5       0.74312150
    6       0.81613630

l-shell populations (up)
 Atom Sh.   l       Population
    1   1   0       1.42923228
    1   2   1       2.27070654
    2   1   0       1.54582445
    2   2   1       3.64090381
    3   1   0       0.81187246
    4   1   0       0.74220268
    5   1   0       0.74312150
    6   1   0       0.81613630

Orbital populations (up)
 Atom Sh.   l   m       Population  Label
    1   1   0   0       1.42923228  s
    1   2   1  -1       0.40033945  p_y
    1   2   1   0       0.86725208  p_z
    1   2   1   1       1.00311502  p_x
    2   1   0   0       1.54582445  s
    2   2   1  -1       1.39889829  p_y
    2   2   1   0       1.08109167  p_z
    2   2   1   1       1.16091385  p_x
    3   1   0   0       0.81187246  s
    4   1   0   0       0.74220268  s
    5   1   0   0       0.74312150  s
    6   1   0   0       0.81613630  s

Fermi level:                        -0.5233640766 H          -14.2415 eV
Band energy:                        -8.6451332478 H         -235.2460 eV
TS:                                  0.0000000000 H            0.0000 eV
Band free energy (E-TS):            -8.6451332478 H         -235.2460 eV
Extrapolated E(0K):                 -8.6451332478 H         -235.2460 eV
Input / Output electrons (q):     12.0000000000     12.0000000000

Energy H0:                          -5.3856614811 H         -146.5513 eV
Energy SCC:                          0.1377113066 H            3.7473 eV
Total Electronic energy:            -5.2479501744 H         -142.8040 eV
Repulsive energy:                    0.1311086332 H            3.5676 eV
Total energy:                       -5.1168415412 H         -139.2363 eV
Extrapolated to 0:                  -5.1168415412 H         -139.2363 eV
Total Mermin free energy:           -5.1168415412 H         -139.2363 eV
Force related energy:               -5.1168415412 H         -139.2363 eV

SCC converged

Excitation Energy:                   0.0957742797 H            2.6062 eV

Total Forces
    1      0.005162720374     -0.003888911992      0.017847211511
    2      0.027976415728      0.014039035966     -0.032786446786
    3     -0.002524521486     -0.006355167945     -0.004190920121
    4     -0.017833511178     -0.008363344425      0.005518775400
    5     -0.012709627557      0.000303520850      0.014710238364
    6     -0.000071475881      0.004264867546     -0.001098858368

Maximal derivative component:        0.327864E-01 au


