|===============================================================================
|
|  DFTB+ release 20.1
|
|  Copyright (C) 2006 - 2020  DFTB+ developers group
|
|===============================================================================
|
|  When publishing results obtained with DFTB+, please cite the following
|  reference:
|
|  * DFTB+, a software package for efficient approximate density functional
|    theory based atomistic simulations, J. Chem. Phys. 152, 124101 (2020).
|    [doi: 10.1063/1.5143190]
|
|  You should also cite additional publications crediting the parametrization
|  data you use. Please consult the documentation of the SK-files for the
|  references.
|
|===============================================================================

Reading input file 'dftb_in.hsd'
Parser version: 8

--------------------------------------------------------------------------------
Reading SK-files:
Done.


Processed input in HSD format written to 'dftb_pin.hsd'

Starting initialization...
--------------------------------------------------------------------------------
WARNING!
-> Excited state forces are not implemented yet for fractional occupations, kT=  0.3158E-02K
OpenMP threads:              1
Chosen random seed:          508849899
Mode:                        Static calculation
Self consistent charges:     Yes
SCC-tolerance:                 0.100000E-05
Max. scc iterations:                    100
Shell resolved Hubbard:      No
Spin polarisation:           No
Nr. of up electrons:             6.000000
Nr. of down electrons:           6.000000
Periodic boundaries:         No
Electronic solver:           Relatively robust
Mixer:                       Broyden mixer
Mixing parameter:                  0.200000
Maximal SCC-cycles:                     100
Nr. of chrg. vec. in memory:              0
Electronic temperature:        0.100000E-07 H      0.272114E-06 eV
Initial charges:             Set automatically (system chrg:   0.100E+01)
Included shells:             C:  s, p
                             N:  s, p
                             H:  s
Extra options:
                             Mulliken analysis
                             Force calculation
Force type                   original
                             Eigenvector printing

--------------------------------------------------------------------------------

***  Geometry step: 0

 iSCC Total electronic   Diff electronic      SCC error    
    1   -0.51986837E+01    0.00000000E+00    0.11366243E+01
    2   -0.52323464E+01   -0.33662748E-01    0.67282131E+00
    3   -0.52417439E+01   -0.93974829E-02    0.33396425E+00
    4   -0.46907209E+01    0.55102298E+00    0.23532837E+01
    5   -0.52378653E+01   -0.54714435E+00    0.30065699E+00
    6   -0.52479045E+01   -0.10039222E-01    0.20625038E-01
    7   -0.52479363E+01   -0.31810889E-04    0.99294049E-02
    8   -0.52479423E+01   -0.60469239E-05    0.87896309E-02
    9   -0.52479497E+01   -0.73924541E-05    0.19903120E-02
   10   -0.52479502E+01   -0.43217585E-06    0.10258608E-03
   11   -0.52479502E+01   -0.10164198E-08    0.14962867E-04
   12   -0.52479502E+01   -0.94146912E-11    0.51924887E-05
   13   -0.52479502E+01    0.64037664E-12    0.52968093E-05
   14   -0.52479502E+01   -0.28519409E-11    0.55952190E-08
>> Charges saved for restart in charges.bin

Total Energy:                       -5.0210672616 H         -136.6302 eV
Extrapolated to 0:                  -5.1168415412 H         -139.2363 eV
Total Mermin free energy:           -5.0210672616 H         -136.6302 eV
Force related energy:               -5.1168415412 H         -139.2363 eV

--------------------------------------------------------------------------------
DFTB+ running times                          cpu [s]             wall clock [s]
--------------------------------------------------------------------------------
SCC                                    +     0.02  ( 73.9%)      0.10  ( 85.5%)
Post-SCC processing                    +     0.00  ( 19.1%)      0.01  ( 10.3%)
--------------------------------------------------------------------------------
Missing                                +     0.00  (  7.0%)      0.00  (  4.3%)
Total                                  =     0.03  (100.0%)      0.12  (100.0%)
--------------------------------------------------------------------------------
