|===============================================================================
|
|  DFTB+ release 20.1
|
|  Copyright (C) 2006 - 2020  DFTB+ developers group
|
|===============================================================================
|
|  When publishing results obtained with DFTB+, please cite the following
|  reference:
|
|  * DFTB+, a software package for efficient approximate density functional
|    theory based atomistic simulations, J. Chem. Phys. 152, 124101 (2020).
|    [doi: 10.1063/1.5143190]
|
|  You should also cite additional publications crediting the parametrization
|  data you use. Please consult the documentation of the SK-files for the
|  references.
|
|===============================================================================

Reading input file 'dftb_in.hsd'
Parser version: 8

--------------------------------------------------------------------------------
Reading SK-files:
Done.


Processed input in HSD format written to 'dftb_pin.hsd'

Starting initialization...
--------------------------------------------------------------------------------
OpenMP threads:              1
Chosen random seed:          511176090
Mode:                        Static calculation
Self consistent charges:     Yes
SCC-tolerance:                 0.100000E-05
Max. scc iterations:                   1000
Shell resolved Hubbard:      No
Spin polarisation:           No
Nr. of up electrons:             6.000000
Nr. of down electrons:           6.000000
Periodic boundaries:         No
Electronic solver:           Relatively robust
Maximal SCC-cycles:                    1000
Initial charges:             Set automatically (system chrg:   0.100E+01)
Included shells:             C:  s, p
                             N:  s, p
                             H:  s
Spin coupling constants:     C   1(s)-1(s):  -0.455900E-01
                             C   1(s)-2(p):  -0.293000E-01
                             C   2(p)-1(s):  -0.293000E-01
                             C   2(p)-2(p):  -0.275500E-01
                             N   1(s)-1(s):  -0.468700E-01
                             N   1(s)-2(p):  -0.317000E-01
                             N   2(p)-1(s):  -0.317000E-01
                             N   2(p)-2(p):  -0.307200E-01
                             H   1(s)-1(s):  -0.792500E-01
Range separated hybrid:      Yes
  Screening parameter omega:   0.300000E+00
  Range separated algorithm:   MatrixBased
Extra options:
                             Mulliken analysis
                             Force calculation
Force type                   original
                             Eigenvector printing


REKS Calcuation:             Yes
SSR(2,2) Calcuation:         Yes
Energy Functional:           (PPS+OSS)/2
Number of Core Orbitals:                  5
Number of Active Orbitals:                2
Number of Basis:                         12
Number of States:                         2
State-Averaging Weight:          0.500000
                                 0.500000
State of Interest:                        1
Initial Guess:               Diagonalize H0 matrix
Newton-Raphson for FON opt:  Yes
NR max. Iterations:                      50
Level Shifting:              Yes
Shift Value:                     0.300000
W Scale Factor:              C  =    3.000000
                             N  =    3.000000
                             H  =    3.000000
Transition Dipole:           No
Gradient of Microstate:      No
CP-REKS Solver:              Preconditioned Conjugate-Gradient
CG max. Iterations:                     100
CG Tolerance:                  0.100000E-07
Memory for A and Hxc:        Direct Updating Without Saving
Non-Adiabatic Coupling:      Yes

--------------------------------------------------------------------------------

***  Geometry step: 0

  iSCC       reks energy        Diff energy         x_a       SCC error   
    1       -6.2660824943       0.0000000000     0.999725    1.19640053
    2       -6.2771767006      -0.0110942063     0.999873    0.07697222
    3       -6.2813739070      -0.0041972065     0.999927    0.02973077
    4       -6.2836876654      -0.0023137584     0.999951    0.01278003
    5       -6.2849984401      -0.0013107747     0.999962    0.01024948
    6       -6.2857271441      -0.0007287040     0.999968    0.00867964
    7       -6.2861232354      -0.0003960913     0.999971    0.00693942
    8       -6.2863348232      -0.0002115878     0.999972    0.00534567
    9       -6.2864465717      -0.0001117484     0.999973    0.00401802
   10       -6.2865052135      -0.0000586418     0.999974    0.00297086
   11       -6.2865359079      -0.0000306944     0.999974    0.00217234
   12       -6.2865519813      -0.0000160734     0.999974    0.00157648
   13       -6.2865604226      -0.0000084413     0.999974    0.00113816
   14       -6.2865648779      -0.0000044553     0.999974    0.00081883
   15       -6.2865672453      -0.0000023674     0.999974    0.00058770
   16       -6.2865685138      -0.0000012685     0.999974    0.00042118
   17       -6.2865692000      -0.0000006863     0.999974    0.00030157
   18       -6.2865695753      -0.0000003752     0.999974    0.00023106
   19       -6.2865697828      -0.0000002075     0.999974    0.00018172
   20       -6.2865698990      -0.0000001161     0.999974    0.00014306
   21       -6.2865699648      -0.0000000658     0.999974    0.00011393
   22       -6.2865700024      -0.0000000377     0.999974    0.00009094
   23       -6.2865700243      -0.0000000218     0.999974    0.00007250
   24       -6.2865700370      -0.0000000128     0.999974    0.00005774
   25       -6.2865700446      -0.0000000075     0.999974    0.00004594
   26       -6.2865700491      -0.0000000045     0.999974    0.00003652
   27       -6.2865700518      -0.0000000027     0.999974    0.00002901
   28       -6.2865700534      -0.0000000016     0.999974    0.00002302
   29       -6.2865700544      -0.0000000010     0.999974    0.00001826
   30       -6.2865700550      -0.0000000006     0.999974    0.00001448
   31       -6.2865700554      -0.0000000004     0.999974    0.00001147
   32       -6.2865700556      -0.0000000002     0.999974    0.00000909
   33       -6.2865700557      -0.0000000001     0.999974    0.00000719
   34       -6.2865700558      -0.0000000001     0.999974    0.00000569
   35       -6.2865700559      -0.0000000001     0.999974    0.00000450
   36       -6.2865700559      -0.0000000000     0.999974    0.00000356
   37       -6.2865700559      -0.0000000000     0.999974    0.00000282
   38       -6.2865700559      -0.0000000000     0.999974    0.00000223
   39       -6.2865700559      -0.0000000000     0.999974    0.00000176
   40       -6.2865700560      -0.0000000000     0.999974    0.00000139
   41       -6.2865700560      -0.0000000000     0.999974    0.00000110
   42       -6.2865700560      -0.0000000000     0.999974    0.00000087
  
--------------------------------------------------
 Final SA-REKS(2,2) energy:      -6.28657006
  
 State     Energy      FON(1)    FON(2)   Spin
  PPS   -6.41798381   1.999949  0.000051  0.00
  OSS   -6.15515630   1.000000  1.000000  0.00
 Trip   -6.23337054   1.000000  1.000000  1.00
--------------------------------------------------

 Lagrangian Wab:   0.00121987  0.00121982

--------------------------------------------------
 SSR: 2SI-2SA-REKS(2,2) Hamiltonian matrix
               PPS           OSS
   PPS    -6.41798381    0.00171639
   OSS     0.00171639   -6.15515630
--------------------------------------------------

----------------------------------------------------------------
 SSR: 2SI-2SA-REKS(2,2) states
                    E_n       C_{PPS}    C_{OSS}
 SSR state  1   -6.41799502  -0.999979   0.006530
 SSR state  2   -6.15514509  -0.006530  -0.999979
----------------------------------------------------------------

 unrelaxed SSR FONs for S0:  1.999906  0.000094

Total Energy:                       -6.4179950204 H         -174.6425 eV
Extrapolated to 0:                  -6.4179950204 H         -174.6425 eV

----------------------------------------------------------------------------------
 Solving CP-REKS equation for  1 state vector...
----------------------------------------------------------------------------------
  CG solver: Constructing Y initial guess
  CG solver: Iteration    1    eps =    0.000036394452
  CG solver: Iteration    2    eps =    0.000002740559
  CG solver: Iteration    3    eps =    0.000000276612
  CG solver: Iteration    4    eps =    0.000000003833
  Convergence reached in CG solver after    4 iterations
  CG solver: Calculating converged R, Z, Q2 matrix
----------------------------------------------------------------------------------

----------------------------------------------------------------------------------
 Solving CP-REKS equation for SI between  1 and  2 state vectors...
----------------------------------------------------------------------------------
  CG solver: Constructing Y initial guess
  CG solver: Iteration    1    eps =    0.000378910884
  CG solver: Iteration    2    eps =    0.000151623255
  CG solver: Iteration    3    eps =    0.000057497058
  CG solver: Iteration    4    eps =    0.000000928519
  CG solver: Iteration    5    eps =    0.000000078410
  CG solver: Iteration    6    eps =    0.000000003892
  Convergence reached in CG solver after    6 iterations
  CG solver: Calculating converged R, Z, Q2 matrix
----------------------------------------------------------------------------------

--------------------------------------------------
 Gradient Information
--------------------------------------------------
           1 st state (SSR)
    -0.00125853    -0.00207270     0.01781465
    -0.00305370     0.00841403    -0.01629266
    -0.00304076     0.00317755    -0.00594672
     0.00064516    -0.00675969     0.00608146
     0.00256881     0.00053654     0.00221997
     0.00413903    -0.00329572    -0.00387668

           2 st state (SSR)
    -0.00375016    -0.00331870     0.12038164
    -0.00358436     0.00241149    -0.14246462
    -0.01618413    -0.00363305     0.01465185
    -0.00455641     0.00449321    -0.00271222
     0.01008218    -0.00120620    -0.00716095
     0.01799287     0.00125324     0.01730430
--------------------------------------------------
 Coupling Information
--------------------------------------------------
 between  1 and  2 states
--------------------------------------------------
 g vector - difference gradient
     0.00123728     0.00062344    -0.05129229
     0.00029224     0.00300665     0.06309016
     0.00657993     0.00347828    -0.01029589
     0.00258218    -0.00570715     0.00439197
    -0.00375902     0.00094892     0.00470213
    -0.00693261    -0.00235014    -0.01059608

 h vector - derivative coupling
    -0.00066200     0.00002990    -0.00033871
     0.00205876     0.00039268    -0.00009150
     0.00058881     0.00556596     0.00032755
    -0.00144157    -0.00614222    -0.00040148
    -0.00015405     0.00593184     0.00086292
    -0.00038995    -0.00577817    -0.00035877

 G vector - GDV
     0.00124582     0.00062300    -0.05128350
     0.00026533     0.00300127     0.06308598
     0.00657168     0.00340530    -0.01029929
     0.00260078    -0.00562645     0.00439684
    -0.00375669     0.00087137     0.00469046
    -0.00692692    -0.00227448    -0.01059049

 H vector - DCV - non-adiabatic coupling
    -0.00245687     0.00014471    -0.00383700
     0.00784630     0.00164321     0.00278660
     0.00256685     0.02134643     0.00073447
    -0.00535560    -0.02364935    -0.00130906
    -0.00077280     0.02261264     0.00351629
    -0.00182786    -0.02209765    -0.00189129
--------------------------------------------------


--------------------------------------------------------------------------------
DFTB+ running times                          cpu [s]             wall clock [s]
--------------------------------------------------------------------------------
SCC                                    +     0.02  ( 62.6%)      0.02  ( 50.0%)
Post-SCC processing                    +     0.01  ( 33.2%)      0.01  ( 27.1%)
--------------------------------------------------------------------------------
Missing                                +     0.00  (  4.2%)      0.01  ( 22.9%)
Total                                  =     0.03  (100.0%)      0.05  (100.0%)
--------------------------------------------------------------------------------
