    14
  Step:   600            Position(A)                                  Velocity(au)
C        -5.98327596    -0.85831194    -0.29510219    -0.00009348     0.00002486    -0.00009208
C        -4.69437931    -0.72268047     0.11413575     0.00042164    -0.00041447     0.00047459
H        -6.52973365     0.06417891    -0.47230446    -0.00079690    -0.00036649     0.00114508
H        -6.55833353    -1.85409147    -0.33392305    -0.00067266     0.00167206    -0.00158487
H        -4.14546795    -1.42143475     0.74539529     0.00120173     0.00079512    -0.00209713
C        -3.98292665     0.53651788     0.15470899    -0.00026309     0.00012269     0.00027897
C        -2.70489222     0.71118238     0.53200524     0.00014783     0.00054687    -0.00050529
H        -4.35598235     1.32799676    -0.53538835     0.00011472     0.00183195     0.00299169
H        -2.32342404     0.05838189     1.42489588    -0.00080886     0.00047425    -0.00068170
C        -1.69943895     1.32769172    -0.17942996     0.00080985    -0.00018547    -0.00046293
H        -1.74228112     1.18621606    -1.32623458     0.00219670    -0.00286465    -0.00005780
N        -0.50045212     1.93870822     0.09463937    -0.00109135     0.00000542    -0.00008413
H         0.12018079     2.16410605    -0.69340546     0.00296083    -0.00111582     0.00132967
H        -0.30516672     2.32606739     1.00148690    -0.00121713    -0.00162755     0.00377950
