    14
  Step:     0            Position(A)                                  Velocity(au)
C        -5.96961220    -0.87918224    -0.12815856    -0.00025559    -0.00024521    -0.00020471
C        -4.65305429    -0.72433243     0.15110184     0.00013443     0.00011861     0.00005192
H        -6.43868965     0.11803580    -0.33460036    -0.00028597     0.00036289     0.00086531
H        -6.52488785    -1.88612128    -0.12665845     0.00000634    -0.00108581     0.00094289
H        -3.98409787    -1.58456635     0.34733434    -0.00073133     0.00007254    -0.00033863
C        -3.98744803     0.54586069     0.00244043    -0.00026481     0.00018184     0.00000499
C        -2.62958905     0.60966692     0.16750044     0.00011810    -0.00019366     0.00008604
H        -4.54558350     1.49834265    -0.26348794     0.00085407     0.00009976    -0.00057032
H        -2.08610619    -0.26846083     0.38667260     0.00047750     0.00133781    -0.00037559
C        -1.79152184     1.75749777    -0.08109110     0.00063509     0.00023410     0.00022605
H        -2.22413916     2.76723115    -0.29922256    -0.00084433    -0.00108694    -0.00033168
N        -0.52601721     1.66658463     0.25300492    -0.00032152    -0.00006467    -0.00023264
H         0.05087951     2.52503011     0.02689377     0.00027019    -0.00017596     0.00057783
H        -0.13385368     0.70774171     0.42886400     0.00034582     0.00023437     0.00050540
    14
  Step:     1            Position(A)                                  Velocity(au)
C        -5.97267521    -0.88186984    -0.13042965    -0.00030174    -0.00024577    -0.00020897
C        -4.65131942    -0.72305664     0.15165453     0.00017782     0.00011562     0.00004768
H        -6.44251131     0.12046836    -0.32516612    -0.00041212     0.00007192     0.00085726
H        -6.52393270    -1.89599949    -0.11637254     0.00017035    -0.00070837     0.00093189
H        -3.99260112    -1.58344375     0.34380576    -0.00080494     0.00012023    -0.00030092
C        -3.99072851     0.54790612     0.00246863    -0.00033177     0.00019034     0.00000055
C        -2.62796690     0.60774651     0.16837028     0.00017748    -0.00015150     0.00007171
H        -4.53582096     1.49789407    -0.26933340     0.00091602    -0.00016829    -0.00050074
H        -2.08024876    -0.25529439     0.38319399     0.00061282     0.00102144    -0.00024923
C        -1.78505175     1.76007492    -0.07862925     0.00053881     0.00023278     0.00022308
H        -2.23282426     2.75419972    -0.30282002    -0.00073859    -0.00126942    -0.00032834
N        -0.52912950     1.66593287     0.25048390    -0.00024146    -0.00005438    -0.00022684
H         0.05343669     2.52085793     0.03389830     0.00019698    -0.00057873     0.00069975
H        -0.13023592     0.71223295     0.43406288     0.00030959     0.00058125     0.00044527
    14
  Step:     2            Position(A)                                  Velocity(au)
C        -5.97621324    -0.88455885    -0.13273022    -0.00034149    -0.00024520    -0.00020996
C        -4.64916409    -0.72180299     0.15214489     0.00021070     0.00011496     0.00004042
H        -6.44770549     0.11960923    -0.31584622    -0.00053833    -0.00023206     0.00084348
H        -6.52116110    -1.90161827    -0.10627163     0.00033317    -0.00031759     0.00090940
H        -4.00170743    -1.58193607     0.34075120    -0.00083922     0.00014011    -0.00025172
C        -3.99470608     0.55002475     0.00245242    -0.00039185     0.00019429    -0.00000292
C        -2.62570637     0.60635250     0.16906928     0.00023534    -0.00009901     0.00005525
H        -4.52554390     1.49466096    -0.27444266     0.00094354    -0.00040046    -0.00043855
H        -2.07269958    -0.24611481     0.38122031     0.00077736     0.00062683    -0.00010513
C        -1.77973427     1.76259020    -0.07621075     0.00042640     0.00022233     0.00021871
H        -2.24029723     2.73946014    -0.30640570    -0.00062717    -0.00139253    -0.00033165
N        -0.53129963     1.66539500     0.24804242    -0.00015159    -0.00004388    -0.00021843
H         0.05518887     2.51236920     0.04220221     0.00013277    -0.00094916     0.00081154
H        -0.12708075     0.72045761     0.43860511     0.00026705     0.00090201     0.00038856
    14
  Step:     3            Position(A)                                  Velocity(au)
C        -5.98014588    -0.88723400    -0.13502303    -0.00037319    -0.00024299    -0.00020751
C        -4.64671000    -0.72054164     0.15253872     0.00023227     0.00011745     0.00003000
H        -6.45428824     0.11539151    -0.30671341    -0.00066743    -0.00053520     0.00082230
H        -6.51664392    -1.90294733    -0.09647773     0.00048446     0.00006537     0.00087638
H        -4.01096075    -1.58037849     0.33829885    -0.00083090     0.00012801    -0.00019099
C        -3.99930100     0.55215660     0.00240485    -0.00044458     0.00019173    -0.00000499
C        -2.62281837     0.60558049     0.16957907     0.00029324    -0.00003979     0.00003770
H        -4.51517913     1.48913333    -0.27892757     0.00092798    -0.00057928    -0.00038951
H        -2.06324243    -0.24158119     0.38089399     0.00094850     0.00019512     0.00004606
C        -1.77572336     1.76493881    -0.07384450     0.00030244     0.00020191     0.00021420
H        -2.24654471     2.72373546    -0.31007541    -0.00051908    -0.00144403    -0.00034572
N        -0.53244592     1.66497281     0.24570532    -0.00005700    -0.00003325    -0.00020821
H         0.05634135     2.50009320     0.05165220     0.00009735    -0.00125542     0.00090585
H        -0.12439377     0.73196623     0.44256347     0.00023000     0.00116716     0.00034199
    14
  Step:     4            Position(A)                                  Velocity(au)
C        -5.98437741    -0.88987470    -0.13726988    -0.00039574    -0.00023866    -0.00020163
C        -4.64408282    -0.71923354     0.15280117     0.00024269     0.00012396     0.00001645
H        -6.46230672     0.10790078    -0.29785686    -0.00080226    -0.00082362     0.00079248
H        -6.51056266    -1.90018815    -0.08709911     0.00061421     0.00041899     0.00083438
H        -4.01988497    -1.57913561     0.33657297    -0.00077988     0.00008318    -0.00011951
C        -4.00443211     0.55421912     0.00234333    -0.00049027     0.00018050    -0.00000531
C        -2.61929111     0.60548193     0.16989409     0.00035362     0.00002211     0.00002027
H        -4.50524251     1.48198815    -0.28296404     0.00086207    -0.00068872    -0.00035940
H        -2.05194922    -0.24184629     0.38222799     0.00109910    -0.00022681     0.00019237
C        -1.77311777     1.76700737    -0.07152462     0.00017223     0.00017085     0.00021093
H        -2.25165311     2.70786927    -0.31396902    -0.00042297    -0.00141507    -0.00037421
N        -0.53254665     1.66466752     0.24348737     0.00003663    -0.00002253    -0.00019720
H         0.05731862     2.48490439     0.06201948     0.00011033    -0.00146726     0.00097644
H        -0.12204900     0.74599154     0.44608680     0.00021026     0.00134904     0.00031251
    14
  Step:     5            Position(A)                                  Velocity(au)
C        -5.98880337    -0.89245512    -0.13943399    -0.00040867    -0.00023170    -0.00019256
C        -4.64140076    -0.71782974     0.15289869     0.00024321     0.00013541     0.00000001
H        -6.47183920     0.09737321    -0.28937639    -0.00094560    -0.00108392     0.00075317
H        -6.50320701    -1.89378102    -0.07822399     0.00071256     0.00072099     0.00078557
H        -4.02802204    -1.57855881     0.33568440    -0.00068970     0.00000914    -0.00003905
C        -4.01002661     0.55610540     0.00228875    -0.00053008     0.00015846    -0.00000362
C        -2.61508218     0.60606417     0.17002250     0.00041919     0.00008301     0.00000415
H        -4.49631970     1.47406619    -0.28679003     0.00074121    -0.00071645    -0.00035317
H        -2.03919741    -0.24654316     0.38510247     0.00120384    -0.00059550     0.00032264
C        -1.77195560     1.76867650    -0.06922991     0.00004126     0.00012885     0.00021022
H        -2.25579795     2.69277808    -0.31826195    -0.00034584    -0.00130195    -0.00041964
N        -0.53164449     1.66447997     0.24139128     0.00012359    -0.00001173    -0.00018651
H         0.05875511     2.46799397     0.07301380     0.00018925    -0.00155883     0.00101873
H        -0.11979395     0.76147906     0.44940029     0.00021844     0.00142428     0.00030679
    14
  Step:     6            Position(A)                                  Velocity(au)
C        -5.99331792    -0.89494366    -0.14148242    -0.00041219    -0.00022157    -0.00018077
C        -4.63876206    -0.71627121     0.15280135     0.00023611     0.00015252    -0.00001891
H        -6.48299360     0.08418805    -0.28137985    -0.00109999    -0.00130363     0.00070389
H        -6.49497415    -1.88441520    -0.06991329     0.00076984     0.00094830     0.00073281
H        -4.03497349    -1.57893570     0.33571862    -0.00056762    -0.00008598     0.00004769
C        -4.01602872     0.55768568     0.00226405    -0.00056547     0.00012396     0.00000019
C        -2.61012052     0.60729784     0.16998483     0.00049174     0.00013996    -0.00000971
H        -4.48902704     1.46631435    -0.29069037     0.00056503    -0.00065702    -0.00037388
H        -2.02561298    -0.25487402     0.38928639     0.00124490    -0.00087879     0.00042853
C        -1.77221512     1.76982631    -0.06692572    -0.00008527     0.00007640     0.00021303
H        -2.25921908     2.67938673    -0.32314934    -0.00029174    -0.00110798    -0.00048261
N        -0.52984298     1.66441100     0.23940716     0.00019894    -0.00000083    -0.00017723
H         0.06145872     2.45080203     0.08430620     0.00034586    -0.00151363     0.00103072
H        -0.11727013     0.77715044     0.45279838     0.00026209     0.00137786     0.00033006
    14
  Step:     7            Position(A)                                  Velocity(au)
C        -5.99782086    -0.89730248    -0.14338859    -0.00040687    -0.00020769    -0.00016689
C        -4.63623548    -0.71449311     0.15248495     0.00022395     0.00017518    -0.00003973
H        -6.49590356     0.06885384    -0.27397752    -0.00126740    -0.00147205     0.00064463
H        -6.48636528    -1.87303516    -0.06219229     0.00077722     0.00107836     0.00067979
H        -4.04043971    -1.58043986     0.33672761    -0.00042396    -0.00019004     0.00013744
C        -4.02239736     0.55881732     0.00229285    -0.00059678     0.00007696     0.00000614
C        -2.60432438     0.60912610     0.16981016     0.00057047     0.00019060    -0.00002074
H        -4.48395852     1.45969266    -0.29496936     0.00033874    -0.00051525    -0.00042123
H        -2.01196275    -0.26576846     0.39447737     0.00121488    -0.00105938     0.00050557
C        -1.77382095     1.77034793    -0.06456939    -0.00020300     0.00001539     0.00021966
H        -2.26218025     2.66853894    -0.32882001    -0.00026037    -0.00084523    -0.00056101
N        -0.52729223     1.66446189     0.23751400     0.00025967     0.00001024    -0.00017019
H         0.06632137     2.43488034     0.09556289     0.00058135    -0.00133067     0.00101386
H        -0.11406014     0.79162229     0.45662093     0.00034337     0.00120783     0.00038458
    14
  Step:     8            Position(A)                                  Velocity(au)
C        -6.00221890    -0.89948721    -0.14513340    -0.00039306    -0.00018946    -0.00015156
C        -4.63386280    -0.71243887     0.15193228     0.00020850     0.00020173    -0.00006179
H        -6.51072030     0.05198405    -0.26727739    -0.00144878    -0.00158146     0.00057587
H        -6.47797104    -1.86082410    -0.05504156     0.00072799     0.00109191     0.00063071
H        -4.04424838    -1.58309327     0.33872530    -0.00027096    -0.00028842     0.00022671
C        -4.02908438     0.55936939     0.00239834    -0.00062216     0.00001995     0.00001410
C        -2.59764041     0.61146751     0.16953103     0.00065094     0.00023264    -0.00002887
H        -4.48161655     1.45504219    -0.29990568     0.00007386    -0.00030834    -0.00049057
H        -1.99903511    -0.27804992     0.40034673     0.00111633    -0.00113399     0.00055307
C        -1.77665618     1.77016294    -0.06212031    -0.00030868    -0.00005049     0.00022945
H        -2.26491515     2.66089574    -0.33542241    -0.00024666    -0.00053460    -0.00064965
N        -0.52416219     1.66463506     0.23568400     0.00030540     0.00002163    -0.00016575
H         0.07417683     2.42169099     0.10648638     0.00088194    -0.00102922     0.00097332
H        -0.10975834     0.80357398     0.46121186     0.00045692     0.00092927     0.00046812
    14
  Step:     9            Position(A)                                  Velocity(au)
C        -6.00641978    -0.90144726    -0.14670420    -0.00037073    -0.00016647    -0.00013527
C        -4.63167417    -0.71007990     0.15113306     0.00019017     0.00022909    -0.00008453
H        -6.52759829     0.03425642    -0.26137917    -0.00164341    -0.00162847     0.00049864
H        -6.47043904    -1.84914760    -0.04839434     0.00061969     0.00097750     0.00058959
H        -4.04636752    -1.58674951     0.34168739    -0.00012113    -0.00036608     0.00031198
C        -4.03600836     0.55925378     0.00260123    -0.00063846    -0.00004223     0.00002363
C        -2.59008373     0.61421553     0.16917859     0.00072650     0.00026399    -0.00003429
H        -4.48234264     1.45294721    -0.30570149    -0.00021251    -0.00006484    -0.00057279
H        -1.98754080    -0.29057669     0.40657689     0.00095902    -0.00110986     0.00057313
C        -1.78057393     1.76924334    -0.05954976    -0.00040006    -0.00011624     0.00024111
H        -2.26757635     2.65684361    -0.34303224    -0.00024142    -0.00020392    -0.00074078
N        -0.52061092     1.66493499     0.23388793     0.00033841     0.00003356    -0.00016386
H         0.08561558     2.41236409     0.11685605     0.00121763    -0.00064909     0.00091727
H        -0.10406416     0.81195175     0.46686191     0.00058916     0.00057493     0.00057318
    14
  Step:    10            Position(A)                                  Velocity(au)
C        -6.01032926    -0.90312899    -0.14809272    -0.00034005    -0.00013883    -0.00011836
C        -4.62970251    -0.70742713     0.15008307     0.00016857     0.00025379    -0.00010739
H        -6.54667301     0.01635815    -0.25636858    -0.00184818    -0.00161526     0.00041450
H        -6.46441413    -1.83943931    -0.04214321     0.00045657     0.00073714     0.00055918
H        -4.04689825    -1.59110193     0.34555043     0.00001445    -0.00040984     0.00038976
C        -4.04305189     0.55844543     0.00291522    -0.00064332    -0.00010378     0.00003387
C        -2.58174685     0.61724273     0.16878096     0.00079096     0.00028314    -0.00003724
H        -4.48626567     1.45362373    -0.31243658    -0.00050009     0.00017947    -0.00065563
H        -1.97805471    -0.30233017     0.41288503     0.00075646    -0.00100032     0.00056938
C        -1.78540824     1.76762003    -0.05684554    -0.00047575    -0.00017664     0.00025315
H        -2.27019677     2.65643464    -0.35162849    -0.00023329     0.00011588    -0.00082512
N        -0.51675878     1.66536931     0.23209919     0.00036277     0.00004634    -0.00016416
H         0.10081486     2.40749086     0.12655333     0.00154621    -0.00024416     0.00085500
H        -0.09686937     0.81615162     0.47375121     0.00072000     0.00019087     0.00068773
    14
  Step:    11            Position(A)                                  Velocity(au)
C        -6.01385911    -0.90448442    -0.14929357    -0.00030226    -0.00010760    -0.00010102
C        -4.62798642    -0.70452769     0.14878376     0.00014331     0.00027298    -0.00012987
H        -6.56803066    -0.00108058    -0.25231113    -0.00205679    -0.00155031     0.00032553
H        -6.46045076    -1.83302118    -0.03616117     0.00025136     0.00039069     0.00053985
H        -4.04605132    -1.59571548     0.35021406     0.00012732    -0.00041023     0.00045697
C        -4.05008231     0.55698337     0.00334212    -0.00063627    -0.00015928     0.00004364
C        -2.57277996     0.62040979     0.16836397     0.00084011     0.00028934    -0.00003787
H        -4.49328300     1.45687343    -0.32004470    -0.00076866     0.00038838    -0.00072596
H        -1.97099183    -0.31246053     0.41903327     0.00052334    -0.00082162     0.00054612
C        -1.79098179     1.76537902    -0.05401152    -0.00053492    -0.00022707     0.00026421
H        -2.27268011     2.65937877    -0.36108328    -0.00021148     0.00039567    -0.00089317
N        -0.51267457     1.66594879     0.23029669     0.00038323     0.00006012    -0.00016601
H         0.11944196     2.40702271     0.13556091     0.00182200     0.00012929     0.00079458
H        -0.08831275     0.81612751     0.48190737     0.00082685    -0.00017203     0.00079721
    14
  Step:    12            Position(A)                                  Velocity(au)
C        -6.01694184    -0.90548289    -0.15030267    -0.00025986    -0.00007485    -0.00008329
C        -4.62656725    -0.70145507     0.14724191     0.00011426     0.00028466    -0.00015151
H        -6.59166927    -0.01755774    -0.24924691    -0.00225949    -0.00144796     0.00023425
H        -6.45891525    -1.83089231    -0.03033292     0.00002495    -0.00002379     0.00052900
H        -4.04411295    -1.60007645     0.35554757     0.00021221    -0.00036263     0.00051129
C        -4.05697159     0.55496084     0.00386988    -0.00061813    -0.00020442     0.00005175
C        -2.56336792     0.62357269     0.16795248     0.00087147     0.00028236    -0.00003626
H        -4.50308162     1.46212021    -0.32831845    -0.00100147     0.00053223    -0.00077236
H        -1.96660572    -0.32030459     0.42483250     0.00027399    -0.00059099     0.00050786
C        -1.79711072     1.76265238    -0.05106549    -0.00057711    -0.00026381     0.00027311
H        -2.27482331     2.66509071    -0.37116825    -0.00016823     0.00061234    -0.00093670
N        -0.50837478     1.66668458     0.22846751     0.00040408     0.00007475    -0.00016860
H         0.14067451     2.41031941     0.14393633     0.00200624     0.00042505     0.00074107
H        -0.07878040     0.81238824     0.49119175     0.00088962    -0.00046809     0.00088726
    14
  Step:    13            Position(A)                                  Velocity(au)
C        -6.01954404    -0.90612200    -0.15111565    -0.00021629    -0.00004341    -0.00006507
C        -4.62548667    -0.69830022     0.14546926     0.00008144     0.00028758    -0.00017188
H        -6.61746133    -0.03275739    -0.24718649    -0.00244346    -0.00132665     0.00014335
H        -6.45990486    -1.83354153    -0.02458824    -0.00019657    -0.00045549     0.00052139
H        -4.04140885    -1.60364879     0.36139957     0.00026701    -0.00026736     0.00055132
C        -4.06360507     0.55251135     0.00447432    -0.00059020    -0.00023621     0.00005727
C        -2.55371481     0.62658686     0.16757082     0.00088376     0.00026226    -0.00003244
H        -4.51519202     1.46851698    -0.33694146    -0.00118721     0.00059253    -0.00078695
H        -1.96499786    -0.32538957     0.43014362     0.00002168    -0.00032580     0.00045917
C        -1.80360715     1.75960766    -0.04803670    -0.00060198    -0.00028414     0.00027896
H        -2.27636051     2.67277489    -0.38157549    -0.00010020     0.00075145    -0.00094993
N        -0.50383452     1.66758410     0.22660834     0.00042825     0.00008974    -0.00017107
H         0.16333219     2.41632139     0.15177314     0.00207496     0.00061522     0.00069612
H        -0.06885070     0.80588717     0.50131787     0.00089492    -0.00066502     0.00094646
    14
  Step:    14            Position(A)                                  Velocity(au)
C        -6.02167368    -0.90643258    -0.15172620    -0.00017532    -0.00001616    -0.00004617
C        -4.62478561    -0.69516368     0.14348164     0.00004494     0.00028119    -0.00019067
H        -6.64512462    -0.04658080    -0.24611085    -0.00259412    -0.00120603     0.00005543
H        -6.46321555    -1.84085706    -0.01892662    -0.00038703    -0.00085134     0.00051036
H        -4.03827162    -1.60592549     0.36760870     0.00029231    -0.00012905     0.00057661
C        -4.06988329     0.54979319     0.00512267    -0.00055381    -0.00025311     0.00005959
C        -2.54403407     0.62931010     0.16724289     0.00087643     0.00022946    -0.00002648
H        -4.52905414     1.47508299    -0.34553455    -0.00132056     0.00056327    -0.00076628
H        -1.96613134    -0.32743205     0.43487764    -0.00022145    -0.00004346     0.00040469
C        -1.81028012     1.75643634    -0.04496277    -0.00060932    -0.00028643     0.00028115
H        -2.27701534     2.68153009    -0.39194971    -0.00000851     0.00080790    -0.00093010
N        -0.49900606     1.66864792     0.22472498     0.00045694     0.00010444    -0.00017271
H         0.18606816     2.42377856     0.15916532     0.00202161     0.00069206     0.00065877
H        -0.05920233     0.79783958     0.51189749     0.00083814    -0.00074779     0.00096817
    14
  Step:    15            Position(A)                                  Velocity(au)
C        -6.02337960    -0.90647552    -0.15212565    -0.00014035     0.00000460    -0.00002641
C        -4.62450360    -0.69214870     0.14129798     0.00000492     0.00026552    -0.00020764
H        -6.67421260    -0.05914170    -0.24597388    -0.00269713    -0.00110371    -0.00002726
H        -6.46837198    -1.85216625    -0.01342303    -0.00052539    -0.00116707     0.00048972
H        -4.03501393    -1.60647207     0.37401397     0.00029081     0.00004424     0.00058760
C        -4.07572066     0.54697415     0.00577796    -0.00051017    -0.00025480     0.00005851
C        -2.53454129     0.63160677     0.16699143     0.00084957     0.00018484    -0.00001857
H        -4.54408189     1.48083961    -0.35370525    -0.00140130     0.00044919    -0.00071089
H        -1.96984255    -0.32634038     0.43899706    -0.00044426     0.00023820     0.00034927
C        -1.81693709     1.75334156    -0.04188605    -0.00059914    -0.00027015     0.00027940
H        -2.27654658     2.69044933    -0.40192312     0.00010228     0.00078470    -0.00087743
N        -0.49383819     1.66986882     0.22282988     0.00048977     0.00011815    -0.00017306
H         0.20755888     2.43146156     0.16618490     0.00185495     0.00066433     0.00062661
H        -0.05051482     0.78952791     0.52249848     0.00072294    -0.00071761     0.00095085
    14
  Step:    16            Position(A)                                  Velocity(au)
C        -6.02474402    -0.90633195    -0.15230394    -0.00011387     0.00001758    -0.00000575
C        -4.62467794    -0.68935499     0.13893923    -0.00003834     0.00024115    -0.00022264
H        -6.70412942    -0.07072665    -0.24670731    -0.00274059    -0.00103256    -0.00010301
H        -6.47470944    -1.86638903    -0.00821316    -0.00059911    -0.00137491     0.00045517
H        -4.03190956    -1.60495757     0.38046363     0.00026658     0.00024223     0.00058546
C        -4.08104429     0.54421890     0.00640275    -0.00046042    -0.00024206     0.00005413
C        -2.52544804     0.63335390     0.16683673     0.00080382     0.00012992    -0.00000899
H        -4.55971033     1.48490984    -0.36108662    -0.00143281     0.00026256    -0.00062438
H        -1.97585034    -0.32222105     0.44251868    -0.00063628     0.00050060     0.00029808
C        -1.82338754     1.75052627    -0.03885033    -0.00057184    -0.00023586     0.00027374
H        -2.27477766     2.69869693    -0.41114520     0.00022552     0.00069096    -0.00079463
N        -0.48829133     1.67123274     0.22093896     0.00052526     0.00013038    -0.00017194
H         0.22664877     2.43831205     0.17287357     0.00159421     0.00055138     0.00059696
H        -0.04338658     0.78214052     0.53269921     0.00055925    -0.00058813     0.00089742
    14
  Step:    17            Position(A)                                  Velocity(au)
C        -6.02587075    -0.90609096    -0.15225135    -0.00009730     0.00002252     0.00001571
C        -4.62534237    -0.68687301     0.13642734    -0.00008446     0.00020918    -0.00023564
H        -6.73416834    -0.08173097    -0.24822744    -0.00271683    -0.00099925    -0.00017072
H        -6.48147856    -1.88224509    -0.00346539    -0.00060476    -0.00146527     0.00040508
H        -4.02918199    -1.60117290     0.38682199     0.00022455     0.00045328     0.00057191
C        -4.08579325     0.54167863     0.00696206    -0.00040563    -0.00021644     0.00004674
C        -2.51695628     0.63444899     0.16679481     0.00074024     0.00006698     0.00000176
H        -4.57542745     1.48658361    -0.36736471    -0.00142062     0.00001993    -0.00051222
H        -1.98376250    -0.31538879     0.44551805    -0.00078758     0.00072410     0.00025674
C        -1.82944713     1.74818157    -0.03589751    -0.00052822    -0.00018513     0.00026446
H        -2.27161290     2.70556537    -0.41930720     0.00035370     0.00053985    -0.00068624
N        -0.48234703     1.67272110     0.21906839     0.00056127     0.00014080    -0.00016944
H         0.24243521     2.44352403     0.17924463     0.00126432     0.00037778     0.00056753
H        -0.03828024     0.77666145     0.54213123     0.00036069    -0.00038074     0.00081400
    14
  Step:    18            Position(A)                                  Velocity(au)
C        -6.02687269    -0.90583929    -0.15196034    -0.00009099     0.00001993     0.00003769
C        -4.62652573    -0.68477870     0.13378419    -0.00013294     0.00017114    -0.00024669
H        -6.76356532    -0.09258706    -0.25044224    -0.00262313    -0.00100435    -0.00022993
H        -6.48793976    -1.89844451     0.00064875    -0.00054633    -0.00144350     0.00034023
H        -4.02699717    -1.59504121     0.39297516     0.00017017     0.00066512     0.00054915
C        -4.08991832     0.53948380     0.00742535    -0.00034688    -0.00018010     0.00003683
C        -2.50925380     0.63481914     0.16687526     0.00066035    -0.00000087     0.00001300
H        -4.59078910     1.48534587    -0.37229248    -0.00137129    -0.00026035    -0.00038088
H        -1.99308015    -0.30637998     0.44813531    -0.00088876     0.00088820     0.00023137
C        -1.83494326     1.74647610    -0.03306478    -0.00046959    -0.00012047     0.00025211
H        -2.26703979     2.71050718    -0.42615801     0.00047938     0.00034689    -0.00055805
N        -0.47601245     1.67431290     0.21723216     0.00059539     0.00014927    -0.00016585
H         0.25430814     2.44657670     0.18528931     0.00089249     0.00016980     0.00053663
H        -0.03549588     0.77381121     0.55050696     0.00014251    -0.00012074     0.00070877
    14
  Step:    19            Position(A)                                  Velocity(au)
C        -6.02786127    -0.90565485    -0.15142680    -0.00009442     0.00001075     0.00005987
C        -4.62825077    -0.68312909     0.13103062    -0.00018318     0.00012890    -0.00025591
H        -6.79155434    -0.10370295    -0.25325756    -0.00246170    -0.00104344    -0.00028068
H        -6.49343047    -1.91382444     0.00397782    -0.00043256    -0.00132477     0.00026309
H        -4.02545924    -1.58662216     0.39883578     0.00010919     0.00086531     0.00051981
C        -4.09338196     0.53773860     0.00776779    -0.00028521    -0.00013561     0.00002495
C        -2.50250982     0.63442988     0.16707913     0.00056600    -0.00006982     0.00002386
H        -4.60542709     1.48088799    -0.37569725    -0.00129194    -0.00055942    -0.00023727
H        -2.00320575    -0.29595775     0.45057963    -0.00093152     0.00097271     0.00022827
C        -1.83972027     1.74554602    -0.03038222    -0.00039768    -0.00004524     0.00023743
H        -2.26112552     2.71315419    -0.43151559     0.00059557     0.00012898    -0.00041675
N        -0.46932168     1.67598660     0.21544016     0.00062515     0.00015579    -0.00016160
H         0.26196007     2.44723868     0.19098437     0.00050632    -0.00004629     0.00050326
H        -0.03516256     0.77402005     0.55763702    -0.00007979     0.00016499     0.00059119
    14
  Step:    20            Position(A)                                  Velocity(au)
C        -6.02893832    -0.90560416    -0.15065056    -0.00010650    -0.00000400     0.00008189
C        -4.63053321    -0.68195870     0.12818559    -0.00023452     0.00008465    -0.00026353
H        -6.81741982    -0.11541430    -0.25658272    -0.00223895    -0.00110867    -0.00032349
H        -6.49740284    -1.92742629     0.00640446    -0.00027453    -0.00112891     0.00017703
H        -4.02460837    -1.57611094     0.40434694     0.00004748     0.00104172     0.00048677
C        -4.09615788     0.53651707     0.00797118    -0.00022162    -0.00008585     0.00001173
C        -2.49687136     0.63329166     0.16739735     0.00045941    -0.00013568     0.00003343
H        -4.61905268     1.47310739    -0.37748326    -0.00118996    -0.00085863    -0.00008847
H        -2.01345893    -0.28510003     0.45312917    -0.00090983     0.00096033     0.00025324
C        -1.84364327     1.74548644    -0.02787062    -0.00031452     0.00003651     0.00022135
H        -2.25401046     2.71332880    -0.43527514     0.00069591    -0.00009613    -0.00026969
N        -0.46233607     1.67772115     0.21369681     0.00064808     0.00016044    -0.00015725