 Fermi distribution function

Calculation with static geometry


********************************************************************************
 iSCC Total electronic   Diff electronic      SCC error    
   13   -0.52741604E+01   -0.36639847E-09    0.17304560E-06
********************************************************************************

 Total charge:     1.00000000

 Atomic gross charges (e)
 Atom           Charge
    1       0.30937322
    2      -0.19710578
    3       0.16894972
    4       0.26067243
    5       0.26856053
    6       0.18954988

Nr. of electrons (up):     12.00000000
Atom populations (up)
 Atom       Population
    1       3.69062678
    2       5.19710578
    3       0.83105028
    4       0.73932757
    5       0.73143947
    6       0.81045012

l-shell populations (up)
 Atom Sh.   l       Population
    1   1   0       1.39977955
    1   2   1       2.29084723
    2   1   0       1.51878620
    2   2   1       3.67831958
    3   1   0       0.83105028
    4   1   0       0.73932757
    5   1   0       0.73143947
    6   1   0       0.81045012

Orbital populations (up)
 Atom Sh.   l   m       Population  Label
    1   1   0   0       1.39977955  s
    1   2   1  -1       0.44265882  p_y
    1   2   1   0       0.87691612  p_z
    1   2   1   1       0.97127229  p_x
    2   1   0   0       1.51878620  s
    2   2   1  -1       1.33438711  p_y
    2   2   1   0       1.11852607  p_z
    2   2   1   1       1.22540639  p_x
    3   1   0   0       0.83105028  s
    4   1   0   0       0.73932757  s
    5   1   0   0       0.73143947  s
    6   1   0   0       0.81045012  s

Fermi level:                        -0.5155164188 H          -14.0279 eV
Band energy:                        -8.6930400524 H         -236.5497 eV
TS:                                  0.0000000000 H            0.0000 eV
Band free energy (E-TS):            -8.6930400524 H         -236.5497 eV
Extrapolated E(0K):                 -8.6930400524 H         -236.5497 eV
Input / Output electrons (q):     12.0000000000     12.0000000000

Energy H0:                          -5.4115489714 H         -147.2557 eV
Energy SCC:                          0.1373886089 H            3.7385 eV
Total Electronic energy:            -5.2741603625 H         -143.5172 eV
Repulsive energy:                    0.1388616144 H            3.7786 eV
Total energy:                       -5.1352987481 H         -139.7386 eV
Extrapolated to 0:                  -5.1352987481 H         -139.7386 eV
Total Mermin free energy:           -5.1352987481 H         -139.7386 eV
Force related energy:               -5.1352987481 H         -139.7386 eV

SCC converged

Excitation Energy:                   0.0943985766 H            2.5687 eV

Total Forces
    1      0.005435217749     -0.004491722875      0.049049424228
    2      0.000610303081     -0.003567750286     -0.056998416789
    3     -0.006730428384     -0.006135293251     -0.001629783500
    4     -0.006596427969      0.013959228624      0.000613325756
    5      0.003038848784     -0.011557108437      0.006796710840
    6      0.004242486740      0.011792646226      0.002168739466

Maximal derivative component:        0.569984E-01 au


