     6
  Step:     0            Position(A)                                  Velocity(au)
C        -0.04380165     0.02156909     0.02239578     0.00004691     0.00007976    -0.00023245
N        -0.03688260    -0.06534548     1.28829135    -0.00011559     0.00000774     0.00025912
H         0.91310255    -0.04102045    -0.50380263    -0.00018796    -0.00022563    -0.00025835
H         0.79563749    -0.04994390     1.87401759     0.00102059    -0.00028041     0.00055823
H        -0.93308130     0.00200841     1.88577307     0.00058576    -0.00014912    -0.00108063
H        -0.95412003     0.07022360    -0.53336566    -0.00037110    -0.00040290    -0.00005020
     6
  Step:     1            Position(A)                                  Velocity(au)
C        -0.04351960     0.02201912     0.02072075     0.00005587     0.00008505    -0.00037878
N        -0.03756406    -0.06534218     1.29008870    -0.00013184    -0.00000618     0.00039679
H         0.91219029    -0.04217309    -0.50530792    -0.00014645    -0.00019759    -0.00029228
H         0.80152083    -0.05136217     1.87714160     0.00111657    -0.00024084     0.00057627
H        -0.92956298     0.00125734     1.87956953     0.00069032    -0.00012640    -0.00117829
H        -0.95650064     0.06813662    -0.53379777    -0.00049403    -0.00036281    -0.00010607
     6
  Step:     2            Position(A)                                  Velocity(au)
C        -0.04319045     0.02249950     0.01825194     0.00006401     0.00009074    -0.00052126
N        -0.03832498    -0.06541306     1.29263221    -0.00014431    -0.00001926     0.00053045
H         0.91150036    -0.04318212    -0.50700024    -0.00010658    -0.00017325    -0.00032626
H         0.80785286    -0.05257875     1.88032206     0.00118333    -0.00020681     0.00057845
H        -0.92552915     0.00062556     1.87288249     0.00077097    -0.00010561    -0.00125435
H        -0.95952480     0.06625444    -0.53452604    -0.00060509    -0.00032804    -0.00015791
     6
  Step:     3            Position(A)                                  Velocity(au)
C        -0.04281894     0.02301244     0.01501492     0.00007114     0.00009666    -0.00065712
N        -0.03914371    -0.06555304     1.29589521    -0.00015247    -0.00003131     0.00065729
H         0.91102362    -0.04406951    -0.50887930    -0.00006805    -0.00015282    -0.00035962
H         0.81447386    -0.05362601     1.88347353     0.00121979    -0.00017855     0.00056480
H        -0.92112369     0.00010132     1.86583902     0.00082178    -0.00008681    -0.00130404
H        -0.96312413     0.06454581    -0.53552634    -0.00070244    -0.00029868    -0.00020473
     6
  Step:     4            Position(A)                                  Velocity(au)
C        -0.04241081     0.02355881     0.01105052     0.00007705     0.00010247    -0.00078313
N        -0.03999592    -0.06575614     1.29983543    -0.00015585    -0.00004215     0.00077403
H         0.91075465    -0.04485692    -0.51094135    -0.00003011    -0.00013604    -0.00039166
H         0.82122055    -0.05453547     1.88651169     0.00122549    -0.00015561     0.00053579
H        -0.91652327    -0.00032576     1.85859143     0.00083689    -0.00006953    -0.00132284
H        -0.96722291     0.06298117    -0.53676971    -0.00078462    -0.00027413    -0.00024564
     6
  Step:     5            Position(A)                                  Velocity(au)
C        -0.04197302     0.02413746     0.00641683     0.00008150     0.00010777    -0.00089589
N        -0.04085482    -0.06601585     1.30439335    -0.00015407    -0.00005171     0.00087733
H         0.91069308    -0.04556305    -0.51317939     0.00000802    -0.00012225    -0.00042178
H         0.82792868    -0.05533452     1.88935599     0.00120073    -0.00013716     0.00049255
H        -0.91193540    -0.00066204     1.85131548     0.00081137    -0.00005298    -0.00130697
H        -0.97173858     0.06153608    -0.53822328    -0.00085024    -0.00025336    -0.00027999
     6
  Step:     6            Position(A)                                  Velocity(au)
C        -0.04151374     0.02474506     0.00118959     0.00008429     0.00011218    -0.00099220
N        -0.04169178    -0.06632529     1.30949204    -0.00014695    -0.00005989     0.00096408
H         0.91084289    -0.04620248    -0.51558386     0.00004688    -0.00011072    -0.00044956
H         0.83443675    -0.05604516     1.89193311     0.00114680    -0.00012224     0.00043696
H        -0.90759263    -0.00090889     1.84420583     0.00074201    -0.00003634    -0.00125409
H        -0.97658132     0.06019247    -0.53985149    -0.00089802    -0.00023526    -0.00030737
     6
  Step:     7            Position(A)                                  Velocity(au)
C        -0.04104228     0.02537617    -0.00453900     0.00008527     0.00011537    -0.00106946
N        -0.04247744    -0.06667718     1.31503864    -0.00013458    -0.00006664     0.00103182
H         0.91121069    -0.04678566    -0.51814342     0.00008668    -0.00010080    -0.00047475
H         0.84059150    -0.05668426     1.89418082     0.00106631    -0.00011001     0.00037161
H        -0.90374224    -0.00106332     1.83746790     0.00062821    -0.00001900    -0.00116400
H        -0.98165445     0.05893834    -0.54161727    -0.00092707    -0.00021889    -0.00032764
     6
  Step:     8            Position(A)                                  Velocity(au)
C        -0.04056871     0.02602371    -0.01066349     0.00008438     0.00011712    -0.00112607
N        -0.04318337    -0.06706392     1.32092792    -0.00011742    -0.00007194     0.00107913
H         0.91180362    -0.04731971    -0.52084567     0.00012727    -0.00009198    -0.00049729
H         0.84625497    -0.05726441     1.89605178     0.00096335    -0.00009981     0.00029975
H        -0.90062997    -0.00111947     1.83130494     0.00047280    -0.00000064    -0.00103924
H        -0.98685631     0.05776649    -0.54348284    -0.00093716    -0.00020358    -0.00034079
     6
  Step:     9            Position(A)                                  Velocity(au)
C        -0.04010326     0.02667957    -0.01707067     0.00008172     0.00011739    -0.00116194
N        -0.04378418    -0.06747776     1.32704785    -0.00009631    -0.00007581     0.00110607
H         0.91262702    -0.04780926    -0.52367763     0.00016815    -0.00008391    -0.00051729
H         0.85131233    -0.05779499     1.89751663     0.00084338    -0.00009117     0.00022497
H        -0.89848065    -0.00107050     1.82590255     0.00028211     0.00001870    -0.00088529
H        -0.99208376     0.05667282    -0.54540984    -0.00092903    -0.00018898    -0.00034699
     6
  Step:    10            Position(A)                                  Velocity(au)
C        -0.03965557     0.02733548    -0.02364765     0.00007751     0.00011629    -0.00117874
N        -0.04425959    -0.06791108     1.33328773    -0.00007238    -0.00007839     0.00111447
H         0.91368256    -0.04825742    -0.52662615     0.00020864    -0.00007644    -0.00053500
H         0.85567932    -0.05828319     1.89856571     0.00071281    -0.00008380     0.00015088
H        -0.89747754    -0.00091047     1.82141230     0.00006550     0.00003875    -0.00071005
H        -0.99723772     0.05565468    -0.54736026    -0.00090475    -0.00017504    -0.00034693
     6
  Step:    11            Position(A)                                  Velocity(au)
C        -0.03923391     0.02798390    -0.03029140     0.00007210     0.00011411    -0.00117978
N        -0.04459599    -0.06835694     1.33954767    -0.00004690    -0.00007987     0.00110771
H         0.91496708    -0.04866658    -0.52967818     0.00024805    -0.00006949    -0.00055082
H         0.85930715    -0.05873484     1.89920889     0.00057828    -0.00007752     0.00008067
H        -0.89774601    -0.00063584     1.81793864    -0.00016612     0.00005907    -0.00052272
H        -1.00223143     0.05470959    -0.54930096    -0.00086765    -0.00016186    -0.00034194
     6
  Step:    12            Position(A)                                  Velocity(au)
C        -0.03884459     0.02861889    -0.03691734     0.00010699     0.00018056    -0.00189896
N        -0.04478711    -0.06880946     1.34574678    -0.00003427    -0.00013079     0.00177027
H         0.91647257    -0.04903897    -0.53282153     0.00046438    -0.00010239    -0.00091831
H         0.86218354    -0.05915509     1.89947309     0.00072384    -0.00011733     0.00002729
H        -0.89934595    -0.00024613     1.81553293    -0.00065274     0.00012857    -0.00053947
H        -1.00699671     0.05383413    -0.55120624    -0.00133415    -0.00024305    -0.00054175
     6
  Step:    13            Position(A)                                  Velocity(au)
C        -0.03826561     0.02961084    -0.04718438     0.00009643     0.00016813    -0.00171103
N        -0.04490568    -0.06952796     1.35535965    -0.00000813    -0.00012175     0.00160885
H         0.91942494    -0.04966872    -0.53832077     0.00056844    -0.00011845    -0.00101032
H         0.86588582    -0.05977946     1.89949156     0.00058261    -0.00010251    -0.00001575
H        -0.90368289     0.00051331     1.81310880    -0.00086654     0.00013855    -0.00031774
H        -1.01456597     0.05249275    -0.55454268    -0.00132059    -0.00022923    -0.00062454
     6
  Step:    14            Position(A)                                  Velocity(au)
C        -0.03774668     0.03053313    -0.05639828     0.00004597     0.00008349    -0.00081803
N        -0.04487969    -0.07019565     1.36406426     0.00000861    -0.00006040     0.00077645
H         0.92294451    -0.05038756    -0.54432450     0.00035395    -0.00007143    -0.00058527
H         0.86881680    -0.06032227     1.89929380     0.00024243    -0.00004737    -0.00002611
H        -0.90921196     0.00133131     1.81191533    -0.00057005     0.00007947    -0.00005887
H        -1.02203230     0.05122425    -0.55831697    -0.00069373    -0.00011622    -0.00037191
     6
  Step:    15            Position(A)                                  Velocity(au)
C        -0.03750871     0.03099542    -0.06097212     0.00003849     0.00008045    -0.00080315
N        -0.04476291    -0.07053653     1.36837874     0.00003167    -0.00006036     0.00075305
H         0.92501625    -0.05077069    -0.54765510     0.00037831    -0.00006454    -0.00059500
H         0.86985684    -0.06058414     1.89902862     0.00013147    -0.00004568    -0.00006429
H        -0.91307104     0.00183610     1.81209394    -0.00078735     0.00009865     0.00011491
H        -1.02574348     0.05059257    -0.56035326    -0.00062127    -0.00010823    -0.00034981
     6
  Step:    16            Position(A)                                  Velocity(au)
C        -0.03731261     0.03144025    -0.06545474     0.00003154     0.00007818    -0.00079476
N        -0.04452254    -0.07087632     1.37255570     0.00005270    -0.00006069     0.00073620
H         0.92721039    -0.05111530    -0.55103374     0.00040169    -0.00005837    -0.00060901
H         0.87029924    -0.06083738     1.89856886     0.00003177    -0.00004476    -0.00009583
H        -0.91809025     0.00244369     1.81321105    -0.00098896     0.00011695     0.00027530
H        -1.02903779     0.05000383    -0.56226143    -0.00055273    -0.00010207    -0.00033049
     6
  Step:    17            Position(A)                                  Velocity(au)
C        -0.03715506     0.03187188    -0.06988254     0.00002500     0.00007633    -0.00078977
N        -0.04417207    -0.07121692     1.37663255     0.00007121    -0.00006112     0.00072307
H         0.92951978    -0.05142513    -0.55448299     0.00042248    -0.00005249    -0.00062484
H         0.87021305    -0.06108596     1.89795424    -0.00005660    -0.00004432    -0.00012010
H        -0.92415866     0.00314730     1.81518045    -0.00116748     0.00013367     0.00042070
H        -1.03194033     0.04944825    -0.56405849    -0.00048584    -0.00009710    -0.00031284
     6
  Step:    18            Position(A)                                  Velocity(au)
C        -0.03703340     0.03229264    -0.07427483     0.00001884     0.00007463    -0.00078580
N        -0.04372732    -0.07155886     1.38063086     0.00008663    -0.00006144     0.00071153
H         0.93192858    -0.05170148    -0.55801193     0.00043918    -0.00004656    -0.00064041
H         0.86966711    -0.06133231     1.89722764    -0.00013264    -0.00004413    -0.00013625
H        -0.93112848     0.00393649     1.81790937    -0.00131550     0.00014808     0.00054876
H        -1.03446355     0.04891945    -0.56575522    -0.00041940    -0.00009287    -0.00029619
     6
  Step:    19            Position(A)                                  Velocity(au)
C        -0.03694516     0.03270340    -0.07863778     0.00001309     0.00007292    -0.00078125
N        -0.04320683    -0.07190153     1.38456033     0.00009847    -0.00006153     0.00070019
H         0.93441302    -0.05194393    -0.56161838     0.00045062    -0.00004039    -0.00065419
H         0.86873517    -0.06157766     1.89643616    -0.00019492    -0.00004404    -0.00014349
H        -0.93881576     0.00479722     1.82129466    -0.00142698     0.00015960     0.00065727
H        -1.03661325     0.04841352    -0.56735862    -0.00035316    -0.00008908    -0.00028026
     6
  Step:    20            Position(A)                                  Velocity(au)
C        -0.03688770     0.03310410    -0.08296887     0.00000783     0.00007109    -0.00077518
N        -0.04263148    -0.07224357     1.38842284     0.00010637    -0.00006128     0.00068822
H         0.93694324    -0.05215095    -0.56529197     0.00045601    -0.00003384    -0.00066513
H         0.86749799    -0.06182239     1.89563079    -0.00024204    -0.00004393    -0.00014124
H        -0.94700840     0.00571260     1.82522370    -0.00149796     0.00016782     0.00074470
H        -1.03839364     0.04792816    -0.56887410    -0.00028747    -0.00008554    -0.00026507
     6
  Step:    21            Position(A)                                  Velocity(au)
C        -0.03685802     0.03349411    -0.08726026     0.00000314     0.00006908    -0.00076708
N        -0.04202370    -0.07258320     1.39221558     0.00011014    -0.00006067     0.00067519
H         0.93948534    -0.05232035    -0.56901676     0.00045491    -0.00002685    -0.00067260
H         0.86604289    -0.06206625     1.89486516    -0.00027297    -0.00004371    -0.00012919
H        -0.95547782     0.00666396     1.82957815    -0.00152680     0.00017255     0.00081047
H        -1.03981085     0.04746209    -0.57030703    -0.00022306    -0.00008212    -0.00025079
     6
  Step:    22            Position(A)                                  Velocity(au)
C        -0.03685276     0.03387250    -0.09150131    -0.00000091     0.00006688    -0.00075676
N        -0.04140642    -0.07291840     1.39593314     0.00010979    -0.00005967     0.00066089
H         0.94200338    -0.05244962    -0.57277348     0.00044720    -0.00001939    -0.00067627
H         0.86446171    -0.06230861     1.89419378    -0.00028716    -0.00004335    -0.00010740
H        -0.96399144     0.00763195     1.83423879    -0.00151404     0.00017378     0.00085490
H        -1.04087482     0.04701469    -0.57166370    -0.00016083    -0.00007877    -0.00023770
     6
  Step:    23            Position(A)                                  Velocity(au)
C        -0.03686814     0.03423826    -0.09568033    -0.00000425     0.00006449    -0.00074426
N        -0.04080214    -0.07324717     1.39956903     0.00010550    -0.00005832     0.00064535
H         0.94446108    -0.05253613    -0.57654125     0.00043302    -0.00001147    -0.00067608
H         0.86284779    -0.06254857     1.89367015    -0.00028471    -0.00004281    -0.00007627
H        -0.97232379     0.00859758     1.83909018    -0.00146205     0.00017169     0.00087913
H        -1.04160029     0.04658567    -0.57295181    -0.00010171    -0.00007544    -0.00022611
     6
  Step:    24            Position(A)                                  Velocity(au)
C        -0.03690011     0.03459036    -0.09978583    -0.00000685     0.00006193    -0.00072979
N        -0.04023202    -0.07356760     1.40311664     0.00009761    -0.00005665     0.00062867
H         0.94682337    -0.05257731    -0.58029903     0.00041276    -0.00000311    -0.00067217
H         0.86129252    -0.06278514     1.89334477    -0.00026635    -0.00004210    -0.00003654
H        -0.98026580     0.00954305     1.84402461    -0.00137462     0.00016656     0.00088497
H        -1.04200694     0.04617491    -0.57418063    -0.00004659    -0.00007213    -0.00021634
     6
  Step:    25            Position(A)                                  Velocity(au)
C        -0.03694441     0.03492792    -0.10380740    -0.00000867     0.00005923    -0.00071363
N        -0.03971514    -0.07387802     1.40657006     0.00008654    -0.00005470     0.00061108
H         0.94905764    -0.05257077    -0.58402674     0.00038699     0.00000565    -0.00066487
H         0.85988162    -0.06301736     1.89326329    -0.00023345    -0.00004122     0.00001077
H        -0.98763193     0.01045248     1.84894539    -0.00125652     0.00015881     0.00087464
H        -1.04211914     0.04578236    -0.57536103     0.00000374    -0.00006885    -0.00020866
     6
  Step:    26            Position(A)                                  Velocity(au)
C        -0.03699670     0.03525020    -0.10773621    -0.00000971     0.00005642    -0.00069615
N        -0.03926794    -0.07417703     1.40992452     0.00007280    -0.00005254     0.00059284
H         0.95113468    -0.05251432    -0.58770615     0.00035639     0.00001478    -0.00065458
H         0.85869170    -0.06324439     1.89346480    -0.00018794    -0.00004022     0.00006437
H        -0.99426430     0.01131230     1.85376866    -0.00111298     0.00014887     0.00085061
H        -1.04196527     0.04540790    -0.57650528     0.00004866    -0.00006560    -0.00020332
     6
  Step:    27            Position(A)                                  Velocity(au)
C        -0.03705266     0.03555664    -0.11156531    -0.00001000     0.00005353    -0.00067769
N        -0.03890389    -0.07446354     1.41317665     0.00005694    -0.00005022     0.00057421
H         0.95302926    -0.05240603    -0.59132137     0.00032172     0.00002423    -0.00064176
H         0.85778724    -0.06346559     1.89398060    -0.00013219    -0.00003914     0.00012278
H        -1.00003501     0.01211155     1.85842460    -0.00094944     0.00013724     0.00081545
H        -1.04157689     0.04505129    -0.57762683     0.00008769    -0.00006242    -0.00020050
     6
  Step:    28            Position(A)                                  Velocity(au)
C        -0.03710811     0.03584688    -0.11528966    -0.00000954     0.00005061    -0.00065858
N        -0.03863324    -0.07473675     1.41632458     0.00003955    -0.00004779     0.00055545
H         0.95472052    -0.05224422    -0.59485921     0.00028375     0.00003397    -0.00062692
H         0.85721829    -0.06368062     1.89483326    -0.00006892    -0.00003803     0.00018441
H        -1.00484671     0.01284193     1.86285767    -0.00077125     0.00012438     0.00077170
H        -1.04098783     0.04471219    -0.57874001     0.00012054    -0.00005932    -0.00020032
     6
  Step:    29            Position(A)                                  Velocity(au)
C        -0.03715904     0.03612074    -0.11890601    -0.00000840     0.00004767    -0.00063911
N        -0.03846305    -0.07499619     1.41936789     0.00002118    -0.00004530     0.00053681
H         0.95619203    -0.05202741    -0.59830917     0.00024326     0.00004396    -0.00061050
H         0.85701900    -0.06388947     1.89603609    -0.00000103    -0.00003696     0.00024762
H        -1.00863160     0.01349788     1.86702624    -0.00058345     0.00011076     0.00072174
H        -1.04023332     0.04439006    -0.57985966     0.00014703    -0.00005634    -0.00020285
     6
  Step:    30            Position(A)                                  Velocity(au)
C        -0.03720177     0.03637818    -0.12241271    -0.00000663     0.00004474    -0.00061952
N        -0.03839720    -0.07524162     1.42230743     0.00000237    -0.00004279     0.00051847
H         0.95743176    -0.05175431    -0.60166342     0.00020101     0.00005417    -0.00059297
H         0.85720685    -0.06409253     1.89759308     0.00006853    -0.00003600     0.00031078
H        -1.01134935     0.01407634     1.87090163    -0.00039065     0.00009681     0.00066775
H        -1.03934911     0.04408424    -0.58100084     0.00016715    -0.00005351    -0.00020810
     6
  Step:    31            Position(A)                                  Velocity(au)
C        -0.03723290     0.03661930    -0.12580930    -0.00000428     0.00004184    -0.00059996
N        -0.03843664    -0.07547302     1.42514511    -0.00001637    -0.00004030     0.00050055
H         0.95843191    -0.05142376    -0.60491654     0.00015772     0.00006460    -0.00057470
H         0.85778266    -0.06429057     1.89949904     0.00013684    -0.00003522     0.00037228
H        -1.01298456     0.01457667     1.87446693    -0.00019704     0.00008296     0.00061170
H        -1.03837073     0.04379383    -0.58217849     0.00018100    -0.00005085    -0.00021601
     6
  Step:    32            Position(A)                                  Velocity(au)
C        -0.03724947     0.03684426    -0.12909605    -0.00000144     0.00003897    -0.00058051
N        -0.03857957    -0.07569058     1.42788342    -0.00003458    -0.00003786     0.00048314
H         0.95918875    -0.05103468    -0.60806537     0.00011409     0.00007523    -0.00055607
H         0.85873124    -0.06448487     1.90174017     0.00020115    -0.00003472     0.00043066
H        -1.01354427     0.01500048     1.87771578    -0.00000640     0.00006958     0.00055536
H        -1.03733288     0.04351776    -0.58340711     0.00018876    -0.00004842    -0.00022648
     6
  Step:    33            Position(A)                                  Velocity(au)
C        -0.03724890     0.03705329    -0.13227365     0.00000183     0.00003615    -0.00056121
N        -0.03882167    -0.07589461     1.43052521    -0.00005182    -0.00003548     0.00046626
H         0.95970241    -0.05058598    -0.61110871     0.00007079     0.00008608    -0.00053738
H         0.86002256    -0.06467718     1.90429473     0.00025894    -0.00003459     0.00048457
H        -1.01305578     0.01535151     1.88065127     0.00017783     0.00005706     0.00050033
H        -1.03626879     0.04325468    -0.58470051     0.00019073    -0.00004626    -0.00023936
     6
  Step:    34            Position(A)                                  Velocity(au)
C        -0.03722910     0.03724664    -0.13534303     0.00000543     0.00003338    -0.00054212
N        -0.03915637    -0.07608554     1.43307344    -0.00006771    -0.00003319     0.00044993
H         0.95997668    -0.05007645    -0.61404709     0.00002844     0.00009719    -0.00051892
H         0.86161352    -0.06486989     1.90713398     0.00030804    -0.00003497     0.00053283
H        -1.01156481     0.01563563     1.88328504     0.00035247     0.00004579     0.00044805
H        -1.03520981     0.04300281    -0.58607151     0.00018730    -0.00004448    -0.00025446
     6
  Step:    35            Position(A)                                  Velocity(au)
C        -0.03718847     0.03742464    -0.13830562     0.00000928     0.00003066    -0.00052333
N        -0.03957509    -0.07626394     1.43553144    -0.00008192    -0.00003102     0.00043422
H         0.96001886    -0.04950455    -0.61688258    -0.00001231     0.00010867    -0.00050095
H         0.86345004    -0.06506622     1.91022329     0.00034669    -0.00003604     0.00057449
H        -1.00913404     0.01586104     1.88563657     0.00051456     0.00003623     0.00039989
H        -1.03418482     0.04275979    -0.58753177     0.00017892    -0.00004322    -0.00027154
     6
  Step:    36            Position(A)                                  Velocity(au)
C        -0.03712593     0.03758768    -0.14116346     0.00001326     0.00002802    -0.00050491
N        -0.04006749    -0.07643053     1.43790285    -0.00009415    -0.00002898     0.00041915
H         0.95983974    -0.04886787    -0.61961865    -0.00005084     0.00012076    -0.00048371
H         0.86546940    -0.06527070     1.91352342     0.00037354    -0.00003816     0.00060882
H        -1.00584185     0.01603862     1.88773260     0.00066139     0.00002899     0.00035710
H        -1.03321989     0.04252211    -0.58909157     0.00016613    -0.00004281    -0.00029036
     6
  Step:    37            Position(A)                                  Velocity(au)
C        -0.03704100     0.03773619    -0.14391896     0.00001728     0.00002546    -0.00048689
N        -0.04062175    -0.07658613     1.44019136    -0.00010414    -0.00002710     0.00040469
H         0.95945369    -0.04816203    -0.62226021    -0.00008638     0.00013421    -0.00046750
H         0.86760290    -0.06549042     1.91699184     0.00038775    -0.00004219     0.00063536
H        -1.00178113     0.01618328     1.88960664     0.00079044     0.00002519     0.00032088
H        -1.03233789     0.04228389    -0.59075980     0.00014950    -0.00004407    -0.00031071
     6
  Step:    38            Position(A)                                  Velocity(au)
C        -0.03693390     0.03787064    -0.14657426     0.00002112     0.00002298    -0.00046859
N        -0.04122485    -0.07673166     1.44240022    -0.00011174    -0.00002537     0.00039033
H         0.95887978    -0.04737639    -0.62481407    -0.00011689     0.00015305    -0.00045345
H         0.86977853    -0.06573959     1.92058419     0.00038907    -0.00005271     0.00065401
H        -0.99705763     0.01631860     1.89129851     0.00089978     0.00002984     0.00029235
H        -1.03155847     0.04203236    -0.59254457     0.00012913    -0.00005153    -0.00033331
     6
  Step:    39            Position(A)                                  Velocity(au)
C        -0.03680643     0.03799147    -0.14912446     0.00002561     0.00002194    -0.00043224
N        -0.04186300    -0.07686792     1.44452746    -0.00012219    -0.00002396     0.00036775
H         0.95815520    -0.04646185    -0.62729748    -0.00009735     0.00016622    -0.00052272
H         0.87192508    -0.06607593     1.92425712     0.00040139    -0.00006484     0.00070596
H        -0.99178559     0.01651473     1.89285435     0.00102980     0.00004299     0.00029150
H        -1.03090339     0.04171149    -0.59446248     0.00005900    -0.00007292    -0.00043457
     6
  Step:    40            Position(A)                                  Velocity(au)
C        -0.03665247     0.03810679    -0.15147859     0.00002958     0.00001963    -0.00041652
N        -0.04255066    -0.07699703     1.44653319    -0.00012418    -0.00002267     0.00035528
H         0.95752652    -0.04556264    -0.63015692    -0.00012724     0.00016380    -0.00050723
H         0.87409891    -0.06638538     1.92818973     0.00037522    -0.00005323     0.00070665
H        -0.98587189     0.01669273     1.89442856     0.00108883     0.00002894     0.00028057
H        -1.03064099     0.04136363    -0.59693041     0.00003645    -0.00005846    -0.00045378
     6
  Step:    41            Position(A)                                  Velocity(au)
C        -0.03647808     0.03820939    -0.15374830     0.00003305     0.00001738    -0.00040173
N        -0.04324158    -0.07711955     1.44847144    -0.00012343    -0.00002160     0.00034338
H         0.95674269    -0.04464346    -0.63292821    -0.00015345     0.00016858    -0.00049196
H         0.87609037    -0.06666684     1.93210165     0.00033645    -0.00004965     0.00069929
H        -0.97969844     0.01683595     1.89596891     0.00112306     0.00002538     0.00027982
H        -1.03049875     0.04106255    -0.59949994     0.00001526    -0.00005136    -0.00047181
     6
  Step:    42            Position(A)                                  Velocity(au)
C        -0.03628565     0.03829970    -0.15593665     0.00003608     0.00001521    -0.00038747
N        -0.04392036    -0.07723668     1.45034370    -0.00011994    -0.00002075     0.00033169
H         0.95582372    -0.04369185    -0.63561623    -0.00017601     0.00017490    -0.00047765
H         0.87783253    -0.06693639     1.93594989     0.00028629    -0.00004821     0.00068454
H        -0.97340910     0.01697433     1.89753374     0.00113119     0.00002649     0.00028972
H        -1.03047163     0.04079373    -0.60216612    -0.00000479    -0.00004615    -0.00048882
     6
  Step:    43            Position(A)                                  Velocity(au)
C        -0.03607779     0.03837815    -0.15804657     0.00003862     0.00001312    -0.00037373
N        -0.04457205    -0.07734970     1.45215095    -0.00011382    -0.00002013     0.00032014
H         0.95479021    -0.04270324    -0.63822682    -0.00019479     0.00018182    -0.00046445
H         0.87926627    -0.06720161     1.93969544     0.00022628    -0.00004787     0.00066319
H        -0.96714990     0.01712979     1.89918278     0.00111318     0.00003131     0.00031038
H        -1.03055186     0.04055055    -0.60492249    -0.00002320    -0.00004190    -0.00050456
     6
  Step:    44            Position(A)                                  Velocity(au)
C        -0.03585739     0.03844518    -0.16008094     0.00004061     0.00001110    -0.00036050
N        -0.04518251    -0.07745988     1.45389375    -0.00010526    -0.00001973     0.00030866
H         0.95366367    -0.04167566    -0.64076656    -0.00020963     0.00018900    -0.00045250
H         0.88034173    -0.06746725     1.94330411     0.00015814    -0.00004828     0.00063616
H        -0.96106492     0.01732153     1.90097559     0.00106976     0.00003947     0.00034164
H        -1.03072889     0.04032905    -0.60776120    -0.00003950    -0.00003826    -0.00051881
     6