|===============================================================================
|
|  DFTB+ release 20.1
|
|  Copyright (C) 2006 - 2020  DFTB+ developers group
|
|===============================================================================
|
|  When publishing results obtained with DFTB+, please cite the following
|  reference:
|
|  * DFTB+, a software package for efficient approximate density functional
|    theory based atomistic simulations, J. Chem. Phys. 152, 124101 (2020).
|    [doi: 10.1063/1.5143190]
|
|  You should also cite additional publications crediting the parametrization
|  data you use. Please consult the documentation of the SK-files for the
|  references.
|
|===============================================================================

Reading input file 'dftb_in.hsd'
Parser version: 8

--------------------------------------------------------------------------------
Reading SK-files:
Done.


Processed input in HSD format written to 'dftb_pin.hsd'

Starting initialization...
--------------------------------------------------------------------------------
OpenMP threads:              1
Chosen random seed:          452097511
Mode:                        Static calculation
Self consistent charges:     Yes
SCC-tolerance:                 0.100000E-05
Max. scc iterations:                   1000
Shell resolved Hubbard:      No
Spin polarisation:           No
Nr. of up electrons:             6.000000
Nr. of down electrons:           6.000000
Periodic boundaries:         No
Electronic solver:           Relatively robust
Maximal SCC-cycles:                    1000
Initial charges:             Set automatically (system chrg:   0.100E+01)
Included shells:             C:  s, p
                             N:  s, p
                             H:  s
Spin coupling constants:     C   1(s)-1(s):  -0.455900E-01
                             C   1(s)-2(p):  -0.293000E-01
                             C   2(p)-1(s):  -0.293000E-01
                             C   2(p)-2(p):  -0.275500E-01
                             N   1(s)-1(s):  -0.468700E-01
                             N   1(s)-2(p):  -0.317000E-01
                             N   2(p)-1(s):  -0.317000E-01
                             N   2(p)-2(p):  -0.307200E-01
                             H   1(s)-1(s):  -0.792500E-01
Range separated hybrid:      Yes
  Screening parameter omega:   0.300000E+00
  Range separated algorithm:   MatrixBased
Extra options:
                             Mulliken analysis
                             Force calculation
Force type                   original
                             Eigenvector printing


REKS Calcuation:             Yes
SSR(2,2) Calcuation:         Yes
Energy Functional:           (PPS+OSS)/2
Number of Core Orbitals:                  5
Number of Active Orbitals:                2
Number of Basis:                         12
Number of States:                         2
State-Averaging Weight:          0.500000
                                 0.500000
State of Interest:                        1
Initial Guess:               Diagonalize H0 matrix
Newton-Raphson for FON opt:  Yes
NR max. Iterations:                      50
Level Shifting:              Yes
Shift Value:                     0.300000
W Scale Factor:              C  =    3.200000
                             N  =    3.200000
                             H  =    3.200000
Transition Dipole:           No
Gradient of Microstate:      No
CP-REKS Solver:              Preconditioned Conjugate-Gradient
CG max. Iterations:                     100
CG Tolerance:                  0.100000E-07
Memory for A and Hxc:        Direct Updating Without Saving
Non-Adiabatic Coupling:      Yes

--------------------------------------------------------------------------------

***  Geometry step: 0

  iSCC       reks energy        Diff energy         x_a       SCC error   
    1       -6.2226283481       0.0000000000     0.997145    1.16722197
    2       -6.2331060459      -0.0104776979     0.999010    0.05133990
    3       -6.2357202330      -0.0026141871     0.999518    0.01600522
    4       -6.2364962598      -0.0007760268     0.999694    0.00935011
    5       -6.2367378543      -0.0002415946     0.999768    0.00530488
    6       -6.2368244217      -0.0000865674     0.999804    0.00319872
    7       -6.2368624869      -0.0000380652     0.999824    0.00228355
    8       -6.2368829064      -0.0000204194     0.999836    0.00184724
    9       -6.2368955867      -0.0000126803     0.999844    0.00153921
   10       -6.2369042156      -0.0000086289     0.999850    0.00130447
   11       -6.2369104109      -0.0000061953     0.999855    0.00111745
   12       -6.2369150003      -0.0000045894     0.999858    0.00096432
   13       -6.2369184641      -0.0000034638     0.999861    0.00083663
   14       -6.2369211083      -0.0000026442     0.999863    0.00072873
   15       -6.2369231413      -0.0000020330     0.999865    0.00063663
   16       -6.2369247113      -0.0000015701     0.999867    0.00055741
   17       -6.2369259273      -0.0000012160     0.999868    0.00048886
   18       -6.2369268708      -0.0000009435     0.999869    0.00042928
   19       -6.2369276037      -0.0000007329     0.999870    0.00037731
   20       -6.2369281734      -0.0000005697     0.999871    0.00033187
   21       -6.2369286164      -0.0000004430     0.999872    0.00029205
   22       -6.2369289609      -0.0000003446     0.999873    0.00025711
   23       -6.2369292289      -0.0000002680     0.999873    0.00022642
   24       -6.2369294374      -0.0000002085     0.999874    0.00019944
   25       -6.2369295996      -0.0000001622     0.999874    0.00017571
   26       -6.2369297258      -0.0000001262     0.999875    0.00015482
   27       -6.2369298239      -0.0000000981     0.999875    0.00013643
   28       -6.2369299002      -0.0000000763     0.999875    0.00012023
   29       -6.2369299595      -0.0000000593     0.999876    0.00010596
   30       -6.2369300057      -0.0000000462     0.999876    0.00009339
   31       -6.2369300416      -0.0000000359     0.999876    0.00008232
   32       -6.2369300695      -0.0000000279     0.999876    0.00007256
   33       -6.2369300912      -0.0000000217     0.999876    0.00006396
   34       -6.2369301080      -0.0000000169     0.999877    0.00005638
   35       -6.2369301212      -0.0000000131     0.999877    0.00004970
   36       -6.2369301313      -0.0000000102     0.999877    0.00004381
   37       -6.2369301393      -0.0000000079     0.999877    0.00003862
   38       -6.2369301454      -0.0000000062     0.999877    0.00003404
   39       -6.2369301502      -0.0000000048     0.999877    0.00003001
   40       -6.2369301539      -0.0000000037     0.999877    0.00002645
   41       -6.2369301568      -0.0000000029     0.999877    0.00002332
   42       -6.2369301591      -0.0000000022     0.999877    0.00002056
   43       -6.2369301608      -0.0000000017     0.999877    0.00001812
   44       -6.2369301622      -0.0000000014     0.999877    0.00001598
   45       -6.2369301632      -0.0000000011     0.999877    0.00001408
   46       -6.2369301641      -0.0000000008     0.999877    0.00001242
   47       -6.2369301647      -0.0000000006     0.999877    0.00001095
   48       -6.2369301652      -0.0000000005     0.999877    0.00000965
   49       -6.2369301656      -0.0000000004     0.999877    0.00000851
   50       -6.2369301659      -0.0000000003     0.999878    0.00000750
   51       -6.2369301661      -0.0000000002     0.999878    0.00000661
   52       -6.2369301663      -0.0000000002     0.999878    0.00000583
   53       -6.2369301664      -0.0000000001     0.999878    0.00000514
   54       -6.2369301665      -0.0000000001     0.999878    0.00000453
   55       -6.2369301666      -0.0000000001     0.999878    0.00000399
   56       -6.2369301667      -0.0000000001     0.999878    0.00000352
   57       -6.2369301668      -0.0000000001     0.999878    0.00000310
   58       -6.2369301668      -0.0000000000     0.999878    0.00000274
   59       -6.2369301668      -0.0000000000     0.999878    0.00000241
   60       -6.2369301668      -0.0000000000     0.999878    0.00000213
   61       -6.2369301669      -0.0000000000     0.999878    0.00000187
   62       -6.2369301669      -0.0000000000     0.999878    0.00000165
   63       -6.2369301669      -0.0000000000     0.999878    0.00000146
   64       -6.2369301669      -0.0000000000     0.999878    0.00000128
   65       -6.2369301669      -0.0000000000     0.999878    0.00000113
   66       -6.2369301669      -0.0000000000     0.999878    0.00000100
  
--------------------------------------------------
 Final SA-REKS(2,2) energy:      -6.23693017
  
 State     Energy      FON(1)    FON(2)   Spin
  PPS   -6.32268263   1.999755  0.000245  0.00
  OSS   -6.15117770   1.000000  1.000000  0.00
 Trip   -6.22036686   1.000000  1.000000  1.00
--------------------------------------------------

 Lagrangian Wab:  -0.03064362 -0.03064409

--------------------------------------------------
 SSR: 2SI-2SA-REKS(2,2) Hamiltonian matrix
               PPS           OSS
   PPS    -6.32268263   -0.04285458
   OSS    -0.04285458   -6.15117770
--------------------------------------------------

----------------------------------------------------------------
 SSR: 2SI-2SA-REKS(2,2) states
                    E_n       C_{PPS}    C_{OSS}
 SSR state  1   -6.33279466  -0.973272  -0.229655
 SSR state  2   -6.14106568   0.229655  -0.973272
----------------------------------------------------------------

 unrelaxed SSR FONs for S0:  1.947027  0.052973

Total Energy:                       -6.3327946553 H         -172.3241 eV
Extrapolated to 0:                  -6.3327946553 H         -172.3241 eV

----------------------------------------------------------------------------------
 Solving CP-REKS equation for  1 state vector...
----------------------------------------------------------------------------------
  CG solver: Constructing Y initial guess
  CG solver: Iteration    1    eps =    0.010957924545
  CG solver: Iteration    2    eps =    0.001584703806
  CG solver: Iteration    3    eps =    0.000106519322
  CG solver: Iteration    4    eps =    0.000005296461
  CG solver: Iteration    5    eps =    0.000000363033
  CG solver: Iteration    6    eps =    0.000000027880
  CG solver: Iteration    7    eps =    0.000000002340
  Convergence reached in CG solver after    7 iterations
  CG solver: Calculating converged R, Z, Q2 matrix
----------------------------------------------------------------------------------

----------------------------------------------------------------------------------
 Solving CP-REKS equation for SI between  1 and  2 state vectors...
----------------------------------------------------------------------------------
  CG solver: Constructing Y initial guess
  CG solver: Iteration    1    eps =    0.026816397735
  CG solver: Iteration    2    eps =    0.018569737302
  CG solver: Iteration    3    eps =    0.001080666306
  CG solver: Iteration    4    eps =    0.000047024784
  CG solver: Iteration    5    eps =    0.000004419751
  CG solver: Iteration    6    eps =    0.000000369616
  CG solver: Iteration    7    eps =    0.000000036649
  CG solver: Iteration    8    eps =    0.000000002406
  Convergence reached in CG solver after    8 iterations
  CG solver: Calculating converged R, Z, Q2 matrix
----------------------------------------------------------------------------------

--------------------------------------------------
 Gradient Information
--------------------------------------------------
           1 st state (SSR)
    -0.02229033    -0.00398880     0.14228152
     0.02793489     0.07886651    -0.06893704
    -0.00601200    -0.00252094     0.00845186
    -0.05669240    -0.04601878    -0.00814319
     0.01720918    -0.00190255    -0.05031347
     0.03985066    -0.02443545    -0.02333968

           2 st state (SSR)
     0.04038711    -0.04229931     0.27899696
     0.02089641     0.08732491    -0.23981472
     0.02608076    -0.02390244     0.01614243
    -0.03386967    -0.05718042    -0.01578021
    -0.02797082     0.04715378    -0.02908914
    -0.02552380    -0.01109653    -0.01045531
--------------------------------------------------
 Coupling Information
--------------------------------------------------
 between  1 and  2 states
--------------------------------------------------
 g vector - difference gradient
    -0.03169657     0.05577855    -0.13395597
     0.00265221    -0.03104022     0.14386429
    -0.03772679     0.00738016    -0.00106850
    -0.01834440     0.01842245     0.01059715
     0.03582781    -0.03729375    -0.01595953
     0.04928775    -0.01324719    -0.00347744

 h vector - derivative coupling
    -0.00667866    -0.06876372     0.11513304
     0.00256535     0.05265121    -0.09674969
     0.03959641     0.00914713    -0.00646372
     0.01118044    -0.02437937    -0.01266312
    -0.02115864     0.01975637     0.00819607
    -0.02550490     0.01158838    -0.00745258

 G vector - GDV
    -0.03133872     0.01915525    -0.06835772
     0.00351924    -0.00422920     0.08543884
    -0.01604638     0.01069075    -0.00384529
    -0.01141136     0.00558082     0.00381851
     0.02259000    -0.02452817    -0.01061216
     0.03268723    -0.00666946    -0.00644218

 H vector - DCV - non-adiabatic coupling
     0.04274380    -0.45087182     0.84948683
     0.00578487     0.31801886    -0.78682087
     0.27270162     0.02546872    -0.02766538
     0.09493427    -0.15669627    -0.08378834
    -0.18225198     0.17912759     0.07545006
    -0.23391257     0.08495293    -0.02666230
--------------------------------------------------


--------------------------------------------------------------------------------
DFTB+ running times                          cpu [s]             wall clock [s]
--------------------------------------------------------------------------------
SCC                                    +     0.03  ( 70.2%)      0.03  ( 66.0%)
Post-SCC processing                    +     0.01  ( 26.7%)      0.01  ( 25.5%)
  Force calculation                          0.01  ( 26.2%)      0.01  ( 23.4%)
--------------------------------------------------------------------------------
Missing                                +     0.00  (  3.1%)      0.00  (  8.5%)
Total                                  =     0.04  (100.0%)      0.05  (100.0%)
--------------------------------------------------------------------------------
