|===============================================================================
|
|  DFTB+ release 20.1
|
|  Copyright (C) 2006 - 2020  DFTB+ developers group
|
|===============================================================================
|
|  When publishing results obtained with DFTB+, please cite the following
|  reference:
|
|  * DFTB+, a software package for efficient approximate density functional
|    theory based atomistic simulations, J. Chem. Phys. 152, 124101 (2020).
|    [doi: 10.1063/1.5143190]
|
|  You should also cite additional publications crediting the parametrization
|  data you use. Please consult the documentation of the SK-files for the
|  references.
|
|===============================================================================

Reading input file 'dftb_in.hsd'
Parser version: 8

--------------------------------------------------------------------------------
Reading SK-files:
Done.


Processed input in HSD format written to 'dftb_pin.hsd'

Starting initialization...
--------------------------------------------------------------------------------
WARNING!
-> Excited state forces are not implemented yet for fractional occupations, kT=  0.3158E-02K
OpenMP threads:              1
Chosen random seed:          435836149
Mode:                        Static calculation
Self consistent charges:     Yes
SCC-tolerance:                 0.100000E-05
Max. scc iterations:                    100
Shell resolved Hubbard:      No
Spin polarisation:           No
Nr. of up electrons:             6.000000
Nr. of down electrons:           6.000000
Periodic boundaries:         No
Electronic solver:           Relatively robust
Mixer:                       Broyden mixer
Mixing parameter:                  0.200000
Maximal SCC-cycles:                     100
Nr. of chrg. vec. in memory:              0
Electronic temperature:        0.100000E-07 H      0.272114E-06 eV
Initial charges:             Set automatically (system chrg:   0.100E+01)
Included shells:             C:  s, p
                             N:  s, p
                             H:  s
Extra options:
                             Mulliken analysis
                             Force calculation
Force type                   original
                             Eigenvector printing

--------------------------------------------------------------------------------

***  Geometry step: 0

 iSCC Total electronic   Diff electronic      SCC error    
    1   -0.54379656E+01    0.00000000E+00    0.60552079E+00
    2   -0.54410723E+01   -0.31066570E-02    0.41997178E+00
    3   -0.54434504E+01   -0.23781527E-02    0.49365927E-01
    4   -0.54436503E+01   -0.19988479E-03    0.12121676E-01
    5   -0.54436487E+01    0.16629386E-05    0.50230050E-02
    6   -0.54436511E+01   -0.24484241E-05    0.14497972E-03
    7   -0.54436511E+01   -0.32149128E-09    0.33564031E-04
    8   -0.54436511E+01   -0.41722181E-10    0.24104770E-05
    9   -0.54436511E+01   -0.21049829E-12    0.11600932E-05
   10   -0.54436511E+01   -0.43520743E-13    0.20870009E-07
>> Charges saved for restart in charges.bin

Total Energy:                       -5.0743231613 H         -138.0794 eV
Extrapolated to 0:                  -5.2447770273 H         -142.7176 eV
Total Mermin free energy:           -5.0743231613 H         -138.0794 eV
Force related energy:               -5.2447770273 H         -142.7176 eV

--------------------------------------------------------------------------------
DFTB+ running times                          cpu [s]             wall clock [s]
--------------------------------------------------------------------------------
SCC                                    +     0.01  ( 50.0%)      0.10  ( 84.2%)
Post-SCC processing                    +     0.01  ( 44.3%)      0.02  ( 14.2%)
--------------------------------------------------------------------------------
Missing                                +     0.00  (  5.7%)      0.00  (  1.7%)
Total                                  =     0.02  (100.0%)      0.12  (100.0%)
--------------------------------------------------------------------------------
