|===============================================================================
|
|  DFTB+ release 20.1
|
|  Copyright (C) 2006 - 2020  DFTB+ developers group
|
|===============================================================================
|
|  When publishing results obtained with DFTB+, please cite the following
|  reference:
|
|  * DFTB+, a software package for efficient approximate density functional
|    theory based atomistic simulations, J. Chem. Phys. 152, 124101 (2020).
|    [doi: 10.1063/1.5143190]
|
|  You should also cite additional publications crediting the parametrization
|  data you use. Please consult the documentation of the SK-files for the
|  references.
|
|===============================================================================

Reading input file 'dftb_in.hsd'
Parser version: 8

--------------------------------------------------------------------------------
Reading SK-files:
Done.


Processed input in HSD format written to 'dftb_pin.hsd'

Starting initialization...
--------------------------------------------------------------------------------
OpenMP threads:              1
Chosen random seed:          510744440
Mode:                        Static calculation
Self consistent charges:     Yes
SCC-tolerance:                 0.100000E-05
Max. scc iterations:                   1000
Shell resolved Hubbard:      No
Spin polarisation:           No
Nr. of up electrons:             6.000000
Nr. of down electrons:           6.000000
Periodic boundaries:         No
Electronic solver:           Relatively robust
Maximal SCC-cycles:                    1000
Initial charges:             Set automatically (system chrg:   0.100E+01)
Included shells:             C:  s, p
                             N:  s, p
                             H:  s
Spin coupling constants:     C   1(s)-1(s):  -0.455900E-01
                             C   1(s)-2(p):  -0.293000E-01
                             C   2(p)-1(s):  -0.293000E-01
                             C   2(p)-2(p):  -0.275500E-01
                             N   1(s)-1(s):  -0.468700E-01
                             N   1(s)-2(p):  -0.317000E-01
                             N   2(p)-1(s):  -0.317000E-01
                             N   2(p)-2(p):  -0.307200E-01
                             H   1(s)-1(s):  -0.792500E-01
Range separated hybrid:      Yes
  Screening parameter omega:   0.300000E+00
  Range separated algorithm:   MatrixBased
Extra options:
                             Mulliken analysis
                             Force calculation
Force type                   original
                             Eigenvector printing


REKS Calcuation:             Yes
SSR(2,2) Calcuation:         Yes
Energy Functional:           (PPS+OSS)/2
Number of Core Orbitals:                  5
Number of Active Orbitals:                2
Number of Basis:                         12
Number of States:                         2
State-Averaging Weight:          0.500000
                                 0.500000
State of Interest:                        1
Initial Guess:               Diagonalize H0 matrix
Newton-Raphson for FON opt:  Yes
NR max. Iterations:                      50
Level Shifting:              Yes
Shift Value:                     0.300000
W Scale Factor:              C  =    3.000000
                             N  =    3.000000
                             H  =    3.000000
Transition Dipole:           No
Gradient of Microstate:      No
CP-REKS Solver:              Preconditioned Conjugate-Gradient
CG max. Iterations:                     100
CG Tolerance:                  0.100000E-07
Memory for A and Hxc:        Direct Updating Without Saving
Non-Adiabatic Coupling:      Yes

--------------------------------------------------------------------------------

***  Geometry step: 0

  iSCC       reks energy        Diff energy         x_a       SCC error   
    1       -6.2623756297       0.0000000000     0.998691    1.17856673
    2       -6.2762436526      -0.0138680229     0.999518    0.11193805
    3       -6.2801941660      -0.0039505134     0.999747    0.05309351
    4       -6.2819187165      -0.0017245505     0.999837    0.02719079
    5       -6.2828389119      -0.0009201955     0.999878    0.01481541
    6       -6.2834188278      -0.0005799159     0.999899    0.00824512
    7       -6.2838274642      -0.0004086364     0.999911    0.00623944
    8       -6.2841324043      -0.0003049401     0.999919    0.00571278
    9       -6.2843653720      -0.0002329678     0.999924    0.00511349
   10       -6.2845444484      -0.0001790764     0.999927    0.00451167
   11       -6.2846818127      -0.0001373642     0.999930    0.00394126
   12       -6.2847865826      -0.0001047700     0.999932    0.00341805
   13       -6.2848659361      -0.0000793534     0.999933    0.00294816
   14       -6.2849256122      -0.0000596761     0.999934    0.00254451
   15       -6.2849701907      -0.0000445785     0.999935    0.00225568
   16       -6.2850032911      -0.0000331004     0.999935    0.00199997
   17       -6.2850277392      -0.0000244481     0.999936    0.00176194
   18       -6.2850457146      -0.0000179754     0.999936    0.00154388
   19       -6.2850588797      -0.0000131651     0.999936    0.00134662
   20       -6.2850684900      -0.0000096103     0.999936    0.00116997
   21       -6.2850754858      -0.0000069958     0.999937    0.00101308
   22       -6.2850805665      -0.0000050806     0.999937    0.00087468
   23       -6.2850842489      -0.0000036824     0.999937    0.00075330
   24       -6.2850869134      -0.0000026645     0.999937    0.00064734
   25       -6.2850888387      -0.0000019253     0.999937    0.00055523
   26       -6.2850902282      -0.0000013894     0.999937    0.00047544
   27       -6.2850912299      -0.0000010017     0.999937    0.00040652
   28       -6.2850919514      -0.0000007216     0.999937    0.00034716
   29       -6.2850924708      -0.0000005194     0.999937    0.00029614
   30       -6.2850928444      -0.0000003736     0.999937    0.00025237
   31       -6.2850931130      -0.0000002686     0.999937    0.00021489
   32       -6.2850933060      -0.0000001930     0.999937    0.00018284
   33       -6.2850934446      -0.0000001386     0.999937    0.00015547
   34       -6.2850935442      -0.0000000996     0.999937    0.00013212
   35       -6.2850936157      -0.0000000715     0.999937    0.00011222
   36       -6.2850936670      -0.0000000513     0.999937    0.00009528
   37       -6.2850937038      -0.0000000368     0.999937    0.00008087
   38       -6.2850937302      -0.0000000264     0.999937    0.00006861
   39       -6.2850937491      -0.0000000189     0.999937    0.00005820
   40       -6.2850937627      -0.0000000136     0.999937    0.00004935
   41       -6.2850937724      -0.0000000097     0.999937    0.00004184
   42       -6.2850937794      -0.0000000070     0.999937    0.00003546
   43       -6.2850937844      -0.0000000050     0.999937    0.00003006
   44       -6.2850937880      -0.0000000036     0.999937    0.00002547
   45       -6.2850937906      -0.0000000026     0.999937    0.00002158
   46       -6.2850937924      -0.0000000018     0.999937    0.00001828
   47       -6.2850937938      -0.0000000013     0.999937    0.00001549
   48       -6.2850937947      -0.0000000009     0.999937    0.00001312
   49       -6.2850937954      -0.0000000007     0.999937    0.00001111
   50       -6.2850937959      -0.0000000005     0.999937    0.00000941
   51       -6.2850937962      -0.0000000003     0.999937    0.00000797
   52       -6.2850937965      -0.0000000003     0.999937    0.00000675
   53       -6.2850937966      -0.0000000002     0.999937    0.00000571
   54       -6.2850937968      -0.0000000001     0.999937    0.00000484
   55       -6.2850937969      -0.0000000001     0.999937    0.00000410
   56       -6.2850937969      -0.0000000001     0.999937    0.00000347
   57       -6.2850937970      -0.0000000000     0.999937    0.00000294
   58       -6.2850937970      -0.0000000000     0.999937    0.00000249
   59       -6.2850937970      -0.0000000000     0.999937    0.00000211
   60       -6.2850937971      -0.0000000000     0.999937    0.00000178
   61       -6.2850937971      -0.0000000000     0.999937    0.00000151
   62       -6.2850937971      -0.0000000000     0.999937    0.00000128
   63       -6.2850937971      -0.0000000000     0.999937    0.00000108
   64       -6.2850937971      -0.0000000000     0.999937    0.00000092
  
--------------------------------------------------
 Final SA-REKS(2,2) energy:      -6.28509380
  
 State     Energy      FON(1)    FON(2)   Spin
  PPS   -6.40944264   1.999874  0.000126  0.00
  OSS   -6.16074495   1.000000  1.000000  0.00
 Trip   -6.24283945   1.000000  1.000000  1.00
--------------------------------------------------

 Lagrangian Wab:  -0.00750012 -0.00749982

--------------------------------------------------
 SSR: 2SI-2SA-REKS(2,2) Hamiltonian matrix
               PPS           OSS
   PPS    -6.40944264   -0.01052213
   OSS    -0.01052213   -6.16074495
--------------------------------------------------

----------------------------------------------------------------
 SSR: 2SI-2SA-REKS(2,2) states
                    E_n       C_{PPS}    C_{OSS}
 SSR state  1   -6.40988703  -0.999109  -0.042196
 SSR state  2   -6.16030056   0.042196  -0.999109
----------------------------------------------------------------

 unrelaxed SSR FONs for S0:  1.998093  0.001907

Total Energy:                       -6.4098870295 H         -174.4219 eV
Extrapolated to 0:                  -6.4098870295 H         -174.4219 eV

----------------------------------------------------------------------------------
 Solving CP-REKS equation for  1 state vector...
----------------------------------------------------------------------------------
  CG solver: Constructing Y initial guess
  CG solver: Iteration    1    eps =    0.000138615188
  CG solver: Iteration    2    eps =    0.000068507691
  CG solver: Iteration    3    eps =    0.000017196680
  CG solver: Iteration    4    eps =    0.000001082537
  CG solver: Iteration    5    eps =    0.000000012808
  CG solver: Iteration    6    eps =    0.000000005769
  Convergence reached in CG solver after    6 iterations
  CG solver: Calculating converged R, Z, Q2 matrix
----------------------------------------------------------------------------------

----------------------------------------------------------------------------------
 Solving CP-REKS equation for SI between  1 and  2 state vectors...
----------------------------------------------------------------------------------
  CG solver: Constructing Y initial guess
  CG solver: Iteration    1    eps =    0.003605356753
  CG solver: Iteration    2    eps =    0.005768630264
  CG solver: Iteration    3    eps =    0.000693725083
  CG solver: Iteration    4    eps =    0.000007752156
  CG solver: Iteration    5    eps =    0.000001089902
  CG solver: Iteration    6    eps =    0.000000019161
  CG solver: Iteration    7    eps =    0.000000000486
  Convergence reached in CG solver after    7 iterations
  CG solver: Calculating converged R, Z, Q2 matrix
----------------------------------------------------------------------------------

--------------------------------------------------
 Gradient Information
--------------------------------------------------
           1 st state (SSR)
     0.00052006     0.00326656    -0.01647790
     0.00009263     0.00088490     0.01504957
     0.01335486    -0.00180042     0.00504832
     0.01425113    -0.00439311    -0.00627910
    -0.01442988     0.00208500    -0.00550543
    -0.01378879    -0.00004293     0.00816453

           2 st state (SSR)
    -0.00035328    -0.00566605     0.09234460
    -0.00012183     0.00614386    -0.10692441
    -0.01388177    -0.00737203     0.01939078
    -0.01120708     0.00514732    -0.01385720
     0.01198066    -0.00500622    -0.01379767
     0.01358330     0.00675312     0.02284390
--------------------------------------------------
 Coupling Information
--------------------------------------------------
 between  1 and  2 states
--------------------------------------------------
 g vector - difference gradient
     0.00047117     0.00450733    -0.05709521
     0.00013811    -0.00268738     0.06320825
     0.01486369     0.00234730    -0.00700590
     0.01420839    -0.00473126     0.00389091
    -0.01468892     0.00347750     0.00419666
    -0.01499245    -0.00291349    -0.00719472

 h vector - derivative coupling
    -0.00038933    -0.00029622     0.02942069
    -0.00036043     0.00057322    -0.02367484
    -0.01414249     0.00529981    -0.00225672
    -0.01694442    -0.00066187    -0.00104375
     0.01697582     0.00095469    -0.00042221
     0.01486084    -0.00586963    -0.00202316

 G vector - GDV
     0.00043667     0.00446630    -0.05441125
     0.00010723    -0.00262948     0.06098699
     0.01361832     0.00278581    -0.00717123
     0.01272910    -0.00477022     0.00378905
    -0.01320527     0.00354561     0.00414612
    -0.01368604    -0.00339802    -0.00733968

 H vector - DCV - non-adiabatic coupling
    -0.00171350    -0.00270530     0.13674615
    -0.00148562     0.00319637    -0.11587181
    -0.06148324     0.02036576    -0.00664289
    -0.07244815    -0.00104409    -0.00548147
     0.07273585     0.00263668    -0.00310335
     0.06439466    -0.02244943    -0.00564663
--------------------------------------------------


--------------------------------------------------------------------------------
DFTB+ running times                          cpu [s]             wall clock [s]
--------------------------------------------------------------------------------
SCC                                    +     0.03  ( 71.4%)      0.03  ( 67.3%)
Post-SCC processing                    +     0.01  ( 25.4%)      0.01  ( 24.5%)
  Force calculation                          0.01  ( 24.8%)      0.01  ( 20.4%)
--------------------------------------------------------------------------------
Missing                                +     0.00  (  3.2%)      0.00  (  8.2%)
Total                                  =     0.04  (100.0%)      0.05  (100.0%)
--------------------------------------------------------------------------------
