     6
  Step:     0            Position(A)                                  Velocity(au)
C        -0.04163268     0.01408837     0.04138078    -0.00001211    -0.00012888     0.00013910
N        -0.04144332    -0.04196647     1.27779588    -0.00025785     0.00008779    -0.00009201
H         0.90425560    -0.03863334    -0.52345960     0.00017789     0.00056730    -0.00002174
H         0.83613385    -0.17698435     1.83072538     0.00158027    -0.00058180     0.00025853
H        -0.95428827    -0.10624075     1.84563929     0.00151229     0.00007001    -0.00080232
H        -0.92703043     0.06738272    -0.51066030     0.00045704     0.00026023     0.00018662
     6
  Step:     1            Position(A)                                  Velocity(au)
C        -0.04164144     0.01342819     0.04169012     0.00000920    -0.00011270    -0.00002604
N        -0.04287519    -0.04148771     1.27773136    -0.00026316     0.00008720     0.00006851
H         0.90539660    -0.03568149    -0.52355737     0.00023889     0.00051269    -0.00001295
H         0.84475802    -0.18030888     1.83204679     0.00155553    -0.00063088     0.00021504
H        -0.94570984    -0.10596052     1.84098952     0.00160713     0.00003138    -0.00088777
H        -0.92537174     0.06868870    -0.51002369     0.00014589     0.00021795     0.00004396
     6
  Step:     2            Position(A)                                  Velocity(au)
C        -0.04153207     0.01285541     0.04109591     0.00003073    -0.00009684    -0.00019039
N        -0.04432227    -0.04101248     1.27854536    -0.00026317     0.00008654     0.00022794
H         0.90686897    -0.03302465    -0.52360132     0.00029827     0.00045896    -0.00000227
H         0.85315102    -0.18388604     1.83307783     0.00149635    -0.00067410     0.00015398
H        -0.93670667    -0.10589750     1.83592726     0.00166373    -0.00000990    -0.00095029
H        -0.92543446     0.06976702    -0.51017934    -0.00016749     0.00017641    -0.00010024
     6
  Step:     3            Position(A)                                  Velocity(au)
C        -0.04130515     0.01236839     0.03960662     0.00005177    -0.00008124    -0.00035208
N        -0.04575509    -0.04054068     1.28022578    -0.00025760     0.00008594     0.00038369
H         0.90866063    -0.03065899    -0.52358219     0.00035455     0.00040559     0.00000986
H         0.86113302    -0.18768575     1.83373180     0.00140538    -0.00071178     0.00007890
H        -0.92750307    -0.10606887     1.83059017     0.00167590    -0.00005477    -0.00098500
H        -0.92720464     0.07061923    -0.51112069    -0.00047298     0.00013467    -0.00024029
     6
  Step:     4            Position(A)                                  Velocity(au)
C        -0.04096518     0.01196585     0.03724076     0.00007158    -0.00006583    -0.00050895
N        -0.04714295    -0.04007142     1.28274666    -0.00024623     0.00008552     0.00053294
H         0.91075121    -0.02858353    -0.52349338     0.00040601     0.00035208     0.00002285
H         0.86853948    -0.19167973     1.83394176     0.00128527    -0.00074388    -0.00000644
H        -0.91835611    -0.10649718     1.82514182     0.00163762    -0.00010405    -0.00098715
H        -0.93061347     0.07124159    -0.51281047    -0.00076020     0.00009188    -0.00037053
     6
  Step:     5            Position(A)                                  Velocity(au)
C        -0.04052054     0.01164683     0.03402826     0.00008944    -0.00005060    -0.00065844
N        -0.04845391    -0.03960335     1.28606711    -0.00022885     0.00008530     0.00067258
H         0.91311074    -0.02679998    -0.52333169     0.00045070     0.00029809     0.00003600
H         0.87522032    -0.19583911     1.83366116     0.00113874    -0.00076988    -0.00009814
H        -0.90955375    -0.10720928     1.81977039     0.00154377    -0.00015820    -0.00095256
H        -0.93553691     0.07162628    -0.51518188    -0.00101880     0.00004761    -0.00048562
     6
  Step:     6            Position(A)                                  Velocity(au)
C        -0.03998336     0.01141037     0.03001254     0.00010465    -0.00003562    -0.00079762
N        -0.04965518    -0.03913507     1.29013003    -0.00020544     0.00008523     0.00079931
H         0.91569883    -0.02531114    -0.52309820     0.00048669     0.00024373     0.00004840
H         0.88104026    -0.20013130     1.83286440     0.00096905    -0.00078875    -0.00019209
H        -0.90140907    -0.10823389     1.81468494     0.00139121    -0.00021707    -0.00087835
H        -0.94179753     0.07176428    -0.51814151    -0.00123917     0.00000209    -0.00058106
     6
  Step:     7            Position(A)                                  Velocity(au)
C        -0.03936914     0.01125495     0.02525284     0.00011665    -0.00002107    -0.00092315
N        -0.05071415    -0.03866564     1.29486119    -0.00017628     0.00008519     0.00090980
H         0.91846539    -0.02411840    -0.52279919     0.00051249     0.00018960     0.00005903
H         0.88588191    -0.20451696     1.83154777     0.00078046    -0.00079904    -0.00028403
H        -0.89424761    -0.10959752     1.81010677     0.00118011    -0.00027965    -0.00076396
H        -0.94917033     0.07164929    -0.52157473    -0.00141343    -0.00004372    -0.00065361
     6
  Step:     8            Position(A)                                  Velocity(au)
C        -0.03869624     0.01117786     0.01982628     0.00012498    -0.00000724    -0.00103161
N        -0.05160026    -0.03819504     1.30016897    -0.00014206     0.00008500     0.00100095
H         0.92135381    -0.02321900    -0.52244681     0.00052744     0.00013673     0.00006683
H         0.88965204    -0.20894811     1.82973030     0.00057858    -0.00079934    -0.00036973
H        -0.88838738    -0.11131966     1.80625523     0.00091524    -0.00034414    -0.00061207
H        -0.95739366     0.07128191    -0.52535363    -0.00153642    -0.00008825    -0.00070180
     6
  Step:     9            Position(A)                                  Velocity(au)
C        -0.03798508     0.01117481     0.01382866     0.00012941     0.00000558    -0.00111989
N        -0.05228735    -0.03772433     1.30594578    -0.00010395     0.00008449     0.00107038
H         0.92430635    -0.02260429    -0.52205913     0.00053201     0.00008627     0.00007081
H         0.89228922    -0.21336898     1.82745340     0.00037042    -0.00078881    -0.00044524
H        -0.88411211    -0.11340856     1.80332861     0.00060656    -0.00040820    -0.00042909
H        -0.96618485     0.07067198    -0.52934653    -0.00160651    -0.00012980    -0.00072610
     6
  Step:    10            Position(A)                                  Velocity(au)
C        -0.03725715     0.01123989     0.00737262     0.00012993     0.00001711    -0.00118593
N        -0.05275624    -0.03725553     1.31207197    -0.00006353     0.00008354     0.00111701
H         0.92726999    -0.02225967    -0.52165935     0.00052771     0.00003925     0.00007028
H         0.89377125    -0.21772003     1.82477907     0.00016388    -0.00076771    -0.00050733
H        -0.88164224    -0.11585904     1.80148359     0.00026883    -0.00046949    -0.00022477
H        -0.97525865     0.06983851    -0.53342817    -0.00162581    -0.00016693    -0.00072887
     6
  Step:    11            Position(A)                                  Velocity(au)
C        -0.03653372     0.01136597     0.00058143     0.00012681     0.00002722    -0.00122948
N        -0.05299704    -0.03679115     1.31842309    -0.00002267     0.00008217     0.00114162
H         0.93020109    -0.02216584    -0.52127407     0.00051682    -0.00000365     0.00006494
H         0.89411986    -0.22194456     1.82178631    -0.00003305    -0.00073767    -0.00055386
H        -0.88110918    -0.11865292     1.80081788    -0.00007994    -0.00052612    -0.00001099
H        -0.98434570     0.06880731    -0.53748826    -0.00159994    -0.00019886    -0.00071382
     6
  Step:    12            Position(A)                                  Velocity(au)
C        -0.03583444     0.01154525    -0.00642118     0.00012058     0.00003588    -0.00125256
N        -0.05301054    -0.03633360     1.32487998     0.00001677     0.00008051     0.00114704
H         0.93306832    -0.02230061    -0.52093082     0.00050201    -0.00004220     0.00005496
H         0.89340048    -0.22599606     1.81856524    -0.00021347    -0.00070157    -0.00058404
H        -0.88253906    -0.12176163     1.80136024    -0.00042126    -0.00057703     0.00020015
H        -0.99320869     0.06760749    -0.54143661    -0.00153716    -0.00022555    -0.00068519
     6
  Step:    13            Position(A)                                  Velocity(au)
C        -0.03517592     0.01176998    -0.01352322     0.00011195     0.00004322    -0.00125925
N        -0.05280818    -0.03588456     1.33133953     0.00005318     0.00007876     0.00113781
H         0.93585407    -0.02264101    -0.52065520     0.00048598    -0.00007662     0.00004093
H         0.89171600    -0.22984467     1.81520963    -0.00037253    -0.00066307    -0.00059848
H        -0.88585282    -0.12515069     1.80307169    -0.00073925    -0.00062219     0.00039846
H        -1.00165520     0.06626750    -0.54520397    -0.00144714    -0.00024767    -0.00064706
     6
  Step:    14            Position(A)                                  Velocity(au)
C        -0.03457076     0.01203314    -0.02063593     0.00010165     0.00004949    -0.00125477
N        -0.05241025    -0.03544453     1.33772391     0.00008544     0.00007717     0.00111925
H         0.93855420    -0.02316546    -0.52046883     0.00047114    -0.00010751     0.00002347
H         0.88919521    -0.23348095     1.81180939    -0.00050768    -0.00062587    -0.00059866
H        -0.89088392    -0.12878515     1.80585821    -0.00102269    -0.00066236     0.00057696
H        -1.00954444     0.06481168    -0.54874085    -0.00133944    -0.00026634    -0.00060330
     6
  Step:    15            Position(A)                                  Velocity(au)
C        -0.03402742     0.01232907    -0.02769971     0.00009032     0.00005495    -0.00124395
N        -0.05184284    -0.03501270     1.34398485     0.00011294     0.00007593     0.00109608
H         0.94117701    -0.02385561    -0.52039005     0.00045924    -0.00013568     0.00000304
H         0.88598020    -0.23691582     1.80844590    -0.00061802    -0.00059302    -0.00058608
H        -0.89740724    -0.13263410     1.80959027    -0.00126499    -0.00069852     0.00073184
H        -1.01678826     0.06325835    -0.55202015    -0.00122193    -0.00028271    -0.00055730
     6
  Step:    16            Position(A)                                  Velocity(au)
C        -0.03355093     0.01265354    -0.03468148     0.00007836     0.00005983    -0.00123000
N        -0.05113507    -0.03458719     1.35009980     0.00013533     0.00007515     0.00107139
H         0.94373948    -0.02469746    -0.52043449     0.00045110    -0.00016194    -0.00002002
H         0.88221709    -0.24017674     1.80519188    -0.00070322    -0.00056646    -0.00056162
H        -0.90516693    -0.13667214     1.81412146    -0.00146247    -0.00073122     0.00086134
H        -1.02334127     0.06161959    -0.55503330    -0.00109970    -0.00029767    -0.00051126
     6
  Step:    17            Position(A)                                  Velocity(au)
C        -0.03314405     0.01300359    -0.04156579     0.00010046     0.00009786    -0.00184813
N        -0.05031729    -0.03416555     1.35606279     0.00023192     0.00011388     0.00159271
H         0.94626233    -0.02568115    -0.52061569     0.00067980    -0.00028437    -0.00006910
H         0.87805261    -0.24330163     1.80211462    -0.00116082    -0.00083273    -0.00079966
H        -0.91389390    -0.14087729     1.81930028    -0.00245443    -0.00115718     0.00146804
H        -1.02918537     0.05990271    -0.55778365    -0.00148451    -0.00047437    -0.00070975
     6
  Step:    18            Position(A)                                  Velocity(au)
C        -0.03261191     0.01353531    -0.05155392     0.00005592     0.00005778    -0.00107794
N        -0.04899224    -0.03353510     1.36468305     0.00014879     0.00006998     0.00093200
H         0.95026641    -0.02722456    -0.52141585     0.00047053    -0.00016769    -0.00013462
H         0.87152103    -0.24784868     1.79780741    -0.00072237    -0.00050026    -0.00045692
H        -0.92792538    -0.14730100     1.82779632    -0.00158045    -0.00071129     0.00096895
H        -1.03738093     0.05731969    -0.56194347    -0.00090169    -0.00028188    -0.00048404
     6
  Step:    19            Position(A)                                  Velocity(au)
C        -0.03233561     0.01387186    -0.05756187     0.00004226     0.00006156    -0.00105480
N        -0.04813792    -0.03314067     1.36985019     0.00015207     0.00007022     0.00090283
H         0.95290200    -0.02823740    -0.52224407     0.00046564    -0.00019140    -0.00015965
H         0.86744107    -0.25064684     1.79541491    -0.00071399    -0.00049686    -0.00038772
H        -0.93696215    -0.15135881     1.83338722    -0.00160654    -0.00072711     0.00100461
H        -1.04206415     0.05569688    -0.56452695    -0.00076181    -0.00029390    -0.00043430
     6
  Step:    20            Position(A)                                  Velocity(au)
C        -0.03213615     0.01422835    -0.06342962     0.00002888     0.00006520    -0.00103325
N        -0.04728016    -0.03274456     1.37484782     0.00015091     0.00007091     0.00087611
H         0.95550892    -0.02937951    -0.52321328     0.00046225    -0.00021469    -0.00018539
H         0.86348234    -0.25344269     1.79344215    -0.00068334    -0.00050176    -0.00030989
H        -0.94601302    -0.15548739     1.83910701    -0.00159486    -0.00074002     0.00102066
H        -1.04595800     0.05401078    -0.56683318    -0.00062529    -0.00030584    -0.00038780
     6
  Step:    21            Position(A)                                  Velocity(au)
C        -0.03201128     0.01460412    -0.06916713     0.00001585     0.00006863    -0.00101142
N        -0.04644289    -0.03234421     1.37969043     0.00014541     0.00007191     0.00085014
H         0.95809389    -0.03064871    -0.52432631     0.00045883    -0.00023735    -0.00021125
H         0.85976598    -0.25628250     1.79193427    -0.00063057    -0.00051378    -0.00022355
H        -0.95487529    -0.15967058     1.84485107    -0.00154587    -0.00074879     0.00101731
H        -1.04908731     0.05226180    -0.56888261    -0.00049190    -0.00031719    -0.00034419
     6
  Step:    22            Position(A)                                  Velocity(au)
C        -0.03195837     0.01499807    -0.07477396     0.00000332     0.00007179    -0.00098818
N        -0.04564924    -0.03193795     1.38438317     0.00013583     0.00007311     0.00082392
H         0.96065522    -0.03204172    -0.52558275     0.00045419    -0.00025922    -0.00023667
H         0.85640971    -0.25920535     1.79093477    -0.00055720    -0.00053182    -0.00012967
H        -0.96335176    -0.16388598     1.85051739    -0.00146179    -0.00075276     0.00099565
H        -1.05147522     0.05045308    -0.57069369    -0.00036229    -0.00032760    -0.00030354
     6
  Step:    23            Position(A)                                  Velocity(au)
C        -0.03197411     0.01540876    -0.08024341    -0.00000856     0.00007465    -0.00096304
N        -0.04492038    -0.03152475     1.38892553     0.00012267     0.00007441     0.00079699
H         0.96318476    -0.03355422    -0.52697910     0.00044747    -0.00028015    -0.00026115
H         0.85352047    -0.26224352     1.79048083    -0.00046601    -0.00055481    -0.00002991
H        -0.97126008    -0.16810801     1.85601099    -0.00134646    -0.00075179     0.00095754
H        -1.05314814     0.04858980    -0.57228496    -0.00023769    -0.00033684    -0.00026617
     6
  Step:    24            Position(A)                                  Velocity(au)
C        -0.03205429     0.01583457    -0.08556599    -0.00001961     0.00007720    -0.00093594
N        -0.04427457    -0.03110405     1.39331446     0.00010655     0.00007576     0.00076930
H         0.96566973    -0.03518119    -0.52850923     0.00043811    -0.00030011    -0.00028429
H         0.85118746    -0.26542262     1.79059961    -0.00036086    -0.00058163     0.00007363
H        -0.97844047    -0.17231075     1.86124778    -0.00120475    -0.00074620     0.00090541
H        -1.05413882     0.04667840    -0.57367650    -0.00011951    -0.00034480    -0.00023252
     6
  Step:    25            Position(A)                                  Velocity(au)
C        -0.03219383     0.01627383    -0.09073187    -0.00002967     0.00007945    -0.00090713
N        -0.04372636    -0.03067571     1.39754658     0.00008819     0.00007711     0.00074103
H         0.96809433    -0.03691734    -0.53016495     0.00042574    -0.00031910    -0.00030582
H         0.84947655    -0.26876140     1.79130593    -0.00024636    -0.00061110     0.00017859
H        -0.98476089    -0.17647014     1.86615725    -0.00104213    -0.00073656     0.00084196
H        -1.05448747     0.04472584    -0.57489062    -0.00000919    -0.00035149    -0.00020303
     6
  Step:    26            Position(A)                                  Velocity(au)
C        -0.03238686     0.01672494    -0.09573242    -0.00003864     0.00008142    -0.00087697
N        -0.04328618    -0.03023985     1.40161945     0.00006836     0.00007841     0.00071250
H         0.97044107    -0.03875747    -0.53193664     0.00041018    -0.00033722    -0.00032555
H         0.84842645    -0.27227138     1.79260108    -0.00012753    -0.00064196     0.00028256
H        -0.99011992    -0.18056564     1.87068387    -0.00086423    -0.00072368     0.00076999
H        -1.05424177     0.04273914    -0.57595196     0.00009202    -0.00035695    -0.00017815
     6
  Step:    27            Position(A)                                  Velocity(au)
C        -0.03262690     0.01718639    -0.10056099    -0.00004641     0.00008315    -0.00084588
N        -0.04296016    -0.02979689     1.40553233     0.00004782     0.00007962     0.00068405
H         0.97269170    -0.04069689    -0.53381376     0.00039141    -0.00035458    -0.00034339
H         0.84804719    -0.27595658     1.79447285    -0.00000945    -0.00067291     0.00038322
H        -0.99444721    -0.18458124     1.87478739    -0.00067647    -0.00070844     0.00069218
H        -1.05345606     0.04072506    -0.57688737     0.00018305    -0.00036127    -0.00015824
     6
  Step:    28            Position(A)                                  Velocity(au)
C        -0.03290703     0.01765687    -0.10521316    -0.00005293     0.00008467    -0.00081426
N        -0.04275025    -0.02934750     1.40928635     0.00002727     0.00008069     0.00065602
H         0.97482808    -0.04273164    -0.53578540     0.00036950    -0.00037136    -0.00035931
H         0.84832054    -0.27981342     1.79689631     0.00010305    -0.00070261     0.00047848
H        -0.99770185    -0.18850585     1.87844192    -0.00048385    -0.00069173     0.00061097
H        -1.05219010     0.03868998    -0.57772550     0.00026307    -0.00036451    -0.00014358
     6
  Step:    29            Position(A)                                  Velocity(au)
C        -0.03322008     0.01813525    -0.10968654    -0.00005816     0.00008600    -0.00078244
N        -0.04265456    -0.02889258     1.41288438     0.00000736     0.00008159     0.00062867
H         0.97683275    -0.04485877    -0.53784058     0.00034461    -0.00038776    -0.00037332
H         0.84920209    -0.28383082     1.79983528     0.00020563    -0.00072976     0.00056652
H        -0.99986975    -0.19233349     1.88163457    -0.00029082    -0.00067445     0.00052849
H        -1.05050785     0.03663994    -0.57849645     0.00033145    -0.00036673    -0.00013438
     6
  Step:    30            Position(A)                                  Velocity(au)
C        -0.03355877     0.01862056    -0.11398047    -0.00006212     0.00008719    -0.00075066
N        -0.04266782    -0.02843324     1.41633071    -0.00001136     0.00008229     0.00060222
H         0.97868944    -0.04707651    -0.53996855     0.00031697    -0.00040400    -0.00038549
H         0.85062466    -0.28799046     1.80324424     0.00029462    -0.00075310     0.00064586
H        -1.00096056    -0.19606313     1.88436374    -0.00010132    -0.00065747     0.00044660
H        -1.04847619     0.03458078    -0.57923130     0.00038778    -0.00036791    -0.00013081
     6
  Step:    31            Position(A)                                  Velocity(au)
C        -0.03391591     0.01911199    -0.11809560    -0.00006481     0.00008825    -0.00071910
N        -0.04278183    -0.02797078     1.41963065    -0.00002841     0.00008275     0.00057679
H         0.98038354    -0.04938449    -0.54215893     0.00028692    -0.00042037    -0.00039587
H         0.85250254    -0.29226729     1.80707041     0.00036714    -0.00077147     0.00071542
H        -1.00100480    -0.19969869     1.88663755     0.00008119    -0.00064167     0.00036687
H        -1.04616382     0.03251852    -0.57996184     0.00043184    -0.00036798    -0.00013296
     6
  Step:    32            Position(A)                                  Velocity(au)
C        -0.03428457     0.01960887    -0.12203350    -0.00006631     0.00008921    -0.00068787
N        -0.04298599    -0.02750660     1.42279012    -0.00004340     0.00008295     0.00055245
H         0.98190257    -0.05178415    -0.54440185     0.00025487    -0.00043724    -0.00040458
H         0.85473622    -0.29662998     1.81125609     0.00042116    -0.00078376     0.00077451
H        -1.00005128    -0.20324908     1.88847227     0.00025367    -0.00062796     0.00029062
H        -1.04364009     0.03045985    -0.58072028     0.00046360    -0.00036674    -0.00014089
     6
  Step:    33            Position(A)                                  Velocity(au)
C        -0.03465823     0.02011064    -0.12579616    -0.00006672     0.00009007    -0.00065697
N        -0.04326773    -0.02704217     1.42581519    -0.00005602     0.00008290     0.00052913
H         0.98323681    -0.05427929    -0.54668808     0.00022141    -0.00045513    -0.00041171
H         0.85721739    -0.30104137     1.81574093     0.00045552    -0.00078890     0.00082288
H        -0.99816502    -0.20672861     1.88989105     0.00041336    -0.00061739     0.00021895
H        -1.04097390     0.02841288    -0.58153911     0.00048323    -0.00036381    -0.00015469
     6
  Step:    34            Position(A)                                  Velocity(au)
C        -0.03503115     0.02061680    -0.12938536    -0.00006620     0.00009085    -0.00062627
N        -0.04361293    -0.02657895     1.42871144    -0.00006601     0.00008259     0.00050670
H         0.98438026    -0.05687729    -0.54900915     0.00018735    -0.00047488    -0.00041745
H         0.85983372    -0.30545823     1.82046458     0.00046987    -0.00078565     0.00086075
H        -0.99542551    -0.21015799     1.89092245     0.00055780    -0.00061129     0.00015268
H        -1.03823243     0.02638858    -0.58245130     0.00049114    -0.00035843    -0.00017451
     6
  Step:    35            Position(A)                                  Velocity(au)
C        -0.03539877     0.02112685    -0.13280173    -0.00006506     0.00009153    -0.00059539
N        -0.04400614    -0.02611828     1.43148317    -0.00007313     0.00008206     0.00048477
H         0.98533258    -0.05959140    -0.55135777     0.00015414    -0.00049805    -0.00042213
H         0.86247343    -0.30982981     1.82536940     0.00046471    -0.00077221     0.00088899
H        -0.99192536    -0.21356659     1.89159890     0.00068470    -0.00061171     0.00009226
H        -1.03547990     0.02440342    -0.58349125     0.00048793    -0.00034905    -0.00020096
     6
  Step:    36            Position(A)                                  Velocity(au)
C        -0.03575865     0.02164019    -0.13604269    -0.00006390     0.00009204    -0.00056305
N        -0.04443060    -0.02566136     1.43413188    -0.00007707     0.00008134     0.00046236
H         0.98610381    -0.06244623    -0.55372925     0.00012511    -0.00052793    -0.00042685
H         0.86502989    -0.31409271     1.83040480     0.00044150    -0.00074481     0.00090966
H        -0.98776951    -0.21699781     1.89195407     0.00079174    -0.00062245     0.00003747
H        -1.03277658     0.02248567    -0.58469829     0.00047410    -0.00033196    -0.00023613
     6
  Step:    37            Position(A)                                  Velocity(au)
C        -0.03611300     0.02215558    -0.13909478    -0.00006415     0.00009200    -0.00052303
N        -0.04486751    -0.02520914     1.43665089    -0.00007725     0.00008047     0.00043504
H         0.98673091    -0.06549193    -0.55612860     0.00011232    -0.00057160    -0.00043818
H         0.86740794    -0.31815442     1.83553642     0.00040379    -0.00069434     0.00092802
H        -0.98307630    -0.22052356     1.89201772     0.00087551    -0.00065117    -0.00001284
H        -1.03018098     0.02069314    -0.58613040     0.00044620    -0.00029737    -0.00029002
     6
  Step:    38            Position(A)                                  Velocity(au)
C        -0.03647529     0.02266793    -0.14188577    -0.00007035     0.00009676    -0.00049059
N        -0.04529356    -0.02476237     1.43899198    -0.00007950     0.00008541     0.00041857
H         0.98735867    -0.06883193    -0.55862444     0.00015040    -0.00066404    -0.00051636
H         0.86954093    -0.32184965     1.84077231     0.00038430    -0.00067270     0.00101621
H        -0.97798862    -0.22427250     1.89181059     0.00100006    -0.00073812    -0.00005536
H        -1.02779183     0.01916353    -0.58793831     0.00040830    -0.00026500    -0.00041512
     6
  Step:    39            Position(A)                                  Velocity(au)
C        -0.03682469     0.02320583    -0.14450652    -0.00005639     0.00009651    -0.00045624
N        -0.04574535    -0.02428848     1.44124831    -0.00008008     0.00008434     0.00039539
H         0.98806749    -0.07236201    -0.56159049     0.00009730    -0.00061783    -0.00053326
H         0.87149941    -0.32574001     1.84634067     0.00030937    -0.00070307     0.00097869
H        -0.97225144    -0.22818713     1.89151179     0.00104440    -0.00068423    -0.00005422
H        -1.02575452     0.01750354    -0.59036767     0.00033368    -0.00031687    -0.00044908
     6
  Step:    40            Position(A)                                  Velocity(au)
C        -0.03710468     0.02374520    -0.14697848    -0.00004458     0.00009692    -0.00043148
N        -0.04618745    -0.02382099     1.44340542    -0.00007673     0.00008325     0.00037898
H         0.98844481    -0.07572830    -0.56457680     0.00003801    -0.00059548    -0.00053384
H         0.87299415    -0.32969747     1.85169671     0.00022073    -0.00070657     0.00093951
H        -0.96633082    -0.23191004     1.89120535     0.00106589    -0.00065962    -0.00005336
H        -1.02406724     0.01562653    -0.59295104     0.00027289    -0.00035007    -0.00047717
     6
  Step:    41            Position(A)                                  Velocity(au)
C        -0.03732209     0.02428717    -0.14932060    -0.00003366     0.00009747    -0.00040924
N        -0.04660144    -0.02335969     1.44547660    -0.00007040     0.00008224     0.00036428
H         0.98849160    -0.07900581    -0.56754658    -0.00002063    -0.00058296    -0.00052974
H         0.87396207    -0.33362329     1.85682292     0.00012204    -0.00069630     0.00089667
H        -0.96035919    -0.23554656     1.89091644     0.00106394    -0.00065026    -0.00004659
H        -1.02270987     0.01359776    -0.59569150     0.00021407    -0.00037472    -0.00050600
     6
  Step:    42            Position(A)                                  Velocity(au)
C        -0.03748004     0.02483215    -0.15154218    -0.00002321     0.00009809    -0.00038845
N        -0.04697256    -0.02290391     1.44746777    -0.00006164     0.00008138     0.00035046
H         0.98821479    -0.08222939    -0.57048438    -0.00007784    -0.00057538    -0.00052355
H         0.87435516    -0.33746246     1.86169619     0.00001597    -0.00067796     0.00084982
H        -0.95446602    -0.23916156     1.89068577     0.00103933    -0.00065115    -0.00003219
H        -1.02167996     0.01144769    -0.59859381     0.00015569    -0.00039520    -0.00053536
     6
  Step:    43            Position(A)                                  Velocity(au)
C        -0.03758083     0.02538048    -0.15365032    -0.00001319     0.00009877    -0.00036886
N        -0.04728846    -0.02245264     1.44938283    -0.00005084     0.00008073     0.00033724
H         0.98762402    -0.08541913    -0.57338212    -0.00013311    -0.00057082    -0.00051625
H         0.87414005    -0.34117994     1.86629517    -0.00009491    -0.00065440     0.00079950
H        -0.94877469    -0.24280437     1.89055768     0.00099335    -0.00066019    -0.00000991
H        -1.02097452     0.00919275    -0.60165869     0.00009824    -0.00041336    -0.00056450
     6
  Step:    44            Position(A)                                  Velocity(au)
C        -0.03762694     0.02593247    -0.15565137    -0.00000364     0.00009951    -0.00035036
N        -0.04753889    -0.02200457     1.45122480    -0.00003837     0.00008033     0.00032452
H         0.98673188    -0.08858858    -0.57623561    -0.00018591    -0.00056841    -0.00050844
H         0.87329782    -0.34475267     1.87060288    -0.00020804    -0.00062744     0.00074655
H        -0.94339977    -0.24651632     1.89057533     0.00092781    -0.00067617     0.00001977
H        -1.02058552     0.00684272    -0.60488254     0.00004274    -0.00043010    -0.00059267
     6