     6
  Step:   300            Position(A)                                  Velocity(au)
C        -0.04983838     0.02494694     0.02730039     0.00004545     0.00002309     0.00013824
N        -0.04823792    -0.05387828     1.28911795    -0.00017722    -0.00001744    -0.00013565
H         0.06264414    -0.92423090    -0.49208918    -0.00175467     0.00006131    -0.00026958
H         0.10737974     0.72618934     1.93111765    -0.00079515    -0.00043323     0.00055467
H         0.09227545    -0.96861926     1.74551549     0.00281970     0.00050210     0.00050027
H        -0.21101799     0.94831203    -0.53184538     0.00165119    -0.00016287    -0.00054749
