     6
  Step:     0            Position(A)                                  Velocity(au)
C        -0.04104358     0.02362603     0.02160572     0.00013056    -0.00001758     0.00021062
N        -0.04157779    -0.06028713     1.29833946     0.00009435    -0.00007904    -0.00030748
H         0.92589814    -0.03572128    -0.51554533    -0.00092879     0.00022722     0.00054253
H         0.82517578    -0.03813923     1.79626103    -0.00098223     0.00047276    -0.00041270
H        -0.94433075    -0.05496698     1.86906748    -0.00094435     0.00052729     0.00136612
H        -0.95282343     0.01529152    -0.55737902    -0.00001150     0.00008060     0.00026724
     6
  Step:     1            Position(A)                                  Velocity(au)
C        -0.04031961     0.02354636     0.02262371     0.00013334    -0.00001138     0.00016066
N        -0.04110932    -0.06073422     1.29679313     0.00007521    -0.00008462    -0.00025663
H         0.92091844    -0.03451175    -0.51277014    -0.00088372     0.00021452     0.00046739
H         0.82015701    -0.03551271     1.79436111    -0.00084094     0.00048861    -0.00027476
H        -0.94914366    -0.05207527     1.87639077    -0.00080265     0.00053011     0.00130157
H        -0.95314889     0.01572618    -0.55621916    -0.00010677     0.00007835     0.00015774
     6
  Step:     2            Position(A)                                  Velocity(au)
C        -0.03958499     0.02350150     0.02336309     0.00013444    -0.00000487     0.00010898
N        -0.04075508    -0.06121275     1.29553227     0.00005292    -0.00009053    -0.00020338
H         0.91623152    -0.03337479    -0.51043272    -0.00082217     0.00020075     0.00038264
H         0.81597706    -0.03279456     1.79325558    -0.00067806     0.00050639    -0.00012376
H        -0.95311064    -0.04916836     1.88330480    -0.00063756     0.00053286     0.00121820
H        -0.95399135     0.01614855    -0.55565356    -0.00019962     0.00007612     0.00005063
     6
  Step:     3            Position(A)                                  Velocity(au)
C        -0.03884910     0.02349308     0.02381572     0.00013387     0.00000192     0.00005606
N        -0.04053052    -0.06172442     1.29456862     0.00002816    -0.00009677    -0.00014826
H         0.91192586    -0.03231607    -0.50858490    -0.00074521     0.00018604     0.00028877
H         0.81274067    -0.02997403     1.79300746    -0.00049906     0.00052632     0.00003696
H        -0.95611709    -0.04624703     1.88971503    -0.00045394     0.00053561     0.00111943
H        -0.95533224     0.01655881    -0.55566541    -0.00028832     0.00007396    -0.00005284
     6
  Step:     4            Position(A)                                  Velocity(au)
C        -0.03812114     0.02352251     0.02397611     0.00013167     0.00000896     0.00000233
N        -0.04044715    -0.06227095     1.29391109     0.00000164    -0.00010334    -0.00009172
H         0.90808278    -0.03134047    -0.50727509    -0.00065423     0.00017053     0.00018640
H         0.81051993    -0.02703942     1.79365978    -0.00031003     0.00054850     0.00020368
H        -0.95807440    -0.04331153     1.89554551    -0.00025617     0.00053844     0.00100840
H        -0.95714401     0.01695730    -0.55623134    -0.00037137     0.00007188    -0.00015163
     6
  Step:     5            Position(A)                                  Velocity(au)
C        -0.03740989     0.02359097     0.02384119     0.00012792     0.00001620    -0.00005181
N        -0.04051257    -0.06285397     1.29356614    -0.00002594    -0.00011021    -0.00003413
H         0.90477484    -0.03045215    -0.50654753    -0.00055088     0.00015431     0.00007631
H         0.80935197    -0.02397874     1.79523376    -0.00011732     0.00057290     0.00037236
H        -0.95891707    -0.04036167     1.90073720    -0.00004814     0.00054139     0.00088794
H        -0.95939149     0.01734452    -0.55732282    -0.00044751     0.00006990    -0.00024493
     6
  Step:     6            Position(A)                                  Velocity(au)
C        -0.03672356     0.02369946     0.02341014     0.00012275     0.00002361    -0.00010594
N        -0.04073055    -0.06347498     1.29353822    -0.00005390    -0.00011734     0.00002415
H         0.90206438    -0.02965463    -0.50644145    -0.00043708     0.00013749    -0.00004053
H         0.80923819    -0.02078050     1.79772786     0.00007262     0.00059932     0.00053884
H        -0.95860037    -0.03739682     1.90524631     0.00016652     0.00054448     0.00076064
H        -0.96203312     0.01772099    -0.55890721    -0.00051564     0.00006802    -0.00033206
     6
  Step:     7            Position(A)                                  Velocity(au)
C        -0.03606956     0.02384875     0.02268433     0.00011628     0.00003114    -0.00015968
N        -0.04110117    -0.06413525     1.29382989    -0.00008158    -0.00012468     0.00008278
H         0.90000217    -0.02895083    -0.50699006    -0.00031504     0.00012017    -0.00016289
H         0.81014491    -0.01743450     1.80111759     0.00025353     0.00062741     0.00069891
H        -0.95709875    -0.03441620     1.90904296     0.00038437     0.00054771     0.00062890
H        -0.96502200     0.01808722    -0.56094879    -0.00057481     0.00006621    -0.00041249
     6
  Step:     8            Position(A)                                  Velocity(au)
C        -0.03545445     0.02403935     0.02166735     0.00010869     0.00003875    -0.00021256
N        -0.04162091    -0.06483575     1.29444176    -0.00010831    -0.00013214     0.00014136
H         0.89862586    -0.02834309    -0.50821933    -0.00018732     0.00010244    -0.00028931
H         0.81200536    -0.01393274     1.80535601     0.00041958     0.00065664     0.00084849
H        -0.95440520    -0.03141895     1.91211042     0.00060187     0.00055101     0.00049513
H        -0.96830678     0.01844363    -0.56340930    -0.00062420     0.00006446    -0.00048573
     6
  Step:     9            Position(A)                                  Velocity(au)
C        -0.03488371     0.02427153     0.02036516     0.00010017     0.00004637    -0.00026411
N        -0.04228284    -0.06557698     1.29537222    -0.00013345    -0.00013963     0.00019940
H         0.89795841    -0.02783316    -0.51014658    -0.00005676     0.00008442    -0.00041799
H         0.81472278    -0.01027021     1.81037503     0.00056554     0.00068636     0.00098376
H        -0.95053201    -0.02840440     1.91444511     0.00081522     0.00055433     0.00036182
H        -0.97183234     0.01879052    -0.56624839    -0.00066312     0.00006274    -0.00055137
     6
  Step:    10            Position(A)                                  Velocity(au)
C        -0.03436171     0.02454518     0.01878636     0.00009095     0.00005392    -0.00031376
N        -0.04307669    -0.06635891     1.29661693    -0.00015640    -0.00014703     0.00025630
H         0.89800668    -0.02742218    -0.51277896     0.00007350     0.00006624    -0.00054685
H         0.81817456    -0.00644564     1.81608729     0.00068700     0.00071577     0.00110128
H        -0.94551248    -0.02537211     1.91605730     0.00102013     0.00055758     0.00023169
H        -0.97554037     0.01912800    -0.56942385    -0.00069097     0.00006100    -0.00060899
     6
  Step:    11            Position(A)                                  Velocity(au)
C        -0.03389158     0.02485978     0.01694247     0.00008125     0.00006133    -0.00036090
N        -0.04398895    -0.06718086     1.29816818    -0.00017654    -0.00015419     0.00031133
H         0.89876022    -0.02711057    -0.51611204     0.00020013     0.00004804    -0.00067354
H         0.82221709    -0.00246211     1.82238865     0.00078048     0.00074397     0.00119812
H        -0.93940369    -0.02232194     1.91697260     0.00121177     0.00056069     0.00010782
H        -0.97936999     0.01945599    -0.57289167    -0.00070729     0.00005922    -0.00065820
     6
  Step:    12            Position(A)                                  Velocity(au)
C        -0.03347516     0.02521435     0.01484825     0.00007131     0.00006847    -0.00040487
N        -0.04500302    -0.06804139     1.30001417    -0.00019329    -0.00016097     0.00036363
H         0.90019050    -0.02689795    -0.52012852     0.00031970     0.00003000    -0.00079549
H         0.82669106     0.00167247     1.82916104     0.00084356     0.00077002     0.00127193
H        -0.93228972    -0.01925395     1.91723379     0.00138474     0.00056362    -0.00000638
H        -0.98325827     0.01977416    -0.57660608    -0.00071174     0.00005733    -0.00069864
     6
  Step:    13            Position(A)                                  Velocity(au)
C        -0.03311300     0.02560734     0.01252199     0.00006138     0.00007524    -0.00044499
N        -0.04609929    -0.06893831     1.30213838    -0.00020611    -0.00016721     0.00041224
H         0.90225072    -0.02678302    -0.52479736     0.00042881     0.00001230    -0.00091006
H         0.83142723     0.00594516     1.83627589     0.00087498     0.00079299     0.00132113
H        -0.92428482    -0.01616818     1.91690291     0.00153312     0.00056643    -0.00010712
H        -0.98714086     0.02008196    -0.58051958    -0.00070415     0.00005531    -0.00072999
     6
  Step:    14            Position(A)                                  Velocity(au)
C        -0.03280438     0.02603660     0.00998556     0.00005170     0.00008154    -0.00048056
N        -0.04725535    -0.06986864     1.30451900    -0.00021453    -0.00017279     0.00045614
H         0.90487646    -0.02676349    -0.53007345     0.00052434    -0.00000484    -0.00101464
H         0.83625261     0.01033807     1.84359806     0.00087467     0.00081199     0.00134492
H        -0.91553617    -0.01306420     1.91606320     0.00165075     0.00056922    -0.00019038
H        -0.99095304     0.02037862    -0.58458324    -0.00068462     0.00005313    -0.00075203
     6
  Step:    15            Position(A)                                  Velocity(au)
C        -0.03254735     0.02649940     0.00726442     0.00004249     0.00008724    -0.00051098
N        -0.04844636    -0.07082867     1.30712872    -0.00021816    -0.00017757     0.00049432
H         0.90798726    -0.02683601    -0.53589802     0.00060356    -0.00002123    -0.00110682
H         0.84099654     0.01482870     1.85098991     0.00084370     0.00082626     0.00134332
H        -0.90622487    -0.00994062     1.91482007     0.00173162     0.00057226    -0.00025215
H        -0.99463095     0.02066318    -0.58874718    -0.00065352     0.00005074    -0.00076471
     6
  Step:    16            Position(A)                                  Velocity(au)
C        -0.03233888     0.02699241     0.00438726     0.00003393     0.00009225    -0.00053571
N        -0.04964550    -0.07181409     1.30993484    -0.00021672    -0.00018147     0.00052588
H         0.91148910    -0.02699613    -0.54219988     0.00066433    -0.00003667    -0.00118455
H         0.84549624     0.01939066     1.85831554     0.00078419     0.00083523     0.00131721
H        -0.89656448    -0.00679452     1.91330062     0.00177031     0.00057589    -0.00028872
H        -0.99811307     0.02093453    -0.59296141    -0.00061152     0.00004814    -0.00076813
     6
  Step:    17            Position(A)                                  Velocity(au)
C        -0.03217501     0.02751176     0.00138549     0.00002618     0.00009649    -0.00055438
N        -0.05082464    -0.07282018     1.31289978    -0.00021009    -0.00018445     0.00055006
H         0.91527770    -0.02723838    -0.54889738     0.00070524    -0.00005096    -0.00124625
H         0.84960235     0.02399462     1.86544510     0.00069923     0.00083854     0.00126828
H        -0.88679724    -0.00362076     1.91165168     0.00176261     0.00058058    -0.00029702
H        -1.00134189     0.02119148    -0.59717677    -0.00055961     0.00004532    -0.00076266
     6
  Step:    18            Position(A)                                  Velocity(au)
C        -0.03205103     0.02805319    -0.00170764     0.00001936     0.00009990    -0.00056682
N        -0.05195520    -0.07384197     1.31598218    -0.00019833    -0.00018651     0.00056636
H         0.91924255    -0.02755640    -0.55590120     0.00072571    -0.00006398    -0.00129100
H         0.85318363     0.02860965     1.87225900     0.00059264     0.00083612     0.00119892
H        -0.87718627    -0.00041159     1.91003519     0.00170604     0.00058687    -0.00027508
H        -1.00426547     0.02143283    -0.60134611    -0.00049903     0.00004230    -0.00074886
     6
  Step:    19            Position(A)                                  Velocity(au)
C        -0.03196172     0.02861219    -0.00485807     0.00001354     0.00010248    -0.00057305
N        -0.05300926    -0.07487455     1.31913828    -0.00018171    -0.00018768     0.00057460
H         0.92327138    -0.02794308    -0.56311777     0.00072598    -0.00007561    -0.00131853
H         0.85613034     0.03320453     1.87865128     0.00046873     0.00082815     0.00111211
H        -0.86800508     0.00284366     1.90862166     0.00160037     0.00059531    -0.00022233
H        -1.00683878     0.02165744    -0.60542547    -0.00043125     0.00003910    -0.00072752
     6
  Step:    20            Position(A)                                  Velocity(au)
C        -0.03190164     0.02918414    -0.00803204     0.00000872     0.00010422    -0.00057332
N        -0.05396061    -0.07591323     1.32232368    -0.00016070    -0.00018805     0.00057493
H         0.92725472    -0.02839087    -0.57045289     0.00070712    -0.00008583    -0.00132927
H         0.85835672     0.03774934     1.88453258     0.00033208     0.00081508     0.00101122
H        -0.85952415     0.00615839     1.90758150     0.00144790     0.00060636    -0.00013989
H        -1.00902493     0.02186430    -0.60937528    -0.00035788     0.00003574    -0.00069965
     6
  Step:    21            Position(A)                                  Velocity(au)
C        -0.03186532     0.02976453    -0.01119723     0.00000489     0.00010518    -0.00056805
N        -0.05478606    -0.07695380     1.32549521    -0.00013596    -0.00018775     0.00056781
H         0.93108998    -0.02889209    -0.57781542     0.00067081    -0.00009465    -0.00132426
H         0.85980215     0.04221680     1.88983220     0.00018728     0.00079761     0.00089983
H        -0.85199583     0.00954818     1.90707487     0.00125356     0.00062039    -0.00003068
H        -1.01079588     0.02205261    -0.61316144    -0.00028059     0.00003228    -0.00066638
     6
  Step:    22            Position(A)                                  Velocity(au)
C        -0.03184747     0.03034914    -0.01432380     0.00000200     0.00010544    -0.00055785
N        -0.05546647    -0.07799269     1.32861276    -0.00010833    -0.00018690     0.00055403
H         0.93468459    -0.02943918    -0.58512036     0.00061919    -0.00010214    -0.00130501
H         0.86043108     0.04658364     1.89449905     0.00003872     0.00077661     0.00078155
H        -0.84563971     0.01302984     1.90724172     0.00102468     0.00063753     0.00010074
H        -1.01213275     0.02222183    -0.61675604    -0.00020100     0.00002877    -0.00062892
     6
  Step:    23            Position(A)                                  Velocity(au)
C        -0.03184318     0.03093416    -0.01738524    -0.00000005     0.00010509    -0.00054339
N        -0.05598768    -0.07902700     1.33164092    -0.00007875    -0.00018565     0.00053459
H         0.93795839    -0.03002505    -0.59229144     0.00055468    -0.00010842    -0.00127337
H         0.86023163     0.05083153     1.89850170    -0.00010964     0.00075309     0.00065983
H        -0.84062934     0.01662005     1.90819232     0.00077050     0.00065764     0.00024835
H        -1.01302552     0.02237170    -0.62013785    -0.00012062     0.00002525    -0.00058851
     6
  Step:    24            Position(A)                                  Velocity(au)
C        -0.03184800     0.03151636    -0.02035891    -0.00000134     0.00010425    -0.00052543
N        -0.05634109    -0.08005458     1.33455012    -0.00004823    -0.00018414     0.00051062
H         0.94084504    -0.03064334    -0.59926288     0.00047982    -0.00011366    -0.00123140
H         0.85921340     0.05494777     1.90182739    -0.00025429     0.00072811     0.00053782
H        -0.83708231     0.02033379     1.90999997     0.00050144     0.00068033     0.00040521
H        -1.01347235     0.02250228    -0.62329228    -0.00004075     0.00002179    -0.00054633
     6
  Step:    25            Position(A)                                  Velocity(au)
C        -0.03185805     0.03209309    -0.02322618    -0.00000198     0.00010303    -0.00050467
N        -0.05652387    -0.08107395     1.33731728    -0.00001777    -0.00018247     0.00048330
H         0.94329232    -0.03128860    -0.60598030     0.00039707    -0.00011805    -0.00118114
H         0.85740477     0.05892555     1.90448042    -0.00039229     0.00070271     0.00041829
H        -0.83505503     0.02418290     1.91269680     0.00022836     0.00070493     0.00056395
H        -1.01347851     0.02261393    -0.62621109     0.00003750     0.00001843    -0.00050341
     6
  Step:    26            Position(A)                                  Velocity(au)
C        -0.03187007     0.03266235    -0.02597240    -0.00000210     0.00010154    -0.00048179
N        -0.05653878    -0.08208423     1.33992586     0.00001170    -0.00018075     0.00045374
H         0.94526160    -0.03195646    -0.61240064     0.00030867    -0.00012180    -0.00112451
H         0.85484993     0.06276400     1.90648006    -0.00052118     0.00067791     0.00030361
H        -0.83454222     0.02817473     1.91627275    -0.00003828     0.00073059     0.00071734
H        -1.01305520     0.02270731    -0.62889175     0.00011326     0.00001523    -0.00046069
     6
  Step:    27            Position(A)                                  Velocity(au)
C        -0.03188138     0.03322275    -0.02858650    -0.00000216     0.00010116    -0.00050627
N        -0.05639374    -0.08308498     1.34236553     0.00004089    -0.00018187     0.00046169
H         0.94672655    -0.03264367    -0.61849144     0.00019297    -0.00015561    -0.00102327
H         0.85160624     0.06646787     1.90785838    -0.00066470     0.00070200     0.00017675
H        -0.83548093     0.03231127     1.92067779    -0.00028565     0.00071005     0.00084002
H        -1.01221835     0.02278334    -0.63133667     0.00021493     0.00006550    -0.00037659
     6
  Step:    28            Position(A)                                  Velocity(au)
C        -0.03189415     0.03378783    -0.03160515    -0.00000243     0.00010192    -0.00057868
N        -0.05608382    -0.08410771     1.34506269     0.00006912    -0.00018560     0.00050841
H         0.94740856    -0.03368775    -0.62378560     0.00005292    -0.00020923    -0.00087874
H         0.84745448     0.07057451     1.90844661    -0.00082026     0.00076230     0.00003847
H        -0.83772034     0.03607473     1.92561882    -0.00050534     0.00065231     0.00092321
H        -1.01066382     0.02343611    -0.63308168     0.00034107     0.00015923    -0.00025238
     6
  Step:    29            Position(A)                                  Velocity(au)
C        -0.03190840     0.03435671    -0.03502467    -0.00000258     0.00010243    -0.00064850
N        -0.05562470    -0.08514987     1.34802194     0.00009417    -0.00018882     0.00055432
H         0.94731530    -0.03497155    -0.62826804    -0.00008444    -0.00024632    -0.00073336
H         0.84248027     0.07494894     1.90828639    -0.00095787     0.00080425    -0.00009012
H        -0.84110317     0.03956872     1.93094914    -0.00069524     0.00060820     0.00098088
H        -1.00842371     0.02455492    -0.63414453     0.00045957     0.00023718    -0.00013288
     6
  Step:    30            Position(A)                                  Velocity(au)
C        -0.03192280     0.03492750    -0.03882041    -0.00000244     0.00010255    -0.00071304
N        -0.05503602    -0.08620853     1.35123015     0.00011544    -0.00019147     0.00059721
H         0.94646906    -0.03642835    -0.63194504    -0.00021659    -0.00027323    -0.00059027
H         0.83679706     0.07952268     1.90744390    -0.00107309     0.00083640    -0.00020529
H        -0.84545564     0.04284166     1.93653225    -0.00085264     0.00057050     0.00101390
H        -1.00555056     0.02607502    -0.63456014     0.00056726     0.00030514    -0.00002067
     6
  Step:    31            Position(A)                                  Velocity(au)
C        -0.03193558     0.03549782    -0.04295909    -0.00000197     0.00010220    -0.00077108
N        -0.05434016    -0.08728048     1.35466742     0.00013249    -0.00019352     0.00063610
H         0.94490519    -0.03801197    -0.63483634    -0.00034119    -0.00029291    -0.00045176
H         0.83053943     0.08425599     1.90600200    -0.00116232     0.00086302    -0.00030425
H        -0.85059095     0.04591700     1.94223137    -0.00097578     0.00053554     0.00102239
H        -1.00211144     0.02795037    -0.63437454     0.00066166     0.00036573     0.00008238
     6
  Step:    32            Position(A)                                  Velocity(au)
C        -0.03194472     0.03606503    -0.04740248    -0.00000112     0.00010137    -0.00082191
N        -0.05356144    -0.08836240     1.35830995     0.00014504    -0.00019497     0.00067045
H         0.94267166    -0.03968842    -0.63697313    -0.00045604    -0.00030721    -0.00031982
H         0.82386051     0.08912802     1.90405764    -0.00122256     0.00088710    -0.00038467
H        -0.85631606     0.04880225     1.94791139    -0.00106420     0.00050100     0.00100707
H        -0.99818629     0.03014553    -0.63364328     0.00074057     0.00042054     0.00017463
     6
  Step:    33            Position(A)                                  Velocity(au)
C        -0.03194801     0.03662636    -0.05210941     0.00000014     0.00010004    -0.00086519
N        -0.05272542    -0.08945103     1.36213150     0.00015296    -0.00019586     0.00069993
H         0.93982811    -0.04143209    -0.63839685    -0.00055913    -0.00031750    -0.00019623
H         0.81692872     0.09413199     1.90171945    -0.00125148     0.00091103    -0.00044473
H        -0.86243865     0.05149460     1.95344306    -0.00111868     0.00046548     0.00096944
H        -0.99386669     0.03263221    -0.63243035     0.00080205     0.00047074     0.00025467
     6
  Step:    34            Position(A)                                  Velocity(au)
C        -0.03194314     0.03717907    -0.05703725     0.00000182     0.00009823    -0.00090081
N        -0.05185809    -0.09054356     1.36610446     0.00015624    -0.00019631     0.00072443
H         0.93644520    -0.04322413    -0.63915841    -0.00064859    -0.00032491    -0.00008264
H         0.80992392     0.09927334     1.89910506    -0.00124756     0.00093689    -0.00048315
H        -0.86877377     0.05398581     1.95870709    -0.00114111     0.00042824     0.00091163
H        -0.98925464     0.03538772    -0.63080727     0.00084442     0.00051728     0.00032128
     6
  Step:    35            Position(A)                                  Velocity(au)
C        -0.03192775     0.03772050    -0.06214333     0.00000391     0.00009597    -0.00092889
N        -0.05098510    -0.09163768     1.37020084     0.00015502    -0.00019642     0.00074398
H         0.93260362    -0.04505116    -0.63931740    -0.00072277    -0.00033033     0.00001954
H         0.80303241     0.10456780     1.89633772    -0.00121025     0.00096636    -0.00049934
H        -0.87514923     0.05626465     1.96359756    -0.00113420     0.00038894     0.00083632
H        -0.98446085     0.03839411    -0.62885172     0.00086639     0.00056093     0.00037353
     6
  Step:    36            Position(A)                                  Velocity(au)
C        -0.03189956     0.03824825    -0.06738588     0.00000640     0.00009331    -0.00094968
N        -0.05013102    -0.09273180     1.37439309     0.00014956    -0.00019631     0.00075873
H         0.92839287    -0.04690429    -0.63894074    -0.00078023    -0.00033455     0.00010912
H         0.79644074     0.11003943     1.89354203    -0.00114006     0.00100082    -0.00049343
H        -0.88140977     0.05831891     1.96802447    -0.00110129     0.00034753     0.00074648
H        -0.97960235     0.04163695    -0.62664578     0.00086697     0.00060232     0.00041079
     6
  Step:    37            Position(A)                                  Velocity(au)
C        -0.03185642     0.03876019    -0.07272478     0.00000926     0.00009030    -0.00096352
N        -0.04931870    -0.09382501     1.37865465     0.00014022    -0.00019612     0.00076889
H         0.92391021    -0.04877872    -0.63810158    -0.00081969    -0.00033824     0.00018512
H         0.79032975     0.11571895     1.89083991    -0.00103864     0.00104124    -0.00046634
H        -0.88741985     0.06013688     1.97191494    -0.00104601     0.00030419     0.00064517
H        -0.97480103     0.04510525    -0.62427464     0.00084550     0.00064206     0.00043267
     6
  Step:    38            Position(A)                                  Velocity(au)
C        -0.03179641     0.03925445    -0.07812193     0.00001242     0.00008698    -0.00097076
N        -0.04856864    -0.09491701     1.38296049     0.00012746    -0.00019591     0.00077475
H         0.91925944    -0.05067318    -0.63687806    -0.00084007    -0.00034200     0.00024677
H         0.78486769     0.12164145     1.88834586    -0.00090880     0.00108816    -0.00041977
H        -0.89306490     0.06170832     1.97521324    -0.00097211     0.00025920     0.00053537
H        -0.97018131     0.04879113    -0.62182478     0.00080178     0.00068065     0.00043910
     6
  Step:    39            Position(A)                                  Velocity(au)
C        -0.03171804     0.03972939    -0.08354141     0.00001580     0.00008339    -0.00097176
N        -0.04789848    -0.09600796     1.38728726     0.00011184    -0.00019576     0.00077661
H         0.91454976    -0.05258948    -0.63535202    -0.00084048    -0.00034634     0.00029349
H         0.78020349     0.12784365     1.88616263    -0.00075457     0.00114156    -0.00035621
H        -0.89825153     0.06302500     1.97788029    -0.00088335     0.00021296     0.00041998
H        -0.96586730     0.05268940    -0.61938203     0.00073606     0.00071854     0.00043036
     6
  Step:    40            Position(A)                                  Velocity(au)
C        -0.03162039     0.04018362    -0.08894946     0.00001928     0.00007957    -0.00096690
N        -0.04732255    -0.09709824     1.39161354     0.00009398    -0.00019568     0.00077479
H         0.90989471    -0.05453211    -0.63360792    -0.00082028    -0.00035167     0.00032496
H         0.77646013     0.13436088     1.88437696    -0.00058115     0.00120089    -0.00027884
H        -0.90290726     0.06408115     1.97989276    -0.00078338     0.00016592     0.00030173
H        -0.96198007     0.05679716    -0.61702966     0.00064917     0.00075606     0.00040708
     6
  Step:    41            Position(A)                                  Velocity(au)
C        -0.03150324     0.04061591    -0.09431456     0.00002272     0.00007554    -0.00095656
N        -0.04685141    -0.09818826     1.39591992     0.00007458    -0.00019565     0.00076965
H         0.90541028    -0.05650777    -0.63173137    -0.00077924    -0.00035835     0.00034109
H         0.77372836     0.14122392     1.88305583    -0.00039477     0.00126504    -0.00019147
H        -0.90697994     0.06487368     1.98124212    -0.00067579     0.00011858     0.00018316
H        -0.95863425     0.06111331    -0.61484636     0.00054265     0.00079348     0.00037029
     6
  Step:    42            Position(A)                                  Velocity(au)
C        -0.03136724     0.04102526    -0.09960744     0.00002596     0.00007134    -0.00094115
N        -0.04649155    -0.09927820     1.40018902     0.00005440    -0.00019561     0.00076155
H         0.90121237    -0.05852487    -0.62980744    -0.00071762    -0.00036665     0.00034216
H         0.77206164     0.14845601     1.88224359    -0.00020242     0.00133240    -0.00009831
H        -0.91043695     0.06540235     1.98193354    -0.00056401     0.00007146     0.00006666
H        -0.95593391     0.06563812    -0.61290386     0.00041874     0.00083100     0.00032145
     6
  Step:    43            Position(A)                                  Velocity(au)
C        -0.03121403     0.04141078    -0.10480132     0.00002880     0.00006699    -0.00092113
N        -0.04624521    -0.10036784     1.40440557     0.00003421    -0.00019547     0.00075088
H         0.89741417    -0.06059313    -0.62791888    -0.00063620    -0.00037673     0.00032873
H         0.77147287     0.15607025     1.88196035    -0.00001151     0.00140096    -0.00000376
H        -0.91326442     0.06566993     1.98198490    -0.00045133     0.00002512    -0.00004557
H        -0.95396838     0.07037273    -0.61126461     0.00028048     0.00086871     0.00026239
     6
  Step:    44            Position(A)                                  Velocity(au)
C        -0.03104628     0.04177177    -0.10987206     0.00003107     0.00006253    -0.00089700
N        -0.04611036    -0.10145642     1.40855643     0.00001475    -0.00019513     0.00073798
H         0.89412283    -0.06272296    -0.62614424    -0.00053643    -0.00038868     0.00030178
H         0.77193340     0.16406766     1.88220174     0.00017062     0.00146844     0.00008792
H        -0.91546639     0.06568224     1.98142575    -0.00034091    -0.00001990    -0.00015152
H        -0.95280837     0.07531866    -0.60997986     0.00013152     0.00090664     0.00019530
     6