    14
  Step:     0            Position(A)                                  Velocity(au)
C        -6.03668530    -0.64745690    -0.14247519     0.00026268    -0.00010984     0.00011406
C        -4.70372348    -0.76695795     0.11839983    -0.00028908    -0.00021736    -0.00001870
H        -6.52080861     0.31748203    -0.36170162    -0.00032825     0.00026871    -0.00041822
H        -6.60185768    -1.55182825     0.15231823     0.00044780    -0.00001599    -0.00012228
H        -4.28940950    -1.75329929     0.41959537    -0.00032816     0.00073721     0.00028757
C        -3.86153988     0.36476862    -0.01792817     0.00010235     0.00040218    -0.00028428
C        -2.51814717     0.42267559     0.16768768    -0.00020780    -0.00022051     0.00026884
H        -4.31313791     1.33543118    -0.30638290     0.00001683    -0.00024745    -0.00031068
H        -1.91138736    -0.47945208     0.48303943     0.00009187     0.00023265    -0.00067575
C        -1.81916318     1.62415338    -0.00083734    -0.00020724     0.00001335     0.00023904
H        -2.44777270     2.49480515    -0.24595047     0.00087550    -0.00039527    -0.00001350
N        -0.57233550     1.90142582     0.20659464     0.00021889     0.00002664    -0.00023870
H        -0.28141808     2.89619096    -0.01116569     0.00013541     0.00090714     0.00097884
H         0.02709130     1.07618238     0.52542930     0.00008790    -0.00028207    -0.00020975
    14
  Step:     1            Position(A)                                  Velocity(au)
C        -6.03404041    -0.64874461    -0.14113554     0.00021797    -0.00012337     0.00012958
C        -4.70665413    -0.76933611     0.11818699    -0.00024436    -0.00021364    -0.00002052
H        -6.52424646     0.31977242    -0.36649425    -0.00028796     0.00013031    -0.00045211
H        -6.59758201    -1.55114322     0.15022365     0.00032634     0.00013222    -0.00025726
H        -4.29314163    -1.74445696     0.42253021    -0.00034349     0.00085128     0.00025688
C        -3.86098221     0.36920200    -0.02112287     0.00000083     0.00040512    -0.00029887
C        -2.51970997     0.42012675     0.17077434    -0.00008039    -0.00024364     0.00029437
H        -4.31317957     1.33205560    -0.30967700    -0.00002937    -0.00035173    -0.00029715
H        -1.91133716    -0.47599477     0.47523992    -0.00007711     0.00038236    -0.00074260
C        -1.82195471     1.62436896     0.00168899    -0.00029814     0.00002517     0.00022378
H        -2.43800048     2.49025578    -0.24631467     0.00088650    -0.00041198    -0.00005810
N        -0.56948715     1.90173292     0.20406305     0.00029993     0.00002974    -0.00022453
H        -0.27964155     2.90372449     0.00029721     0.00018371     0.00045472     0.00111565
H         0.02749351     1.07568960     0.52231196    -0.00001145     0.00019131    -0.00035788
    14
  Step:     2            Position(A)                                  Velocity(au)
C        -6.03191687    -0.65015583    -0.13964027     0.00016793    -0.00013251     0.00014247
C        -4.70906923    -0.77163177     0.11795099    -0.00019522    -0.00020174    -0.00002311
H        -6.52710836     0.32033282    -0.37159248    -0.00022564    -0.00004155    -0.00047503
H        -6.59471844    -1.54893562     0.14669020     0.00018859     0.00025817    -0.00038381
H        -4.29692398    -1.73467584     0.42521509    -0.00033490     0.00090433     0.00024361
C        -3.86152180     0.37363133    -0.02446663    -0.00009771     0.00040077    -0.00031133
C        -2.51990575     0.41734544     0.17412754     0.00004105    -0.00026198     0.00031717
H        -4.31378051     1.32773634    -0.31288360    -0.00008717    -0.00041573    -0.00029586
H        -1.91307422    -0.47108723     0.46679353    -0.00022821     0.00049019    -0.00079140
C        -1.82568550     1.62470408     0.00405834    -0.00037727     0.00003488     0.00021080
H        -2.42837872     2.48579239    -0.24722142     0.00084631    -0.00037700    -0.00011376
N        -0.56577386     1.90207648     0.20168272     0.00037464     0.00003302    -0.00021145
H        -0.27739906     2.90613880     0.01324136     0.00022521    -0.00001013     0.00124573
H         0.02684072     1.08036769     0.51759995    -0.00009426     0.00064639    -0.00049494
    14
  Step:     3            Position(A)                                  Velocity(au)
C        -6.03036662    -0.65164355    -0.13801880     0.00011397    -0.00013758     0.00015271
C        -4.71092492    -0.77374959     0.11768148    -0.00014279    -0.00018093    -0.00002679
H        -6.52918274     0.31886347    -0.37688635    -0.00014709    -0.00023419    -0.00048902
H        -6.59345617    -1.54549519     0.14182701     0.00003311     0.00035425    -0.00049918
H        -4.30046812    -1.72467309     0.42785956    -0.00029841     0.00088968     0.00025057
C        -3.86311990     0.37796952    -0.02793386    -0.00019205     0.00038807    -0.00032129
C        -2.51881193     0.41439552     0.17771301     0.00015430    -0.00027347     0.00033646
H        -4.31508661     1.32296079    -0.31614942    -0.00015940    -0.00043241    -0.00030881
H        -1.91632960    -0.46527091     0.45792644    -0.00034810     0.00054117    -0.00081730
C        -1.83020817     1.62513201     0.00630073    -0.00044173     0.00004193     0.00020088
H        -2.41948574     2.48200821    -0.24880333     0.00075366    -0.00028777    -0.00018179
N        -0.56129128     1.90245539     0.19943710     0.00043846     0.00003601    -0.00020029
H        -0.27471469     2.90350280     0.02755000     0.00026907    -0.00044976     0.00136188
H         0.02543129     1.08983053     0.51148420    -0.00013894     0.00104881    -0.00060814
    14
  Step:     4            Position(A)                                  Velocity(au)
C        -6.02942346    -0.65316571    -0.13629943     0.00005789    -0.00013917     0.00016049
C        -4.71219296    -0.77558988     0.11736490    -0.00008858    -0.00015113    -0.00003180
H        -6.53032631     0.31520939    -0.38229074    -0.00005887    -0.00043410    -0.00049661
H        -6.59399401    -1.54118564     0.13576971    -0.00014028     0.00041496    -0.00060125
H        -4.30345233    -1.71521245     0.43069673    -0.00023236     0.00080620     0.00027887
C        -3.86572333     0.38212110    -0.03149538    -0.00028100     0.00036653    -0.00032846
C        -2.51653024     0.41136281     0.18148826     0.00025731    -0.00027618     0.00035156
H        -4.31726780     1.31827665    -0.31963946    -0.00024741    -0.00039839    -0.00033711
H        -1.92068961    -0.45924805     0.44891344    -0.00042420     0.00052148    -0.00081643
C        -1.83534908     1.62562145     0.00845308    -0.00048976     0.00004610     0.00019446
H        -2.41189097     2.47949681    -0.25119844     0.00061198    -0.00014779    -0.00026154
N        -0.55618164     1.90286421     0.19730094     0.00048753     0.00003837    -0.00019181
H        -0.27151274     2.89629950     0.04303508     0.00032432    -0.00082625     0.00145834
H         0.02380109     1.10331245     0.50429573    -0.00012400     0.00136411    -0.00068487
    14
  Step:     5            Position(A)                                  Velocity(au)
C        -6.02910023    -0.65468821    -0.13450783     0.00000156    -0.00013815     0.00016610
C        -4.71286276    -0.77705575     0.11698581    -0.00003415    -0.00011299    -0.00003820
H        -6.53047068     0.30936669    -0.38775066     0.00003205    -0.00062738    -0.00050070
H        -6.59652497    -1.53641725     0.12867343    -0.00033007     0.00043758    -0.00068876
H        -4.30555137    -1.70703590     0.43396036    -0.00013813     0.00065991     0.00032722
C        -3.86926727     0.38598799    -0.03511958    -0.00036372     0.00033619    -0.00033273
C        -2.51318286     0.40835358     0.18540402     0.00034857    -0.00026843     0.00036197
H        -4.32049918     1.31424520    -0.32352440    -0.00035044    -0.00031503    -0.00038057
H        -1.92560978    -0.45386244     0.44006538    -0.00044633     0.00042064    -0.00078655
C        -1.84092254     1.62614044     0.01055500    -0.00052092     0.00004750     0.00019161
H        -2.40609760     2.47877509    -0.25452511     0.00043003     0.00003216    -0.00034990
N        -0.55062564     1.90329477     0.19524100     0.00051879     0.00003984    -0.00018667
H        -0.26761957     2.88542692     0.05945397     0.00039964    -0.00110258     0.00153110
H         0.02271860     1.11967307     0.49650134    -0.00002964     0.00156019    -0.00071366
    14
  Step:     6            Position(A)                                  Velocity(au)
C        -6.02938940    -0.65618799    -0.13266559    -0.00005326    -0.00013566     0.00016998
C        -4.71294012    -0.77806175     0.11652931     0.00001918    -0.00006792    -0.00004580
H        -6.52962505     0.30148418    -0.39324452     0.00011858    -0.00080022    -0.00050451
H        -6.60121485    -1.53161270     0.12070170    -0.00053274     0.00042280    -0.00076139
H        -4.30647421    -1.70077555     0.43785525    -0.00002073     0.00046488     0.00039144
C        -3.87368047     0.38947596    -0.03877454    -0.00043994     0.00029771    -0.00033417
C        -2.50890457     0.40549038     0.18940695     0.00042740    -0.00024912     0.00036748
H        -4.32493430     1.31138476    -0.32796517    -0.00046518    -0.00018921    -0.00043742
H        -1.93045388    -0.45004566     0.43170623    -0.00040909     0.00023469    -0.00072785
C        -1.84674528     1.62666061     0.01264483    -0.00053601     0.00004668     0.00019201
H        -2.40248327     2.48020047    -0.25885319     0.00022138     0.00023432    -0.00044123
N        -0.54483219     1.90373585     0.19321727     0.00053032     0.00004004    -0.00018537
H        -0.26276986     2.87217839     0.07653080     0.00050255    -0.00124573     0.00157840
H         0.02315262     1.13744455     0.48868314     0.00015860     0.00161273    -0.00068618
    14
  Step:     7            Position(A)                                  Velocity(au)
C        -6.03026550    -0.65765608    -0.13078925    -0.00010514    -0.00013312     0.00017260
C        -4.71244321    -0.77854164     0.11598386     0.00007049    -0.00001798    -0.00005418
H        -6.52787654     0.29186025    -0.39878783     0.00019371    -0.00093932    -0.00051155
H        -6.60817958    -1.52716765     0.11201663    -0.00074261     0.00037497    -0.00081971
H        -4.30600496    -1.69686572     0.44252390     0.00011147     0.00024225     0.00046458
C        -3.87889181     0.39250094    -0.04243020    -0.00050980     0.00025231    -0.00033303
C        -2.50383277     0.40290364     0.19344325     0.00049391    -0.00021817     0.00036823
H        -4.33067583     1.31010591    -0.33309391    -0.00058576    -0.00003343    -0.00050421
H        -1.93455937    -0.44872813     0.42414222    -0.00031431    -0.00003035    -0.00064370
C        -1.85264882     1.62716174     0.01475568    -0.00053674     0.00004460     0.00019507
H        -2.40125452     2.48390133    -0.26417786     0.00000266     0.00043601    -0.00052792
N        -0.53902392     1.90417071     0.19118568     0.00052176     0.00003827    -0.00018809
H        -0.25662542     2.85817423     0.09398457     0.00063789    -0.00123259     0.00160133
H         0.02618828     1.15495468     0.48148973     0.00044446     0.00151292    -0.00060022
    14
  Step:     8            Position(A)                                  Velocity(au)
C        -6.03168956    -0.65910033    -0.12888969    -0.00015307    -0.00013215     0.00017449
C        -4.71139812    -0.77845506     0.11534401     0.00011918     0.00003425    -0.00006269
H        -6.52538719     0.28093469    -0.40443558     0.00025096    -0.00103250    -0.00052542
H        -6.61746080    -1.52340943     0.10276898    -0.00095193     0.00030195    -0.00086511
H        -4.30403556    -1.69547589     0.44801892     0.00024787     0.00001755     0.00053774
C        -3.88483322     0.39499570    -0.04606014    -0.00057344     0.00020182    -0.00032967
C        -2.49809941     0.40071754     0.19746266     0.00054875    -0.00017698     0.00036470
H        -4.33774883     1.31065331    -0.33899577    -0.00070429     0.00013535    -0.00057600
H        -1.93733006    -0.45070962     0.41762414    -0.00017255    -0.00035602    -0.00054071
C        -1.85848741     1.62763640     0.01691240    -0.00052521     0.00004264     0.00019995
H        -2.40242510     2.48973911    -0.27040253    -0.00020892     0.00061320    -0.00060150
N        -0.53341763     1.90457310     0.18910252     0.00049470     0.00003351    -0.00019450
H        -0.24881489     2.84521322     0.11156304     0.00080573    -0.00105771     0.00160400
H         0.03287605     1.17054261     0.47555215     0.00081520     0.00127490    -0.00046246
    14
  Step:     9            Position(A)                                  Velocity(au)
C        -6.03361416    -0.66054703    -0.12697185    -0.00019649    -0.00013438     0.00017619
C        -4.70983600    -0.77779226     0.11461232     0.00016480     0.00008592    -0.00007058
H        -6.52238620     0.26927225    -0.41028244     0.00028491    -0.00106978    -0.00054957
H        -6.62900498    -1.52056196     0.09309066    -0.00115144     0.00021417    -0.00089949
H        -4.30058225    -1.69648177     0.45428810     0.00037734    -0.00018323     0.00060146
C        -3.89143701     0.39691614    -0.04964238    -0.00063062     0.00014856    -0.00032451
C        -2.49182770     0.39903183     0.20142174     0.00059268    -0.00012860     0.00035760
H        -4.34608351     1.31306698    -0.34569508    -0.00081197     0.00029801    -0.00064694
H        -1.93833426    -0.45651681     0.41231318    -0.00000245    -0.00071179    -0.00042806
C        -1.86413883     1.62809462     0.01912986    -0.00050341     0.00004253     0.00020572
H        -2.40582506     2.49731623    -0.27733692    -0.00039820     0.00074455    -0.00065406
N        -0.52820146     1.90490391     0.18693065     0.00045280     0.00002468    -0.00020371
H        -0.23899848     2.83503478     0.12907519     0.00099925    -0.00074041     0.00159289
H         0.04402229     1.18284558     0.47137259     0.00123869     0.00093842    -0.00028958
    14
  Step:    10            Position(A)                                  Velocity(au)
C        -6.03598808    -0.66204012    -0.12503521    -0.00023522    -0.00014127     0.00017814
C        -4.70779286    -0.77657545     0.11379994     0.00020683     0.00013421    -0.00007710
H        -6.51915422     0.25753119    -0.41645839     0.00029198    -0.00104481    -0.00058670
H        -6.64265072    -1.51872401     0.08309102    -0.00133120     0.00012327    -0.00092487
H        -4.29578063    -1.69948440     0.46117706     0.00049006    -0.00033775     0.00064727
C        -3.89862914     0.39824583    -0.05315940    -0.00068050     0.00009512    -0.00031793
C        -2.48513348     0.39790410     0.20528588     0.00062627    -0.00007735     0.00034776
H        -4.35551233     1.31717276    -0.35314883    -0.00090045     0.00043596    -0.00071105
H        -1.93738357    -0.46628132     0.40825959     0.00017242    -0.00105902    -0.00031590
C        -1.86950051     1.62856674     0.02141285    -0.00047288     0.00004606     0.00021153
H        -2.41113649     2.50602748    -0.28471130    -0.00055401     0.00081476    -0.00067952
N        -0.52351168     1.90511305     0.18464591     0.00040159     0.00001116    -0.00021432
H        -0.22695449     2.82901536     0.14641051     0.00120362    -0.00032682     0.00157508
H         0.05997467     1.19107238     0.46921712     0.00166637     0.00056291    -0.00010609
    14
  Step:    11            Position(A)                                  Velocity(au)
C        -6.03876005    -0.66363751    -0.12307477    -0.00026940    -0.00015379     0.00018065
C        -4.70531131    -0.77485617     0.11292555     0.00024457     0.00017674    -0.00008167
H        -6.51599848     0.24641501    -0.42311766     0.00027125    -0.00095639    -0.00063824
H        -6.65812742    -1.51786523     0.07285731    -0.00148175     0.00004040    -0.00094306
H        -4.28986114    -1.70387076     0.46844843     0.00057907    -0.00043040     0.00066896
C        -3.90632426     0.39899698    -0.05659774    -0.00072203     0.00004396    -0.00031028
C        -2.47812686     0.39733958     0.20902958     0.00065003    -0.00002795     0.00033594
H        -4.36578266     1.32260444    -0.36125057    -0.00096309     0.00053386    -0.00076309
H        -1.93456221    -0.47968489     0.40540237     0.00032851    -0.00135811    -0.00021341
C        -1.87448393     1.62910229     0.02375746    -0.00043470     0.00005472     0.00021670
H        -2.41794509     2.51514077    -0.29220269    -0.00067003     0.00081641    -0.00067446
N        -0.51941586     1.90514812     0.18224207     0.00034757    -0.00000662    -0.00022460
H        -0.21266703     2.82788489     0.16353299     0.00139730     0.00011646     0.00155588
H         0.08047732     1.19516041     0.46905162     0.00204272     0.00021351     0.00006093
    14
  Step:    12            Position(A)                                  Velocity(au)
C        -6.04188178    -0.66540454    -0.12108312    -0.00029944    -0.00017221     0.00018382
C        -4.70244250    -0.77270897     0.11201325     0.00027719     0.00021175    -0.00008391
H        -6.51322013     0.23660840    -0.43042112     0.00022511    -0.00080984    -0.00070359
H        -6.67506676    -1.51784014     0.06245969    -0.00159520    -0.00002522    -0.00095529
H        -4.28311236    -1.70890031     0.47581184     0.00064084    -0.00045370     0.00066324
C        -3.91442495     0.39920761    -0.05994747    -0.00075421    -0.00000278    -0.00030187
C        -2.47091279     0.39729253     0.21263528     0.00066443     0.00001544     0.00032279
H        -4.37658167     1.32885188    -0.36984286    -0.00099580     0.00058140    -0.00079926
H        -1.93019670    -0.49599252     0.40359089     0.00044722    -0.00157607    -0.00012719
C        -1.87901050     1.62976395     0.02615365    -0.00038972     0.00006935     0.00022080
H        -2.42579470     2.52388791    -0.29946643    -0.00074447     0.00074972    -0.00063821
N        -0.51590798     1.90496821     0.17973245     0.00029703    -0.00002706    -0.00023287
H        -0.19638597     2.83156321     0.18044841     0.00155577     0.00051673     0.00153696
H         0.10466304     1.19574333     0.47055008     0.00231811    -0.00005548     0.00018833
    14
  Step:    13            Position(A)                                  Velocity(au)
C        -6.04531094    -0.66740487    -0.11905330    -0.00032600    -0.00019593     0.00018745
C        -4.69924735    -0.77022364     0.11108995     0.00030378     0.00023818    -0.00008366
H        -6.51107386     0.22869816    -0.43851000     0.00015959    -0.00061769    -0.00077963
H        -6.69302555    -1.51841699     0.05195847    -0.00166612    -0.00006739    -0.00096203
H        -4.27584146    -1.71379638     0.48295806     0.00067517    -0.00040782     0.00062973
C        -3.92282414     0.39893624    -0.06320179    -0.00077629    -0.00004349    -0.00029294
C        -2.46359126     0.39767733     0.21609127     0.00066987     0.00004991     0.00030872
H        -4.38756771     1.33532374    -0.37873598    -0.00099737     0.00057406    -0.00081749
H        -1.92477837    -0.51416435     0.40261985     0.00051776    -0.00169180    -0.00006052
C        -1.88300989     1.63061941     0.02858794    -0.00033868     0.00009001     0.00022362
H        -2.43423173     2.53154234    -0.30616475    -0.00077903     0.00062118    -0.00057246
N        -0.51291781     1.90455624     0.17714757     0.00025492    -0.00004773    -0.00023780
H        -0.17863166     2.83918944     0.19715690     0.00165687     0.00081218     0.00151597
H         0.13119034     1.19394664     0.47317169     0.00245937    -0.00021194     0.00026155
    14
  Step:    14            Position(A)                                  Velocity(au)
C        -6.04901361    -0.66969082    -0.11698222    -0.00034990    -0.00022354     0.00019105
C        -4.69579674    -0.76749842     0.11018305     0.00032347     0.00025549    -0.00008096
H        -6.50972876     0.22309533    -0.44747710     0.00008381    -0.00039867    -0.00086069
H        -6.71151638    -1.51931440     0.04141354    -0.00169197    -0.00008331    -0.00096304
H        -4.26834183    -1.71782205     0.48958839     0.00068439    -0.00029901     0.00057049
C        -3.93140780     0.39825627    -0.06635619    -0.00078776    -0.00007705    -0.00028369
C        -2.45625805     0.39838440     0.21938911     0.00066671     0.00007399     0.00029393
H        -4.39840105     1.34141052    -0.38772708    -0.00096913     0.00051261    -0.00081739
H        -1.91886974    -0.53300387     0.40226691     0.00053751    -0.00169774    -0.00001360
C        -1.88641985     1.63173310     0.03104568    -0.00028225     0.00011614     0.00022514
H        -2.44283752     2.53747751    -0.31199010    -0.00077787     0.00044166    -0.00048071
N        -0.51033112     1.90392399     0.17453002     0.00022411    -0.00006619    -0.00023860
H        -0.16013880     2.84933122     0.21361308     0.00168552     0.00096447     0.00148786
H         0.15846644     1.19110684     0.47627205     0.00245414    -0.00024836     0.00027607
    14
  Step:    15            Position(A)                                  Velocity(au)
C        -6.05296558    -0.67229533    -0.11487362    -0.00037200    -0.00025307     0.00019392
C        -4.69217074    -0.76463431     0.10931869     0.00033548     0.00026363    -0.00007599
H        -6.50924026     0.21997641    -0.45733927     0.00000859    -0.00017538    -0.00093902
H        -6.73004065    -1.52023959     0.03089021    -0.00167312    -0.00007344    -0.00095766
H        -4.26086903    -1.72033782     0.49543869     0.00067264    -0.00013785     0.00048943
C        -3.94005784     0.39725065    -0.06940808    -0.00078837    -0.00010281    -0.00027427
C        -2.44900571     0.39929608     0.22252156     0.00065525     0.00008754     0.00027847
H        -4.40876931     1.34653803    -0.39661796    -0.00091445     0.00040225    -0.00080005
H        -1.91301924    -0.55130575     0.40232235     0.00051038    -0.00159811     0.00001556
C        -1.88918473     1.63316021     0.03351324    -0.00022103     0.00014669     0.00022552
H        -2.45124908     2.54120451    -0.31668126    -0.00074651     0.00022453    -0.00036762
N        -0.50801506     1.90310825     0.17192775     0.00020530    -0.00008055    -0.00023504
H        -0.14175773     2.86028907     0.22970674     0.00163604     0.00096249     0.00144699
H         0.18487934     1.18851319     0.47921117     0.00230879    -0.00017695     0.00023577
    14
  Step:    16            Position(A)                                  Velocity(au)
C        -6.05715183    -0.67522715    -0.11273989    -0.00039304    -0.00028225     0.00019523
C        -4.68845746    -0.76173106     0.10852061     0.00033913     0.00026283    -0.00006899
H        -6.50954078     0.21925859    -0.46801995    -0.00005538     0.00002921    -0.00100596
H        -6.74811904    -1.52092114     0.02046295    -0.00161255    -0.00004096    -0.00094499
H        -4.25362652    -1.72083787     0.50029554     0.00064495     0.00006260     0.00039157
C        -3.94865481     0.39600720    -0.07235627    -0.00077808    -0.00012048    -0.00026478
C        -2.44192314     0.40029946     0.22548124     0.00063587     0.00009140     0.00026230
H        -4.41840644     1.35021056    -0.40522981    -0.00083812     0.00025149    -0.00076774
H        -1.90770411    -0.56796569     0.40260739     0.00044432    -0.00140545     0.00003019
C        -1.89125536     1.63494228     0.03597941    -0.00015560     0.00018026     0.00022504
H        -2.45916882     2.54238952    -0.32003242    -0.00069122    -0.00001564    -0.00023850
N        -0.50583985     1.90216179     0.16938808     0.00019752    -0.00008981    -0.00022739
H        -0.12434726     2.87038753     0.24526875     0.00151169     0.00081815     0.00138893
H         0.20897556     1.18723563     0.48142996     0.00204259    -0.00002145     0.00014991
    14
  Step:    17            Position(A)                                  Velocity(au)
C        -6.06156405    -0.67847005    -0.11060253    -0.00041345    -0.00030894     0.00019422
C        -4.68475158    -0.75888448     0.10780939     0.00033391     0.00025357    -0.00006028
H        -6.51045181     0.22061543    -0.47934647    -0.00009935     0.00019519    -0.00105331
H        -6.76531820    -1.52113558     0.01021675    -0.00151541     0.00000893    -0.00092411
H        -4.24675947    -1.71896833     0.50400512     0.00060677     0.00028800     0.00028264
C        -3.95707987     0.39461492    -0.07520060    -0.00075706    -0.00013012    -0.00025530
C        -2.43509481     0.40129572     0.22825989     0.00060905     0.00008714     0.00024532
H        -4.42710471     1.35203990    -0.41341378    -0.00074571     0.00007092    -0.00072350
H        -1.90329879    -0.58205258     0.40298280     0.00034911    -0.00113704     0.00003392
C        -1.89258871     1.63710383     0.03843645    -0.00008649     0.00021520     0.00022405
H        -2.46637077     2.54086228    -0.32189887    -0.00061870    -0.00026384    -0.00009907
N        -0.50369392     1.90114349     0.16695314     0.00019873    -0.00009374    -0.00021626
H        -0.10868666     2.87818759     0.26009233     0.00132227     0.00055824     0.00131142
H         0.22956481     1.18804395     0.48249078     0.00168167     0.00018992     0.00003021
    14
  Step:    18            Position(A)                                  Velocity(au)
C        -6.06619689    -0.68198576    -0.10849086    -0.00043332    -0.00033137     0.00019028
C        -4.68115244    -0.75618366     0.10720188     0.00031949     0.00023659    -0.00005022
H        -6.51171426     0.22352875    -0.49106319    -0.00011780     0.00030843    -0.00107468
H        -6.78127145    -1.52072570     0.00024620    -0.00138846     0.00006967    -0.00089427
H        -4.24035223    -1.71453732     0.50647889     0.00056366     0.00052336     0.00016873
C        -3.96521700     0.39316063    -0.07794152    -0.00072565    -0.00013207    -0.00024588
C        -2.42859908     0.40220574     0.23084816     0.00057540     0.00007669     0.00022744
H        -4.43472029     1.35176208    -0.42105783    -0.00064319    -0.00012762    -0.00067094
H        -1.90006675    -0.59284051     0.40334952     0.00023483    -0.00081229     0.00003035
C        -1.89314757     1.63965018     0.04088090    -0.00001423     0.00024967     0.00022296
H        -2.47270397     2.53661742    -0.32219975    -0.00053592    -0.00050510     0.00004477
N        -0.50149228     1.90011098     0.16465697     0.00020633    -0.00009266    -0.00020246
H        -0.09541999     2.88259999     0.27395852     0.00108145     0.00021662     0.00121438
H         0.24576537     1.19139052     0.48209088     0.00125471     0.00042881    -0.00011106
    14
  Step:    19            Position(A)                                  Velocity(au)
C        -6.07104373    -0.68571947    -0.10643972    -0.00045233    -0.00034833     0.00018304
C        -4.67776205    -0.75370857     0.10671080     0.00029571     0.00021285    -0.00003920
H        -6.51302893     0.22736298    -0.50285707    -0.00010893     0.00036181    -0.00106623
H        -6.79569339    -1.51961144    -0.00934704    -0.00123955     0.00013398    -0.00085495
H        -4.23442831    -1.70751877     0.50769642     0.00052115     0.00075348     0.00005614
C        -3.97295493     0.39172573    -0.08057969    -0.00068435    -0.00012696    -0.00023650
C        -2.42250683     0.40297348     0.23323554     0.00053564     0.00006225     0.00020854
H        -4.44117567     1.34924804    -0.42809180    -0.00053661    -0.00033153    -0.00061403
H        -1.89816135    -0.59982290     0.40364668     0.00011126    -0.00045126     0.00002279
C        -1.89290011     1.64256595     0.04331406     0.00006071     0.00028177     0.00022222
H        -2.47809502     2.52981232    -0.32091938    -0.00045009    -0.00072472     0.00018707
N        -0.49918016     1.89911626     0.16252396     0.00021748    -0.00008717    -0.00018691
H        -0.08502787     2.88292666     0.28665922     0.00080463    -0.00017088     0.00109964
H         0.25701403     1.19742500     0.48006107     0.00079083     0.00066842    -0.00026191
    14
  Step:    20            Position(A)                                  Velocity(au)
C        -6.07609239    -0.68960616    -0.10448645    -0.00046983    -0.00035914     0.00017240
C        -4.67468318    -0.75152723     0.10634425     0.00026260     0.00018357    -0.00002768
H        -6.51409724     0.23144408    -0.51438908    -0.00007425     0.00035481    -0.00102694
H        -6.80838895    -1.51779468    -0.01845742    -0.00107714     0.00019436    -0.00080596
H        -4.22895114    -1.69805343     0.50770705     0.00048468     0.00096317    -0.00004873
C        -3.98018856     0.39038303    -0.08311535    -0.00063380    -0.00011576    -0.00022709
C        -2.41688085     0.40356763     0.23541036     0.00049052     0.00004612     0.00018852
H        -4.44645971     1.34450912    -0.43449088    -0.00043199    -0.00052792    -0.00055704
H        -1.89763279    -0.60271262     0.40384801    -0.00001245    -0.00007400     0.00001429
C        -1.89181938     1.64581450     0.04574235     0.00013792     0.00030957     0.00022230
H        -2.48255061     2.52076270    -0.31810734    -0.00036859    -0.00090864     0.00032192
N        -0.49673447     1.89820401     0.16056787     0.00022926    -0.00007794    -0.00017064