 Fermi distribution function

Calculation with static geometry


********************************************************************************
 iSCC Total electronic   Diff electronic      SCC error    
   10   -0.53965051E+01   -0.38191672E-12    0.16385071E-06
********************************************************************************

 Total charge:     1.00000000

 Atomic gross charges (e)
 Atom           Charge
    1       0.17144491
    2      -0.06837074
    3       0.14482421
    4       0.28405472
    5       0.27314678
    6       0.19490013

Nr. of electrons (up):     12.00000000
Atom populations (up)
 Atom       Population
    1       3.82855509
    2       5.06837074
    3       0.85517579
    4       0.71594528
    5       0.72685322
    6       0.80509987

l-shell populations (up)
 Atom Sh.   l       Population
    1   1   0       1.31730268
    1   2   1       2.51125242
    2   1   0       1.42427972
    2   2   1       3.64409102
    3   1   0       0.85517579
    4   1   0       0.71594528
    5   1   0       0.72685322
    6   1   0       0.80509987

Orbital populations (up)
 Atom Sh.   l   m       Population  Label
    1   1   0   0       1.31730268  s
    1   2   1  -1       0.58847893  p_y
    1   2   1   0       0.87972589  p_z
    1   2   1   1       1.04304760  p_x
    2   1   0   0       1.42427972  s
    2   2   1  -1       1.30317778  p_y
    2   2   1   0       1.11764705  p_z
    2   2   1   1       1.22326619  p_x
    3   1   0   0       0.85517579  s
    4   1   0   0       0.71594528  s
    5   1   0   0       0.72685322  s
    6   1   0   0       0.80509987  s

Fermi level:                        -0.4950024334 H          -13.4697 eV
Band energy:                        -8.9059067158 H         -242.3421 eV
TS:                                  0.0000000000 H            0.0000 eV
Band free energy (E-TS):            -8.9059067158 H         -242.3421 eV
Extrapolated E(0K):                 -8.9059067158 H         -242.3421 eV
Input / Output electrons (q):     12.0000000000     12.0000000000

Energy H0:                          -5.5297700244 H         -150.4727 eV
Energy SCC:                          0.1332649443 H            3.6263 eV
Total Electronic energy:            -5.3965050801 H         -146.8464 eV
Repulsive energy:                    0.1838329592 H            5.0023 eV
Total energy:                       -5.2126721208 H         -141.8440 eV
Extrapolated to 0:                  -5.2126721208 H         -141.8440 eV
Total Mermin free energy:           -5.2126721208 H         -141.8440 eV
Force related energy:               -5.2126721208 H         -141.8440 eV

SCC converged

Excitation Energy:                   0.1277293042 H            3.4757 eV

Total Forces
    1     -0.008259135806     -0.012878680669      0.039443982288
    2      0.005371155217     -0.000284521349     -0.047594031574
    3     -0.000562816114      0.008872139603      0.000193951793
    4     -0.013814161135     -0.001458017847     -0.001219517898
    5      0.007475803062      0.007769436977      0.006936422380
    6      0.009789154776     -0.002020356714      0.002239193012

Maximal derivative component:        0.475940E-01 au


