     6
  Step:     0            Position(A)                                  Velocity(au)
C        -0.03925256    -0.00094472     0.03515805    -0.00008940     0.00009153    -0.00008825
N        -0.04689026    -0.03522481     1.28020512     0.00004831    -0.00001038     0.00010268
H         0.93344077     0.06633329    -0.54391556    -0.00020549    -0.00052128     0.00026680
H         0.81223005    -0.17232727     1.91058416    -0.00009325     0.00008013    -0.00014473
H        -0.85599411    -0.12360796     1.80427420     0.00005690    -0.00022068    -0.00036989
H        -0.98327473     0.06057704    -0.48802729     0.00063584    -0.00028464    -0.00012757
     6
  Step:     1            Position(A)                                  Velocity(au)
C        -0.03970444    -0.00044615     0.03443008    -0.00007575     0.00009090    -0.00017690
N        -0.04654441    -0.03527726     1.28098646     0.00007816    -0.00000876     0.00018227
H         0.93218119     0.06351162    -0.54251763    -0.00025243    -0.00051126     0.00024297
H         0.81141923    -0.17187895     1.90950509    -0.00020097     0.00008364    -0.00024788
H        -0.85654810    -0.12493201     1.80282762    -0.00026096    -0.00026434    -0.00015850
H        -0.98007153     0.05906209    -0.48908346     0.00053091    -0.00026953    -0.00026166
     6
  Step:     2            Position(A)                                  Velocity(au)
C        -0.04008064     0.00004901     0.03322431    -0.00006200     0.00009046    -0.00026313
N        -0.04603585    -0.03532061     1.28219758     0.00010758    -0.00000707     0.00026019
H         0.93068131     0.06074450    -0.54125955    -0.00029354    -0.00050238     0.00021580
H         0.81003319    -0.17141301     1.90787450    -0.00030285     0.00008649    -0.00034590
H        -0.85884684    -0.12649754     1.80254156    -0.00057723    -0.00030909     0.00005115
H        -0.97747108     0.05763064    -0.49088761     0.00041738    -0.00025473    -0.00040129
     6
  Step:     3            Position(A)                                  Velocity(au)
C        -0.04038143     0.00054171     0.03155672    -0.00004835     0.00009009    -0.00034597
N        -0.04536962    -0.03535451     1.28382765     0.00013558    -0.00000532     0.00033580
H         0.92897577     0.05802572    -0.54016113    -0.00032765    -0.00049408     0.00018442
H         0.80811219    -0.17093445     1.90572786    -0.00039578     0.00008808    -0.00043600
H        -0.86285140    -0.12830726     1.80338623    -0.00088145    -0.00035356     0.00025246
H        -0.97551376     0.05628047    -0.49346554     0.00029702    -0.00024012    -0.00054477
     6
  Step:     4            Position(A)                                  Velocity(au)
C        -0.04060832     0.00103229     0.02944846    -0.00003507     0.00008965    -0.00042409
N        -0.04455618    -0.03537867     1.28586243     0.00016103    -0.00000351     0.00040810
H         0.92710535     0.05535221    -0.53924677    -0.00035343    -0.00048563     0.00014806
H         0.80571374    -0.17045172     1.90311606    -0.00047607     0.00008770    -0.00051483
H        -0.86846687    -0.13035629     1.80529688    -0.00116246    -0.00039610     0.00043863
H        -0.97422944     0.05500994    -0.49683321     0.00017216    -0.00022557    -0.00068953
     6
  Step:     5            Position(A)                                  Velocity(au)
C        -0.04076424     0.00152029     0.02692753    -0.00002247     0.00008896    -0.00049583
N        -0.04361187    -0.03539278     1.28828225     0.00018276    -0.00000164     0.00047565
H         0.92511788     0.05272479    -0.53854493    -0.00036944    -0.00047622     0.00010615
H         0.80291556    -0.16997711     1.90010815    -0.00053955     0.00008463    -0.00057863
H        -0.87554030    -0.13263094     1.80817411    -0.00140885    -0.00043486     0.00060298
H        -0.97363457     0.05381823    -0.50099214     0.00004583    -0.00021092    -0.00083201
     6
  Step:     6            Position(A)                                  Velocity(au)
C        -0.04085379     0.00200435     0.02403069    -0.00001088     0.00008786    -0.00055926
N        -0.04255920    -0.03539657     1.29105964     0.00019960     0.00000028     0.00053664
H         0.92306859     0.05014877    -0.53808689    -0.00037435    -0.00046500     0.00005848
H         0.79981827    -0.16952695     1.89679363    -0.00058177     0.00007816    -0.00062340
H        -0.88386084    -0.13510781     1.81188539    -0.00160976    -0.00046791     0.00073938
H        -0.97372863     0.05270536    -0.50592425    -0.00007818    -0.00019603    -0.00096778
     6
  Step:     7            Position(A)                                  Velocity(au)
C        -0.04088337     0.00248214     0.02080487    -0.00000069     0.00008617    -0.00061232
N        -0.04142666    -0.03538976     1.29415730     0.00021050     0.00000223     0.00058903
H         0.92101959     0.04763404    -0.53790472    -0.00036710    -0.00045122     0.00000530
H         0.79654649    -0.16912142     1.89328328    -0.00059852     0.00006767    -0.00064541
H        -0.89316369    -0.13775352     1.81626869    -0.00175588    -0.00049342     0.00084280
H        -0.97449044     0.05167210    -0.51158717    -0.00019553    -0.00018085    -0.00109173
     6
  Step:     8            Position(A)                                  Velocity(au)
C        -0.04086133     0.00295044     0.01730773     0.00000777     0.00008377    -0.00065313
N        -0.04024797    -0.03537208     1.29752689     0.00021470     0.00000422     0.00063079
H         0.91903797     0.04519463    -0.53802866    -0.00034725    -0.00043430    -0.00005256
H         0.79324685    -0.16878398     1.88970734    -0.00058655     0.00005275    -0.00064178
H        -0.90313954    -0.14052533     1.82113888    -0.00184066    -0.00050989     0.00090992
H        -0.97587546     0.05071967    -0.51791097    -0.00030165    -0.00016539    -0.00119868
     6
  Step:     9            Position(A)                                  Velocity(au)
C        -0.04079773     0.00340532     0.01360675     0.00001421     0.00008058    -0.00068030
N        -0.03906046    -0.03534326     1.30110926     0.00021183     0.00000623     0.00066029
H         0.91719253     0.04284762    -0.53848398    -0.00031512    -0.00041400    -0.00011376
H         0.79008211    -0.16854006     1.88621024    -0.00054427     0.00003330    -0.00061112
H        -0.91344954    -0.14337300     1.82629691    -0.00186134    -0.00051637     0.00093966
H        -0.97781492     0.04984930    -0.52479781    -0.00039224    -0.00014977    -0.00128400
     6
  Step:    10            Position(A)                                  Velocity(au)
C        -0.04070403     0.00384250     0.00977652     0.00001846     0.00007663    -0.00069328
N        -0.03790290    -0.03530309     1.30483657     0.00020206     0.00000825     0.00067663
H         0.91554949     0.04061150    -0.53928807    -0.00027194    -0.00039046    -0.00017657
H         0.78722151    -0.16841535     1.88294199    -0.00047231     0.00000957    -0.00055404
H        -0.92374541    -0.14624181     1.83154131    -0.00181974    -0.00051271     0.00093347
H        -0.98021773     0.04906170    -0.53212540    -0.00046390    -0.00013419    -0.00134449
     6
  Step:    11            Position(A)                                  Velocity(au)
C        -0.04059234     0.00425777     0.00589418     0.00002052     0.00007201    -0.00069265
N        -0.03681258    -0.03525146     1.30863658     0.00018611     0.00001027     0.00068002
H         0.91416729     0.03850389    -0.54044828    -0.00021985    -0.00036428    -0.00023912
H         0.78482776    -0.16843361     1.88004673    -0.00037379    -0.00001783    -0.00047336
H        -0.93369372    -0.14907677     1.83668156    -0.00172237    -0.00049965     0.00089539
H        -0.98297574     0.04835650    -0.53975493    -0.00051471    -0.00011897    -0.00137915
     6
  Step:    12            Position(A)                                  Velocity(au)
C        -0.04047464     0.00464748     0.00203325     0.00002052     0.00006692    -0.00068024
N        -0.03582235    -0.03518832     1.31243865     0.00016519     0.00001226     0.00067194
H         0.91309176     0.03653910    -0.54196125    -0.00016162    -0.00033652    -0.00029983
H         0.78304281    -0.16861471     1.87765020    -0.00025403    -0.00004806    -0.00037388
H        -0.94300009    -0.15182752     1.84155100    -0.00157978    -0.00047887     0.00083158
H        -0.98597182     0.04773174    -0.54754320    -0.00054459    -0.00010448    -0.00138971
     6
  Step:    13            Position(A)                                  Velocity(au)
C        -0.04036192     0.00500913    -0.00174305     0.00001875     0.00006164    -0.00065895
N        -0.03495801    -0.03511376     1.31618062     0.00014079     0.00001425     0.00065501
H         0.91235278     0.03472576    -0.54381449    -0.00010019    -0.00030846    -0.00035775
H         0.78197576    -0.16897317     1.87584908    -0.00011955    -0.00008021    -0.00026150
H        -0.95143022    -0.15445315     1.84601789    -0.00140492    -0.00045272     0.00074948
H        -0.98909000     0.04718351    -0.55535745    -0.00055531    -0.00009109    -0.00138048
     6
  Step:    14            Position(A)                                  Velocity(au)
C        -0.04026346     0.00534159    -0.00538754     0.00001555     0.00005641    -0.00063218
N        -0.03423678    -0.03502787     1.31981506     0.00011445     0.00001624     0.00063246
H         0.91196347     0.03306534    -0.54599006    -0.00003817    -0.00028144    -0.00041280
H         0.78169651    -0.16951796     1.87470529     0.00002313    -0.00011354    -0.00014210
H        -0.95882169    -0.15692587     1.84999135    -0.00121070    -0.00042380     0.00065646
H        -0.99222548     0.04670597    -0.56308952    -0.00054995    -0.00007908    -0.00135747
     6
  Step:    15            Position(A)                                  Velocity(au)
C        -0.04018652     0.00564526    -0.00887180     0.00001240     0.00005449    -0.00066155
N        -0.03366747    -0.03493067     1.32331254     0.00008561     0.00001688     0.00065466
H         0.91192232     0.03155209    -0.54846935    -0.00001324    -0.00028374    -0.00042323
H         0.78223663    -0.17025349     1.87424670     0.00015604    -0.00012775    -0.00004582
H        -0.96508257    -0.15923214     1.85342045    -0.00097807    -0.00041399     0.00053677
H        -0.99529150     0.04629172    -0.57066489    -0.00050211    -0.00005841    -0.00128206
     6
  Step:    16            Position(A)                                  Velocity(au)
C        -0.04012370     0.00595583    -0.01284514     0.00000969     0.00005570    -0.00074494
N        -0.03327171    -0.03483758     1.32719493     0.00005505     0.00001624     0.00072022
H         0.91181425     0.02986681    -0.55076115    -0.00002390    -0.00030383    -0.00039178
H         0.78345558    -0.17095803     1.87418880     0.00027578    -0.00013415     0.00002370
H        -0.96984736    -0.16159275     1.85604230    -0.00071508    -0.00041216     0.00039725
H        -0.99788576     0.04604755    -0.57754204    -0.00041723    -0.00003930    -0.00116095
     6
  Step:    17            Position(A)                                  Velocity(au)
C        -0.04007737     0.00627244    -0.01725921     0.00000649     0.00005682    -0.00081996
N        -0.03304770    -0.03474784     1.33142164     0.00002506     0.00001576     0.00077879
H         0.91165320     0.02813120    -0.55288051    -0.00003138    -0.00031129    -0.00036387
H         0.78534169    -0.17176393     1.87451356     0.00039304    -0.00015464     0.00009110
H        -0.97313385    -0.16387279     1.85789322    -0.00045720    -0.00039651     0.00026434
H        -0.99998923     0.04584918    -0.58373632    -0.00032995    -0.00003368    -0.00104327
     6
  Step:    18            Position(A)                                  Velocity(au)
C        -0.04005078     0.00659462    -0.02206389     0.00000274     0.00005783    -0.00088610
N        -0.03298998    -0.03466035     1.33595080    -0.00000382     0.00001548     0.00082993
H         0.91146150     0.02636696    -0.55485214    -0.00003460    -0.00031608    -0.00034033
H         0.78787449    -0.17269666     1.87521304     0.00050549    -0.00017807     0.00015653
H        -0.97498770    -0.16605065     1.85901425    -0.00020833    -0.00037842     0.00013910
H        -1.00159532     0.04566892    -0.58927153    -0.00024209    -0.00003162    -0.00092959
     6
  Step:    19            Position(A)                                  Velocity(au)
C        -0.04004659     0.00692182    -0.02720923    -0.00000142     0.00005868    -0.00094270
N        -0.03309061    -0.03457406     1.34074097    -0.00003112     0.00001536     0.00087310
H         0.91126465     0.02458194    -0.55670212    -0.00003308    -0.00031954    -0.00032113
H         0.79101783    -0.17376351     1.87627121     0.00060980    -0.00020196     0.00021822
H        -0.97547315    -0.16812212     1.85945517     0.00002808    -0.00035993     0.00002321
H        -1.00270769     0.04549416    -0.59417480    -0.00015540    -0.00003125    -0.00082006
     6
  Step:    20            Position(A)                                  Velocity(au)
C        -0.04006675     0.00725308    -0.03264236    -0.00000586     0.00005928    -0.00098875
N        -0.03333916    -0.03448799     1.34574829    -0.00005629     0.00001539     0.00090744
H         0.91109033     0.02278124    -0.55845566    -0.00002649    -0.00032185    -0.00030601
H         0.79471732    -0.17496298     1.87766179     0.00070228    -0.00022482     0.00027415
H        -0.97467255    -0.17008963     1.85927466     0.00024807    -0.00034184    -0.00008141
H        -1.00333919     0.04531822    -0.59847378    -0.00007166    -0.00003178    -0.00071478
     6
  Step:    21            Position(A)                                  Velocity(au)
C        -0.04011241     0.00758706    -0.03830536    -0.00001042     0.00005955    -0.00102319
N        -0.03372236    -0.03440132     1.35092451    -0.00007876     0.00001555     0.00093200
H         0.91096741     0.02097003    -0.56013629    -0.00001475    -0.00032284    -0.00029466
H         0.79889903    -0.17628657     1.87934777     0.00077924    -0.00024547     0.00032229
H        -0.97268927    -0.17195840     1.85854154     0.00044703    -0.00032461    -0.00017259
H        -1.00351191     0.04513755    -0.60219629     0.00000722    -0.00003275    -0.00061416
     6
  Step:    22            Position(A)                                  Velocity(au)
C        -0.04018383     0.00792195    -0.04413484    -0.00001493     0.00005943    -0.00104526
N        -0.03422381    -0.03431337     1.35621656    -0.00009793     0.00001580     0.00094616
H         0.91092468     0.01915513    -0.56176533     0.00000196    -0.00032229    -0.00028673
H         0.80346975    -0.17772016     1.88128175     0.00083750    -0.00026298     0.00036092
H        -0.96965153    -0.17373567     1.85733618     0.00062008    -0.00030872    -0.00024810
H        -1.00325813     0.04495042    -0.60537207     0.00007922    -0.00003386    -0.00051903
     6
  Step:    23            Position(A)                                  Velocity(au)
C        -0.04028032     0.00825563    -0.05006367    -0.00001919     0.00005890    -0.00105483
N        -0.03482399    -0.03422353     1.36156808    -0.00011330     0.00001616     0.00094981
H         0.91098942     0.01734457    -0.56336179     0.00002317    -0.00032012    -0.00028187
H         0.80832023    -0.17924487     1.88340786     0.00087488    -0.00027666     0.00038887
H        -0.96571393    -0.17543128     1.85575066     0.00076265    -0.00029478    -0.00030600
H        -1.00262077     0.04475665    -0.60803495     0.00014242    -0.00003489    -0.00043052
     6
  Step:    24            Position(A)                                  Velocity(au)
C        -0.04040015     0.00858584    -0.05602434    -0.00002305     0.00005797    -0.00105258
N        -0.03550082    -0.03413121     1.36692231    -0.00012453     0.00001662     0.00094352
H         0.91118579     0.01554694    -0.56494242     0.00004817    -0.00031643    -0.00027976
H         0.81333098    -0.18083856     1.88566488     0.00089059    -0.00028620     0.00040569
H        -0.96105536    -0.17705829     1.85388712     0.00087121    -0.00028350    -0.00034494
H        -1.00165285     0.04455717    -0.61022463     0.00019522    -0.00003567    -0.00034990
     6
  Step:    25            Position(A)                                  Velocity(au)
C        -0.04054073     0.00891044    -0.06195320    -0.00002637     0.00005670    -0.00103994
N        -0.03623058    -0.03403577     1.37222568    -0.00013149     0.00001721     0.00092852
H         0.91153356     0.01377032    -0.56652186     0.00007611    -0.00031150    -0.00028012
H         0.81837993    -0.18247764     1.88799037     0.00088524    -0.00029161     0.00041172
H        -0.95587310    -0.17863354     1.85185440     0.00094370    -0.00027562    -0.00036432
H        -1.00041561     0.04435372    -0.61198732     0.00023652    -0.00003611    -0.00027836
     6
  Step:    26            Position(A)                                  Velocity(au)
C        -0.04069864     0.00922759    -0.06779464    -0.00002904     0.00005517    -0.00101891
N        -0.03698911    -0.03393641     1.37743150    -0.00013430     0.00001796     0.00090651
H         0.91204722     0.01202131    -0.56811285     0.00010604    -0.00030574    -0.00028268
H         0.82335037    -0.18413905     1.89032479     0.00086073    -0.00029324     0.00040794
H        -0.95037430    -0.18017782     1.84976366     0.00097975    -0.00027187    -0.00036438
H        -0.99897589     0.04414850    -0.61337520     0.00026576    -0.00003615    -0.00021677
     6
  Step:    27            Position(A)                                  Velocity(au)
C        -0.04086992     0.00953590    -0.07350407    -0.00003098     0.00005348    -0.00099170
N        -0.03775304    -0.03383218     1.38250237    -0.00013320     0.00001890     0.00087938
H         0.91273571     0.01030431    -0.56972642     0.00013706    -0.00029961    -0.00028719
H         0.82813756    -0.18580192     1.89261501     0.00081972    -0.00029164     0.00039580
H        -0.94476616    -0.18171563     1.84772363     0.00098050    -0.00027286    -0.00034606
H        -0.99740283     0.04394391    -0.61444478     0.00028294    -0.00003579    -0.00016560
     6
  Step:    28            Position(A)                                  Velocity(au)
C        -0.04105023     0.00983449    -0.07904907    -0.00003216     0.00005171    -0.00096042
N        -0.03850077    -0.03372193     1.38741122    -0.00012860     0.00002007     0.00084890
H         0.91360261     0.00862121    -0.57137202     0.00016831    -0.00029352    -0.00029339
H         0.83265299    -0.18744874     1.89481660     0.00076524    -0.00028746     0.00037693
H        -0.93924702    -0.18327438     1.84583640     0.00094823    -0.00027899    -0.00031081
H        -0.99576494     0.04374234    -0.61525455     0.00028844    -0.00003504    -0.00012489
     6
  Step:    29            Position(A)                                  Velocity(au)
C        -0.04123503     0.01012296    -0.08440866    -0.00003255     0.00004992    -0.00092681
N        -0.03921312    -0.03360434     1.39214069    -0.00012092     0.00002149     0.00081652
H         0.91464674     0.00697171    -0.57305758     0.00019907    -0.00028782    -0.00030100
H         0.83682603    -0.18906570     1.89689463     0.00070026    -0.00028133     0.00035293
H        -0.93399996    -0.18488332     1.84419474     0.00088600    -0.00029048    -0.00026041
H        -0.99412787     0.04354609    -0.61586272     0.00028292    -0.00003392    -0.00009430
     6
  Step:    30            Position(A)                                  Velocity(au)
C        -0.04141974     0.01040130    -0.08957136    -0.00003214     0.00004818    -0.00089216
N        -0.03987364    -0.03347795     1.39668137    -0.00011065     0.00002318     0.00078334
H         0.91586266     0.00535356    -0.57478934     0.00022863    -0.00028274    -0.00030968
H         0.84060321    -0.19064278     1.89882347     0.00062749    -0.00027385     0.00032528
H        -0.92918804    -0.18657227     1.84287994     0.00079740    -0.00030727    -0.00019688
H        -0.99255291     0.04335726    -0.61632514     0.00026715    -0.00003245    -0.00007325
     6
  Step:    31            Position(A)                                  Velocity(au)
C        -0.04159978     0.01066974    -0.09453275    -0.00003095     0.00004651    -0.00085737
N        -0.04046877    -0.03334127     1.40102986    -0.00009826     0.00002515     0.00075010
H         0.91724121     0.00376327    -0.57657175     0.00025639    -0.00027840    -0.00031907
H         0.84394669    -0.19217328     1.90058586     0.00054933    -0.00026552     0.00029529
H        -0.92495116    -0.18837019     1.84196057     0.00068652    -0.00032908    -0.00012244
H        -0.99109625     0.04317779    -0.61669393     0.00024204    -0.00003069    -0.00006097
     6
  Step:    32            Position(A)                                  Velocity(au)
C        -0.04177069     0.01092870    -0.09929318    -0.00002899     0.00004492    -0.00082300
N        -0.04098783    -0.03319281     1.40518682    -0.00008424     0.00002737     0.00071729
H         0.91876992     0.00219673    -0.57840730     0.00028179    -0.00027486    -0.00032881
H         0.84683211    -0.19365358     1.90217178     0.00046792    -0.00025677     0.00026408
H        -0.92140349    -0.19030380     1.84149161     0.00055782    -0.00035542    -0.00003947
H        -0.98980842     0.04300928    -0.61701652     0.00020851    -0.00002864    -0.00005662
     6
  Step:    33            Position(A)                                  Velocity(au)
C        -0.04192814     0.01117864    -0.10385599    -0.00002628     0.00004342    -0.00078939
N        -0.04142307    -0.03303119     1.40915557    -0.00006909     0.00002983     0.00068522
H         0.92043343     0.00064956    -0.58029665     0.00030432    -0.00027210    -0.00033856
H         0.84924742    -0.19508213     1.90357752     0.00038519    -0.00024794     0.00023267
H        -0.91863196    -0.19239651     1.84151350     0.00041615    -0.00038559     0.00004948
H        -0.98873413     0.04285332    -0.61733540     0.00016760    -0.00002633    -0.00005931
     6
  Step:    34            Position(A)                                  Velocity(au)
C        -0.04206806     0.01142007    -0.10822634    -0.00002287     0.00004200    -0.00075673
N        -0.04176971    -0.03285522     1.41294118    -0.00005333     0.00003249     0.00065411
H         0.92221383    -0.00088256    -0.58223867     0.00032357    -0.00027010    -0.00034801
H         0.85119117    -0.19645939     1.90480477     0.00030290    -0.00023933     0.00020190
H        -0.91669412    -0.19466735     1.84205152     0.00026671    -0.00041875     0.00014171
H        -0.98791175     0.04271136    -0.61768773     0.00012042    -0.00002377    -0.00006809
     6
  Step:    35            Position(A)                                  Velocity(au)
C        -0.04218669     0.01165344    -0.11241033    -0.00001883     0.00004066    -0.00072513
N        -0.04202589    -0.03266394     1.41654981    -0.00003745     0.00003529     0.00062408
H         0.92409116    -0.00240378    -0.58423063     0.00033917    -0.00026880    -0.00035686
H         0.85267146    -0.19778761     1.90585992     0.00022261    -0.00023124     0.00017257
H        -0.91561699    -0.19713022     1.84311538     0.00011488    -0.00045394     0.00023449
H        -0.98737282     0.04258466    -0.61810512     0.00006821    -0.00002100    -0.00008199
     6
  Step:    36            Position(A)                                  Velocity(au)
C        -0.04228072     0.01187922    -0.11641459    -0.00001424     0.00003939    -0.00069464
N        -0.04219264    -0.03245668     1.41998838    -0.00002197     0.00003820     0.00059524
H         0.92604380    -0.00391793    -0.58626841     0.00035087    -0.00026815    -0.00036490
H         0.85370495    -0.19907062     1.90675344     0.00014580    -0.00022393     0.00014534
H        -0.91539688    -0.19979332     1.84469938    -0.00003399    -0.00049012     0.00032515
H        -0.98714149     0.04247427    -0.61861352     0.00001229    -0.00001805    -0.00010001
     6
  Step:    37            Position(A)                                  Velocity(au)
C        -0.04234729     0.01209781    -0.12024596    -0.00000918     0.00003819    -0.00066526
N        -0.04227372    -0.03223305     1.42326428    -0.00000734     0.00004115     0.00056766
H         0.92804899    -0.00542851    -0.58834676     0.00035846    -0.00026807    -0.00037192
H         0.85431607    -0.20031363     1.90749933     0.00007376    -0.00021763     0.00012080
H        -0.91600044    -0.20265892     1.84678309    -0.00017482    -0.00052625     0.00041116
H        -0.98723418     0.04238108    -0.61923322    -0.00004594    -0.00001494    -0.00012116
     6
  Step:    38            Position(A)                                  Velocity(au)
C        -0.04238416     0.01230959    -0.12391128    -0.00000377     0.00003705    -0.00063699
N        -0.04227540    -0.03199300     1.42638520     0.00000600     0.00004408     0.00054136
H         0.93008325    -0.00693880    -0.59045947     0.00036187    -0.00026853    -0.00037778
H         0.85453609    -0.20152310     1.90811466     0.00000766    -0.00021256     0.00009945
H        -0.91736693    -0.20572353     1.84933268    -0.00030302    -0.00056130     0.00049027
H        -0.98765922     0.04230596    -0.61997882    -0.00010504    -0.00001171    -0.00014446
     6
  Step:    39            Position(A)                                  Velocity(au)
C        -0.04238970     0.01251491    -0.12741726     0.00000188     0.00003596    -0.00060982
N        -0.04220613    -0.03173675     1.42935893     0.00001771     0.00004696     0.00051637
H         0.93212293    -0.00845159    -0.59259978     0.00036108    -0.00026943    -0.00038239
H         0.85440235    -0.20270661     1.90861899    -0.00005146    -0.00020889     0.00008173
H        -0.91941181    -0.20897805     1.85230256    -0.00041466    -0.00059432     0.00056054
H        -0.98841677     0.04224929    -0.62085953    -0.00016356    -0.00000842    -0.00016896
     6
  Step:    40            Position(A)                                  Velocity(au)
C        -0.04236296     0.01271405    -0.13077047     0.00000766     0.00003492    -0.00058372
N        -0.04207617    -0.03146480     1.43219330     0.00002750     0.00004973     0.00049269
H         0.93414464    -0.00996933    -0.59476052     0.00035617    -0.00027073    -0.00038569
H         0.85395730    -0.20387273     1.90903393    -0.00010276    -0.00020681     0.00006795
H        -0.92203098    -0.21240845     1.85563764    -0.00050666    -0.00062451     0.00062048
H        -0.98949893     0.04221126    -0.62187930    -0.00022007    -0.00000511    -0.00019377
     6
  Step:    41            Position(A)                                  Velocity(au)
C        -0.04230366     0.01290731    -0.13397736     0.00001342     0.00003392    -0.00055869
N        -0.04189711    -0.03117785     1.43489606     0.00003515     0.00005237     0.00047032
H         0.93612572    -0.01149422    -0.59693440     0.00034730    -0.00027239    -0.00038770
H         0.85324749    -0.20503079     1.90938260    -0.00014559    -0.00020642     0.00005834
H        -0.92510588    -0.21599662     1.85927582    -0.00057686    -0.00065122     0.00066903
H        -0.99089007     0.04219183    -0.62303723    -0.00027324    -0.00000182    -0.00021806
     6
  Step:    42            Position(A)                                  Velocity(au)
C        -0.04221223     0.01309494    -0.13704426     0.00001907     0.00003296    -0.00053471
N        -0.04168145    -0.03087676     1.43747475     0.00004055     0.00005484     0.00044922
H         0.93804464    -0.01302818    -0.59911417     0.00033470    -0.00027438    -0.00038843
H         0.85232241    -0.20619076     1.90968908    -0.00017950    -0.00020785     0.00005305
H        -0.92850884    -0.21972137     1.86315057    -0.00062405    -0.00067399     0.00070562
H        -0.99256734     0.04219077    -0.62432798    -0.00032185     0.00000141    -0.00024107
     6
  Step:    43            Position(A)                                  Velocity(au)
C        -0.04208971     0.01327716    -0.13997738     0.00002448     0.00003204    -0.00051180
N        -0.04144210    -0.03056251     1.43993672     0.00004366     0.00005714     0.00042936
H         0.93988142    -0.01457300    -0.60129292     0.00031868    -0.00027667    -0.00038796
H         0.85123333    -0.20736303     1.90997784    -0.00020428    -0.00021114     0.00005209
H        -0.93210835    -0.22355951     1.86719357    -0.00064795    -0.00069257     0.00073011
H        -0.99450156     0.04220768    -0.62574232    -0.00036484     0.00000457    -0.00026219
     6
  Step:    44            Position(A)                                  Velocity(au)
C        -0.04193775     0.01345421    -0.14278290     0.00002956     0.00003116    -0.00048995
N        -0.04119193    -0.03023611     1.44228904     0.00004451     0.00005926     0.00041071
H         0.94161790    -0.01613035    -0.60346422     0.00029958    -0.00027925    -0.00038640
H         0.85003191    -0.20855822     1.91027313    -0.00021995    -0.00021634     0.00005538
H        -0.93577408    -0.22748693     1.87133704    -0.00064909    -0.00070688     0.00074277
H        -0.99665815     0.04224202    -0.62726779    -0.00040134     0.00000762    -0.00028088
     6