 Fermi distribution function

Calculation with static geometry


********************************************************************************
 iSCC Total electronic   Diff electronic      SCC error    
   10   -0.54270671E+01   -0.21405100E-12    0.60328624E-07
********************************************************************************

 Total charge:     1.00000000

 Atomic gross charges (e)
 Atom           Charge
    1       0.17220233
    2      -0.05364365
    3       0.15214431
    4       0.28412860
    5       0.26716142
    6       0.17800699

Nr. of electrons (up):     12.00000000
Atom populations (up)
 Atom       Population
    1       3.82779767
    2       5.05364365
    3       0.84785569
    4       0.71587140
    5       0.73283858
    6       0.82199301

l-shell populations (up)
 Atom Sh.   l       Population
    1   1   0       1.29964587
    1   2   1       2.52815180
    2   1   0       1.41325393
    2   2   1       3.64038971
    3   1   0       0.84785569
    4   1   0       0.71587140
    5   1   0       0.73283858
    6   1   0       0.82199301

Orbital populations (up)
 Atom Sh.   l   m       Population  Label
    1   1   0   0       1.29964587  s
    1   2   1  -1       0.60228166  p_y
    1   2   1   0       0.88824261  p_z
    1   2   1   1       1.03762754  p_x
    2   1   0   0       1.41325393  s
    2   2   1  -1       1.34431716  p_y
    2   2   1   0       1.10646974  p_z
    2   2   1   1       1.18960281  p_x
    3   1   0   0       0.84785569  s
    4   1   0   0       0.71587140  s
    5   1   0   0       0.73283858  s
    6   1   0   0       0.82199301  s

Fermi level:                        -0.4901368392 H          -13.3373 eV
Band energy:                        -8.9610509963 H         -243.8426 eV
TS:                                  0.0000000000 H            0.0000 eV
Band free energy (E-TS):            -8.9610509963 H         -243.8426 eV
Extrapolated E(0K):                 -8.9610509963 H         -243.8426 eV
Input / Output electrons (q):     12.0000000000     12.0000000000

Energy H0:                          -5.5613323957 H         -151.3316 eV
Energy SCC:                          0.1342653395 H            3.6535 eV
Total Electronic energy:            -5.4270670562 H         -147.6780 eV
Repulsive energy:                    0.2014377319 H            5.4814 eV
Total energy:                       -5.2256293243 H         -142.1966 eV
Extrapolated to 0:                  -5.2256293243 H         -142.1966 eV
Total Mermin free energy:           -5.2256293243 H         -142.1966 eV
Force related energy:               -5.2256293243 H         -142.1966 eV

SCC converged

Excitation Energy:                   0.1441386279 H            3.9222 eV

Total Forces
    1     -0.008169215982      0.001910103859     -0.011330099714
    2     -0.009604392726      0.004251596788     -0.011967530191
    3     -0.003977862497     -0.009194556434      0.005768664492
    4      0.001292621487      0.009507480544      0.009589080257
    5      0.010677966172     -0.010266077526      0.002656749939
    6      0.009780883546      0.003791452768      0.005283135217

Maximal derivative component:        0.119675E-01 au


