|===============================================================================
|
|  DFTB+ release 20.1
|
|  Copyright (C) 2006 - 2020  DFTB+ developers group
|
|===============================================================================
|
|  When publishing results obtained with DFTB+, please cite the following
|  reference:
|
|  * DFTB+, a software package for efficient approximate density functional
|    theory based atomistic simulations, J. Chem. Phys. 152, 124101 (2020).
|    [doi: 10.1063/1.5143190]
|
|  You should also cite additional publications crediting the parametrization
|  data you use. Please consult the documentation of the SK-files for the
|  references.
|
|===============================================================================

Reading input file 'dftb_in.hsd'
Parser version: 8

--------------------------------------------------------------------------------
Reading SK-files:
Done.


Processed input in HSD format written to 'dftb_pin.hsd'

Starting initialization...
--------------------------------------------------------------------------------
WARNING!
-> Excited state forces are not implemented yet for fractional occupations, kT=  0.3158E-02K
OpenMP threads:              1
Chosen random seed:          435512355
Mode:                        Static calculation
Self consistent charges:     Yes
SCC-tolerance:                 0.100000E-05
Max. scc iterations:                    100
Shell resolved Hubbard:      No
Spin polarisation:           No
Nr. of up electrons:             6.000000
Nr. of down electrons:           6.000000
Periodic boundaries:         No
Electronic solver:           Relatively robust
Mixer:                       Broyden mixer
Mixing parameter:                  0.200000
Maximal SCC-cycles:                     100
Nr. of chrg. vec. in memory:              0
Electronic temperature:        0.100000E-07 H      0.272114E-06 eV
Initial charges:             Set automatically (system chrg:   0.100E+01)
Included shells:             C:  s, p
                             N:  s, p
                             H:  s
Extra options:
                             Mulliken analysis
                             Force calculation
Force type                   original
                             Eigenvector printing

--------------------------------------------------------------------------------

***  Geometry step: 0

 iSCC Total electronic   Diff electronic      SCC error    
    1   -0.54205204E+01    0.00000000E+00    0.64115038E+00
    2   -0.54241385E+01   -0.36180806E-02    0.44168751E+00
    3   -0.54268339E+01   -0.26954364E-02    0.56100688E-01
    4   -0.54270631E+01   -0.22914875E-03    0.18050305E-01
    5   -0.54270653E+01   -0.22154789E-05    0.58100002E-02
    6   -0.54270671E+01   -0.17497500E-05    0.33443268E-03
    7   -0.54270671E+01   -0.18052475E-08    0.96062490E-04
    8   -0.54270671E+01   -0.32247183E-09    0.61395023E-05
    9   -0.54270671E+01   -0.15605295E-11    0.26855294E-05
   10   -0.54270671E+01   -0.21405100E-12    0.60328624E-07
>> Charges saved for restart in charges.bin

Total Energy:                       -5.0814906964 H         -138.2744 eV
Extrapolated to 0:                  -5.2256293243 H         -142.1966 eV
Total Mermin free energy:           -5.0814906964 H         -138.2744 eV
Force related energy:               -5.2256293243 H         -142.1966 eV

--------------------------------------------------------------------------------
DFTB+ running times                          cpu [s]             wall clock [s]
--------------------------------------------------------------------------------
SCC                                    +     0.01  ( 50.8%)      0.05  ( 71.4%)
Post-SCC processing                    +     0.01  ( 44.0%)      0.02  ( 23.4%)
--------------------------------------------------------------------------------
Missing                                +     0.00  (  5.2%)      0.00  (  5.2%)
Total                                  =     0.02  (100.0%)      0.08  (100.0%)
--------------------------------------------------------------------------------
