     6
  Step:     0            Position(A)                                  Velocity(au)
C        -0.03579011     0.02103462     0.01665688    -0.00015906     0.00012878    -0.00043607
N        -0.03613530    -0.06746221     1.29538080     0.00020212    -0.00000179     0.00027562
H         0.90201442    -0.02342343    -0.53656321     0.00046295    -0.00068727    -0.00010730
H         0.77004002    -0.05537425     1.86228804    -0.00064556    -0.00016570     0.00011460
H        -0.96896662     0.01541563     1.86506502    -0.00161092    -0.00029585     0.00085942
H        -0.98740010     0.08043340    -0.49830014     0.00088013    -0.00036085     0.00049945
     6
  Step:     1            Position(A)                                  Velocity(au)
C        -0.03665705     0.02174896     0.01390331    -0.00015643     0.00013258    -0.00056839
N        -0.03511538    -0.06750902     1.29721320     0.00016919    -0.00001477     0.00039289
H         0.90469763    -0.02708509    -0.53719481     0.00051077    -0.00065371    -0.00012278
H         0.76719346    -0.05615321     1.86328578    -0.00038682    -0.00012161     0.00025702
H        -0.97727719     0.01385396     1.86943460    -0.00141380    -0.00027882     0.00073175
H        -0.98276895     0.07857408    -0.49568750     0.00080276    -0.00032048     0.00044731
     6
  Step:     2            Position(A)                                  Velocity(au)
C        -0.03750188     0.02248538     0.01043728    -0.00015072     0.00013658    -0.00069444
N        -0.03428393    -0.06762381     1.29967999     0.00013344    -0.00002654     0.00050597
H         0.90760348    -0.03057664    -0.53790676     0.00054412    -0.00062402    -0.00013652
H         0.76580724    -0.05670493     1.86510041    -0.00011506    -0.00008284     0.00040981
H        -0.98443707     0.01236463     1.87307216    -0.00119103    -0.00026863     0.00059242
H        -0.97861598     0.07692661    -0.49340545     0.00070363    -0.00028322     0.00037820
     6
  Step:     3            Position(A)                                  Velocity(au)
C        -0.03830776     0.02324475     0.00629778    -0.00014189     0.00014052    -0.00081160
N        -0.03365396    -0.06779963     1.30275458     0.00009581    -0.00003697     0.00061279
H         0.91065691    -0.03391937    -0.53869000     0.00056421    -0.00059756    -0.00014856
H         0.76593331    -0.05706043     1.86777401     0.00016132    -0.00004973     0.00056634
H        -0.99032145     0.01091188     1.87592281    -0.00094828    -0.00026421     0.00044474
H        -0.97506273     0.07547226    -0.49154540     0.00058209    -0.00024927     0.00029308
     6
  Step:     4            Position(A)                                  Velocity(au)
C        -0.03905781     0.02402633     0.00153753    -0.00012999     0.00014408    -0.00091719
N        -0.03323331    -0.06802919     1.30639963     0.00005732    -0.00004601     0.00071122
H         0.91379037    -0.03712930    -0.53953584     0.00057227    -0.00057314    -0.00015899
H         0.76757622    -0.05725024     1.87131073     0.00043285    -0.00002198     0.00071920
H        -0.99483555     0.00946736     1.87794900    -0.00069131    -0.00026403     0.00029211
H        -0.97223300     0.07419322    -0.49019166     0.00043861    -0.00021829     0.00019377
     6
  Step:     5            Position(A)                                  Velocity(au)
C        -0.03973565     0.02482736    -0.00377704    -0.00011520     0.00014686    -0.00100859
N        -0.03302433    -0.06830506     1.31056684     0.00001907    -0.00005364     0.00079910
H         0.91694291    -0.04021493    -0.54043642     0.00056941    -0.00054934    -0.00016798
H         0.77068785    -0.05730188     1.87567394     0.00068923     0.00000097     0.00086063
H        -0.99791508     0.00801172     1.87913143    -0.00042632    -0.00026639     0.00013826
H        -0.97024483     0.07307453    -0.48941690     0.00027546    -0.00018975     0.00008305
     6
  Step:     6            Position(A)                                  Velocity(au)
C        -0.04032612     0.02564311    -0.00956626    -0.00009788     0.00014851    -0.00108340
N        -0.03302339    -0.06861976     1.31519703    -0.00001778    -0.00005984     0.00087437
H         0.92005913    -0.04317705    -0.54138514     0.00055665    -0.00052488    -0.00017573
H         0.77516413    -0.05723954     1.88078559     0.00092006     0.00001967     0.00098317
H        -0.99952900     0.00653461     1.87947117    -0.00016024    -0.00026972    -0.00001260
H        -0.96920042     0.07210426    -0.48927740     0.00009687    -0.00016322    -0.00003546
     6
  Step:     7            Position(A)                                  Velocity(au)
C        -0.04081629     0.02646702    -0.01573833    -0.00007856     0.00014876    -0.00113968
N        -0.03322058    -0.06896570     1.32022031    -0.00005201    -0.00006457     0.00093521
H         0.92308860    -0.04600986    -0.54237661     0.00053501    -0.00049879    -0.00018241
H         0.78084584    -0.05708472     1.88652863     0.00111569     0.00003453     0.00108025
H        -0.99968425     0.00503393     1.87899226     0.00009916    -0.00027259    -0.00015592
H        -0.96917530     0.07127253    -0.48980840    -0.00009101    -0.00013847    -0.00015734
     6
  Step:     8            Position(A)                                  Velocity(au)
C        -0.04119647     0.02729115    -0.02219184    -0.00005799     0.00014745    -0.00117635
N        -0.03359953    -0.06933513     1.32555740    -0.00008247    -0.00006786     0.00098035
H         0.92598610    -0.04870274    -0.54340592     0.00050573    -0.00047053    -0.00018808
H         0.78752391    -0.05685703     1.89275282     0.00126831     0.00004585     0.00114703
H        -0.99843044     0.00351480     1.87774382     0.00034364    -0.00027387    -0.00028698
H        -0.97020859     0.07057028    -0.49102045    -0.00028065    -0.00011548    -0.00027782
     6
  Step:     9            Position(A)                                  Velocity(au)
C        -0.04146116     0.02810683    -0.02882029    -0.00003701     0.00014458    -0.00119353
N        -0.03413775    -0.06972037     1.33112262    -0.00010820    -0.00006976     0.00100945
H         0.92871272    -0.05124257    -0.54446820     0.00047041    -0.00044006    -0.00019293
H         0.79495049    -0.05657483     1.89928455     0.00137313     0.00005388     0.00118108
H        -0.99586275     0.00198822     1.87580085     0.00056507    -0.00027275    -0.00040135
H        -0.97229631     0.06998825    -0.49289802    -0.00046402    -0.00009441    -0.00039234
     6
  Step:    10            Position(A)                                  Velocity(au)
C        -0.04160969     0.02890545    -0.03551850    -0.00001651     0.00014030    -0.00119285
N        -0.03480770    -0.07011408     1.33682873    -0.00012854    -0.00007042     0.00102338
H         0.93123854    -0.05361629    -0.54556014     0.00043110    -0.00040783    -0.00019738
H         0.80285589    -0.05625541     1.90594041     0.00142920     0.00005888     0.00118287
H        -0.99212102     0.00046936     1.87326244     0.00075650    -0.00026879    -0.00049552
H        -0.97538967     0.06951615    -0.49540118    -0.00063376    -0.00007547    -0.00049720
     6
  Step:    11            Position(A)                                  Velocity(au)
C        -0.04164626     0.02967940    -0.04219056     0.00000424     0.00021230    -0.00185221
N        -0.03557856    -0.07050971     1.34259342    -0.00022535    -0.00011023     0.00161133
H         0.93354482    -0.05581375    -0.54668062     0.00061371    -0.00058947    -0.00031774
H         0.81096993    -0.05591483     1.91254293     0.00226465     0.00009623     0.00181803
H        -0.98738332    -0.00102455     1.87024674     0.00143644    -0.00041211    -0.00089251
H        -0.97939992     0.06914236    -0.49847094    -0.00123384    -0.00009264    -0.00092836
     6
  Step:    12            Position(A)                                  Velocity(au)
C        -0.04158109     0.03084139    -0.05218261     0.00001758     0.00019631    -0.00166139
N        -0.03685738    -0.07110985     1.35136630    -0.00022094    -0.00010077     0.00147237
H         0.93714670    -0.05910301    -0.54876887     0.00064970    -0.00056759    -0.00041273
H         0.82356057    -0.05535457     1.92262965     0.00213835     0.00010047     0.00171292
H        -0.97906924    -0.00332309     1.86514610     0.00146274    -0.00039481    -0.00088557
H        -0.98691211     0.06866323    -0.50421386    -0.00139004    -0.00007691    -0.00107788
     6
  Step:    13            Position(A)                                  Velocity(au)
C        -0.04144607     0.03191471    -0.06110868     0.00002857     0.00018023    -0.00147086
N        -0.03809438    -0.07165717     1.35935913    -0.00020983    -0.00009125     0.00133079
H         0.94094294    -0.06227683    -0.55138037     0.00067724    -0.00054582    -0.00049845
H         0.83531913    -0.05477082     1.93204780     0.00196595     0.00010397     0.00157772
H        -0.97072726    -0.00552021     1.86016282     0.00143859    -0.00037451    -0.00084741
H        -0.99522819     0.06826662    -0.51074464    -0.00150646    -0.00006329    -0.00119809
     6
  Step:    14            Position(A)                                  Velocity(au)
C        -0.04125485     0.03289924    -0.06897673     0.00003745     0.00016594    -0.00129694
N        -0.03925316    -0.07215167     1.36656110    -0.00019472    -0.00008266     0.00120088
H         0.94487939    -0.06533514    -0.55446007     0.00070101    -0.00052921    -0.00057899
H         0.84600756    -0.05416745     1.94064394     0.00177519     0.00010785     0.00143396
H        -0.96264362    -0.00759921     1.85547040     0.00137910    -0.00035504    -0.00078820
H        -1.00411273     0.06794064    -0.51789352    -0.00159563    -0.00005230    -0.00130019
     6
  Step:    15            Position(A)                                  Velocity(au)
C        -0.04101944     0.03380500    -0.07588267     0.00004455     0.00015398    -0.00114384
N        -0.04031258    -0.07259875     1.37303887    -0.00017693    -0.00007530     0.00108668
H         0.94892845    -0.06830536    -0.55797590     0.00072274    -0.00051946    -0.00065739
H         0.85554109    -0.05354229     1.94838267     0.00157856     0.00011269     0.00129092
H        -0.95501728    -0.00956463     1.85118409     0.00129140    -0.00033783    -0.00071274
H        -1.01340469     0.06767087    -0.52555571    -0.00166497    -0.00004384    -0.00139153
     6
  Step:    16            Position(A)                                  Velocity(au)
C        -0.04074974     0.03464491    -0.08194429     0.00005009     0.00014402    -0.00100849
N        -0.04125898    -0.07300535     1.37888060    -0.00015664    -0.00006902     0.00098566
H         0.95307303    -0.07122415    -0.56191285     0.00074098    -0.00051562    -0.00073409
H         0.86390342    -0.05288989     1.95527895     0.00137784     0.00011857     0.00114936
H        -0.94800322    -0.01142915     1.84739013     0.00117573    -0.00032252    -0.00062167
H        -1.02298820     0.06744367    -0.53366911    -0.00171478    -0.00003752    -0.00147343
     6
  Step:    17            Position(A)                                  Velocity(au)
C        -0.04045425     0.03543003    -0.08726153     0.00005416     0.00013549    -0.00088623
N        -0.04207993    -0.07337749     1.38416013    -0.00013375    -0.00006352     0.00089370
H         0.95728894    -0.07412310    -0.56625872     0.00075286    -0.00051584    -0.00080776
H         0.87108734    -0.05220449     1.96135099     0.00117178     0.00012528     0.00100752
H        -0.94175149    -0.01320368     1.84416974     0.00103065    -0.00030822    -0.00051465
H        -1.03275269     0.06724754    -0.54218048    -0.00174200    -0.00003295    -0.00154387
     6
  Step:    18            Position(A)                                  Velocity(au)
C        -0.04014084     0.03616819    -0.09190817     0.00005682     0.00012790    -0.00077357
N        -0.04276274    -0.07371954     1.38892844    -0.00010837    -0.00005859     0.00080764
H         0.96153739    -0.07702366    -0.57099441     0.00075579    -0.00051844    -0.00087664
H         0.87707774    -0.05148142     1.96660645     0.00096014     0.00013258     0.00086438
H        -0.93641569    -0.01489440     1.84160392     0.00085674    -0.00029425    -0.00039250
H        -1.04257347     0.06707317    -0.55102679    -0.00174391    -0.00002983    -0.00160059
     6
  Step:    19            Position(A)                                  Velocity(au)
C        -0.03981689     0.03686463    -0.09593829     0.00005819     0.00012096    -0.00066841
N        -0.04329542    -0.07403461     1.39321908    -0.00008087    -0.00005405     0.00072565
H         0.96576634    -0.07993818    -0.57609167     0.00074804    -0.00052223    -0.00093935
H         0.88185682    -0.05071735     1.97104634     0.00074430     0.00014031     0.00072020
H        -0.93214179    -0.01650412     1.83976719     0.00065754    -0.00028037    -0.00025761
H        -1.05231342     0.06691294    -0.56013361    -0.00171955    -0.00002792    -0.00164232
     6
  Step:    20            Position(A)                                  Velocity(au)
C        -0.03948912     0.03752288    -0.09939418     0.00005840     0.00011449    -0.00056963
N        -0.04366843    -0.07432490     1.39705555    -0.00005189    -0.00004982     0.00064687
H         0.96991532    -0.08287257    -0.58151493     0.00072878    -0.00052648    -0.00099499
H         0.88541371    -0.04990992     1.97467251     0.00052681     0.00014836     0.00057618
H        -0.92905137    -0.01803451     1.83871877     0.00043920    -0.00026668    -0.00011363
H        -1.06183210     0.06676046    -0.56942038    -0.00166970    -0.00002705    -0.00166895
     6
  Step:    21            Position(A)                                  Velocity(au)
C        -0.03916347     0.03814557    -0.10231162     0.00005762     0.00010840    -0.00047661
N        -0.04387594    -0.07459207     1.40045662    -0.00002220    -0.00004584     0.00057100
H         0.97392028    -0.08582872    -0.58722420     0.00069784    -0.00053073    -0.00104316
H         0.88775106    -0.04905747     1.97749300     0.00031076     0.00015665     0.00043399
H        -0.92722781    -0.01948790     1.83849585     0.00020963    -0.00025348     0.00003499
H        -1.07099487     0.06661026    -0.57880671    -0.00159633    -0.00002710    -0.00168125
     6
  Step:    22            Position(A)                                  Velocity(au)
C        -0.03884493     0.03873478    -0.10472274     0.00005602     0.00010264    -0.00038894
N        -0.04391664    -0.07483740     1.40343935     0.00000734    -0.00004205     0.00049798
H         0.97771724    -0.08880615    -0.59317752     0.00065557    -0.00053472    -0.00108376
H         0.88888800    -0.04815862     1.97952454     0.00009933     0.00016516     0.00029539
H        -0.92670771    -0.02086842     1.83910992    -0.00002234    -0.00024116     0.00018347
H        -1.07967918     0.06645753    -0.58821685    -0.00150213    -0.00002795    -0.00168047
     6
  Step:    23            Position(A)                                  Velocity(au)
C        -0.03853754     0.03929230    -0.10665721     0.00005377     0.00009717    -0.00030628
N        -0.04379395    -0.07506189     1.40602041     0.00003588    -0.00003841     0.00042784
H         0.98124487    -0.09180309    -0.59933284     0.00060262    -0.00053832    -0.00111693
H         0.88886080    -0.04721216     1.98079332    -0.00010440     0.00017390     0.00016212
H        -0.92747737    -0.02218229     1.84054570    -0.00024771    -0.00023012     0.00032708
H        -1.08777784     0.06629801    -0.59758224    -0.00138991    -0.00002953    -0.00166802
     6
  Step:    24            Position(A)                                  Velocity(au)
C        -0.03824455     0.03981977    -0.10814266     0.00005099     0.00009198    -0.00022830
N        -0.04351596    -0.07526632     1.40821660     0.00006263    -0.00003490     0.00036062
H         0.98444610    -0.09481705    -0.60564915     0.00053982    -0.00054144    -0.00114291
H         0.88772229    -0.04621687     1.98133478    -0.00029749     0.00018287     0.00003583
H        -0.92947360    -0.02343790     1.84276214    -0.00045797    -0.00022072     0.00046144
H        -1.09519882     0.06612783    -0.60684189    -0.00126236    -0.00003178    -0.00164527
     6
  Step:    25            Position(A)                                  Velocity(au)
C        -0.03796848     0.04031870    -0.10920488     0.00004782     0.00008703    -0.00015468
N        -0.04309505    -0.07545131     1.41004474     0.00008685    -0.00003147     0.00029632
H         0.98726892    -0.09784515    -0.61208699     0.00046808    -0.00054399    -0.00116196
H         0.88554105    -0.04517144     1.98119316    -0.00047715     0.00019210    -0.00008193
H        -0.93258798    -0.02464536     1.84569506    -0.00064557    -0.00021323     0.00058267
H        -1.10186497     0.06594342    -0.61594232    -0.00112204    -0.00003464    -0.00161347
     6
  Step:    26            Position(A)                                  Velocity(au)
C        -0.03771122     0.04079045    -0.10986776     0.00004435     0.00008232    -0.00008509
N        -0.04254737    -0.07561731     1.41152150     0.00010791    -0.00002811     0.00023489
H         0.98966656    -0.10088421    -0.61860851     0.00038833    -0.00054594    -0.00117434
H         0.88240061    -0.04407435     1.98042100    -0.00064075     0.00020163    -0.00018968
H        -0.93667361    -0.02581608     1.84926069    -0.00080431    -0.00020783     0.00068762
H        -1.10771295     0.06574151    -0.62483687    -0.00097131    -0.00003807    -0.00157374
     6
  Step:    27            Position(A)                                  Velocity(au)
C        -0.03747414     0.04123630    -0.11015341     0.00004067     0.00007781    -0.00001926
N        -0.04189217    -0.07576471     1.41266308     0.00012532    -0.00002482     0.00017623
H         0.99159768    -0.10393081    -0.62517742     0.00030157    -0.00054724    -0.00118030
H         0.87839863    -0.04292384     1.97907875    -0.00078574     0.00021151    -0.00028602
H        -0.94155362    -0.02696209     1.85336000    -0.00092957    -0.00020459     0.00077391
H        -1.11269218     0.06551908    -0.63348491    -0.00081230    -0.00004201    -0.00152707
     6
  Step:    28            Position(A)                                  Velocity(au)
C        -0.03725814     0.04165740    -0.11008230     0.00003684     0.00007349     0.00004310
N        -0.04115113    -0.07589381     1.41348499     0.00013869    -0.00002157     0.00012020
H         0.99302649    -0.10698139    -0.63175904     0.00020878    -0.00054786    -0.00118011
H         0.87364612    -0.04171782     1.97723431    -0.00090976     0.00022179    -0.00036959
H        -0.94703057    -0.02809554     1.85788331    -0.00101847    -0.00020347     0.00084000
H        -1.11676331     0.06527340    -0.64185091    -0.00064696    -0.00004643    -0.00147428
     6
  Step:    29            Position(A)                                  Velocity(au)
C        -0.03706380     0.04205479    -0.10967339     0.00003294     0.00006935     0.00010221
N        -0.04034755    -0.07600496     1.41400178     0.00014780    -0.00001839     0.00006664
H         0.99392286    -0.11003227    -0.63832019     0.00011101    -0.00054778    -0.00117403
H         0.86826668    -0.04045377     1.97496267    -0.00101055     0.00023257    -0.00043911
H        -0.95289618    -0.02922810     1.86271502    -0.00106980    -0.00020435     0.00088519
H        -1.11989726     0.06500200    -0.64990376    -0.00047706    -0.00005126    -0.00141611
     6
  Step:    30            Position(A)                                  Velocity(au)
C        -0.03689140     0.04242945    -0.10894438     0.00002900     0.00006536     0.00015828
N        -0.03950573    -0.07609853     1.41422692     0.00015251    -0.00001528     0.00001536
H         0.99426229    -0.11307978    -0.64482932     0.00000926    -0.00054703    -0.00116236
H         0.86239582    -0.03912868     1.97234572    -0.00108609     0.00024394    -0.00049341
H        -0.95894046    -0.03037054     1.86773800    -0.00108390    -0.00020705     0.00090951
H        -1.12207432     0.06470272    -0.65761625    -0.00030423    -0.00005645    -0.00135325
     6
  Step:    31            Position(A)                                  Velocity(au)
C        -0.03674101     0.04278226    -0.10791185     0.00002507     0.00006153     0.00021147
N        -0.03865022    -0.07617498     1.41417274     0.00015283    -0.00001226    -0.00003384
H         0.99402592    -0.11612033    -0.65125654    -0.00009544    -0.00054561    -0.00114541
H         0.85617917    -0.03773892     1.96947128    -0.00113477     0.00025600    -0.00053154
H        -0.96495929    -0.03153247     1.87283734    -0.00106237    -0.00021135     0.00091364
H        -1.12328310     0.06437370    -0.66496458    -0.00012994    -0.00006195    -0.00128630
     6
  Step:    32            Position(A)                                  Velocity(au)
C        -0.03661249     0.04311409    -0.10659146     0.00002117     0.00005785     0.00026194
N        -0.03780525    -0.07623489     1.41385040     0.00014888    -0.00000935    -0.00008115
H         0.99320040    -0.11915056    -0.65757375    -0.00020210    -0.00054360    -0.00112353
H         0.84976976    -0.03628027     1.96643156    -0.00115560     0.00026887    -0.00055288
H        -0.97076099    -0.03272209     1.87790358    -0.00100791    -0.00021698     0.00089876
H        -1.12352014     0.06401341    -0.67192826     0.00004438    -0.00006770    -0.00121586
     6
  Step:    33            Position(A)                                  Velocity(au)
C        -0.03650553     0.04342575    -0.10499805     0.00001734     0.00005430     0.00030981
N        -0.03699401    -0.07627897     1.41327000     0.00014089    -0.00000657    -0.00012674
H         0.99177778    -0.12216741    -0.66375484    -0.00030975    -0.00054105    -0.00109709
H         0.84332416    -0.03474794     1.96332103    -0.00114829     0.00028265    -0.00055723
H        -0.97617136    -0.03394613     1.88283524    -0.00092391    -0.00022368     0.00086646
H        -1.12278938     0.06362065    -0.67848995     0.00021743    -0.00007362    -0.00114252
     6
  Step:    34            Position(A)                                  Velocity(au)
C        -0.03641965     0.04371804    -0.10314576     0.00001361     0.00005090     0.00035519
N        -0.03623823    -0.07630802     1.41244075     0.00012917    -0.00000396    -0.00017076
H         0.98975530    -0.12516822    -0.66977572    -0.00041748    -0.00053805    -0.00106647
H         0.83699841    -0.03313662     1.96023395    -0.00111332     0.00029741    -0.00054488
H        -0.98103679    -0.03520985     1.88754047    -0.00081429    -0.00023119     0.00081859
H        -1.12110181     0.06319457    -0.68463547     0.00038796    -0.00007967    -0.00106684
     6
  Step:    35            Position(A)                                  Velocity(au)
C        -0.03635422     0.04399177    -0.10104816     0.00001000     0.00004764     0.00039818
N        -0.03555760    -0.07632298     1.41137113     0.00011411    -0.00000152    -0.00021329
H         0.98713518    -0.12815078    -0.67561438    -0.00052441    -0.00053468    -0.00103202
H         0.83094362    -0.03144067     1.95726176    -0.00105196     0.00031318    -0.00051656
H        -0.98522661    -0.03651708     1.89193830    -0.00068331    -0.00023927     0.00075718
H        -1.11847505     0.06273468    -0.69035363     0.00055479    -0.00008577    -0.00098935
     6
  Step:    36            Position(A)                                  Velocity(au)
C        -0.03630845     0.04424774    -0.09871835     0.00000655     0.00004452     0.00043883
N        -0.03496944    -0.07632491     1.41006914     0.00009618     0.00000073    -0.00025440
H         0.98392437    -0.13111340    -0.68125089    -0.00062967    -0.00053102    -0.00099412
H         0.82530156    -0.02965430     1.95449031    -0.00096634     0.00032998    -0.00047355
H        -0.98863460    -0.03787030     1.89595958    -0.00053540    -0.00024767     0.00068436
H        -1.11493301     0.06224084    -0.69563618     0.00071679    -0.00009187    -0.00091058
     6
  Step:    37            Position(A)                                  Velocity(au)
C        -0.03628139     0.04448676    -0.09616912     0.00000328     0.00004155     0.00047718
N        -0.03448825    -0.07631492     1.40854263     0.00007591     0.00000276    -0.00029408
H         0.98013441    -0.13405480    -0.68666728    -0.00073243    -0.00052714    -0.00095310
H         0.82019959    -0.02777191     1.95199676    -0.00085947     0.00034771    -0.00041769
H        -0.99117933    -0.03927075     1.89954722    -0.00037498    -0.00025618     0.00060232
H        -1.11050564     0.06171330    -0.70047764     0.00087284    -0.00009788    -0.00083100
     6
  Step:    38            Position(A)                                  Velocity(au)
C        -0.03627198     0.04470966    -0.09341310     0.00000022     0.00003872     0.00051321
N        -0.03412543    -0.07629418     1.40679961     0.00005389     0.00000459    -0.00033224
H         0.97578130    -0.13697415    -0.69184746    -0.00083185    -0.00052311    -0.00090928
H         0.81574605    -0.02578847     1.94984647    -0.00073513     0.00036624    -0.00035135
H        -0.99280366    -0.04071851     1.90265612    -0.00020637    -0.00026460     0.00051316
H        -1.10522882     0.06115267    -0.70487521     0.00102183    -0.00010373    -0.00075110
     6
  Step:    39            Position(A)                                  Velocity(au)
C        -0.03627898     0.04491730    -0.09046303    -0.00000261     0.00003605     0.00054687
N        -0.03388905    -0.07626389     1.40484870     0.00003073     0.00000620    -0.00036872
H         0.97088555    -0.13987098    -0.69677702    -0.00092708    -0.00051897    -0.00086294
H         0.81202612    -0.02369992     1.94809030    -0.00059782     0.00038533    -0.00027736
H        -0.99347381    -0.04221266     1.90525277    -0.00003368    -0.00027274     0.00041896
H        -1.09914447     0.06056001    -0.70882870     0.00116260    -0.00010934    -0.00067135
     6
  Step:    40            Position(A)                                  Velocity(au)
C        -0.03630102     0.04511054    -0.08733192    -0.00000518     0.00003354     0.00057807
N        -0.03378368    -0.07622525     1.40269947     0.00000708     0.00000760    -0.00040331
H         0.96547229    -0.14274509    -0.70144321    -0.00101723    -0.00051477    -0.00081436
H         0.80909839    -0.02150367     1.94676229    -0.00045256     0.00040466    -0.00019891
H        -0.99317819    -0.04375135     1.90731487     0.00013911    -0.00028044     0.00032172
H        -1.09230079     0.05993678    -0.71234056     0.00129395    -0.00011464    -0.00059224
     6
  Step:    41            Position(A)                                  Velocity(au)
C        -0.03633655     0.04529032    -0.08403341    -0.00000745     0.00003119     0.00060665
N        -0.03381029    -0.07617941     1.40036289    -0.00001640     0.00000879    -0.00043571
H         0.95957140    -0.14559649    -0.70583480    -0.00110138    -0.00051051    -0.00076384
H         0.80699248    -0.01919906     1.94587788    -0.00030471     0.00042385    -0.00011946
H        -0.99192657    -0.04533191     1.90883108     0.00030817    -0.00028756     0.00022342
H        -1.08475249     0.05928495    -0.71541592     0.00141459    -0.00011952    -0.00051429
     6
  Step:    42            Position(A)                                  Velocity(au)
C        -0.03638388     0.04545758    -0.08058192    -0.00000940     0.00002902     0.00063244
N        -0.03396619    -0.07612750     1.39785153    -0.00003906     0.00000978    -0.00046559
H         0.95321768    -0.14842534    -0.70994213    -0.00117860    -0.00050623    -0.00071167
H         0.80570798    -0.01678769     1.94543314    -0.00015968     0.00044244    -0.00004250
H        -0.98974930    -0.04695089     1.90980082     0.00046980    -0.00029395     0.00012604
H        -1.07656118     0.05860698    -0.71806285     0.00152325    -0.00012389    -0.00043806
     6
  Step:    43            Position(A)                                  Velocity(au)
C        -0.03644116     0.04561333    -0.07699290    -0.00001099     0.00002703     0.00065524
N        -0.03424512    -0.07607056     1.39517980    -0.00006027     0.00001059    -0.00049263
H         0.94645095    -0.15123194    -0.71375720    -0.00124799    -0.00050195    -0.00065818
H         0.80521489    -0.01427377     1.94540481    -0.00002265     0.00045995     0.00002858
H        -0.98669661    -0.04860418     1.91023423     0.00062048    -0.00029950     0.00003153
H        -1.06779541     0.05790583    -0.72029245     0.00161863    -0.00012765    -0.00036414
     6
  Step:    44            Position(A)                                  Velocity(au)
C        -0.03650635     0.04575865    -0.07328291    -0.00001221     0.00002524     0.00067485
N        -0.03463751    -0.07600959     1.39236399    -0.00007944     0.00001122    -0.00051648
H         0.93931591    -0.15401676    -0.71727384    -0.00130867    -0.00049772    -0.00060376
H         0.80545565    -0.01166417     1.94575155     0.00010170     0.00047591     0.00009072
H        -0.98283754    -0.05028715     1.91015205     0.00075690    -0.00030414    -0.00005821
H        -1.05853061     0.05718501    -0.72211919     0.00169957    -0.00013073    -0.00029320
     6