 Fermi distribution function

Calculation with static geometry


********************************************************************************
 iSCC Total electronic   Diff electronic      SCC error    
   12   -0.53354877E+01   -0.49733666E-08    0.59576061E-06
********************************************************************************

 Total charge:     1.00000000

 Atomic gross charges (e)
 Atom           Charge
    1       0.33807353
    2      -0.22804448
    3       0.15873970
    4       0.26612874
    5       0.29798892
    6       0.16711358

Nr. of electrons (up):     12.00000000
Atom populations (up)
 Atom       Population
    1       3.66192647
    2       5.22804448
    3       0.84126030
    4       0.73387126
    5       0.70201108
    6       0.83288642

l-shell populations (up)
 Atom Sh.   l       Population
    1   1   0       1.34353493
    1   2   1       2.31839154
    2   1   0       1.46158361
    2   2   1       3.76646087
    3   1   0       0.84126030
    4   1   0       0.73387126
    5   1   0       0.70201108
    6   1   0       0.83288642

Orbital populations (up)
 Atom Sh.   l   m       Population  Label
    1   1   0   0       1.34353493  s
    1   2   1  -1       0.47727460  p_y
    1   2   1   0       0.88439869  p_z
    1   2   1   1       0.95671825  p_x
    2   1   0   0       1.46158361  s
    2   2   1  -1       1.33026632  p_y
    2   2   1   0       1.07548085  p_z
    2   2   1   1       1.36071370  p_x
    3   1   0   0       0.84126030  s
    4   1   0   0       0.73387126  s
    5   1   0   0       0.70201108  s
    6   1   0   0       0.83288642  s

Fermi level:                        -0.4985305936 H          -13.5657 eV
Band energy:                        -8.7598172939 H         -238.3668 eV
TS:                                  0.0000000000 H            0.0000 eV
Band free energy (E-TS):            -8.7598172939 H         -238.3668 eV
Extrapolated E(0K):                 -8.7598172939 H         -238.3668 eV
Input / Output electrons (q):     12.0000000000     12.0000000000

Energy H0:                          -5.4706421301 H         -148.8637 eV
Energy SCC:                          0.1351544739 H            3.6777 eV
Total Electronic energy:            -5.3354876563 H         -145.1860 eV
Repulsive energy:                    0.1603189624 H            4.3625 eV
Total energy:                       -5.1751686939 H         -140.8235 eV
Extrapolated to 0:                  -5.1751686939 H         -140.8235 eV
Total Mermin free energy:           -5.1751686939 H         -140.8235 eV
Force related energy:               -5.1751686939 H         -140.8235 eV

SCC converged

Excitation Energy:                   0.0896163024 H            2.4386 eV

Total Forces
    1      0.005001194729     -0.000784469802      0.067572851707
    2     -0.008309658759      0.016873538523     -0.068984402803
    3     -0.007899678776      0.012871536951      0.001419415420
    4     -0.009053898461     -0.016578818888     -0.002512329964
    5      0.015399068816      0.005077245463     -0.001178224427
    6      0.004862972451     -0.017459032247      0.003682690067

Maximal derivative component:        0.689844E-01 au


