|===============================================================================
|
|  DFTB+ release 20.1
|
|  Copyright (C) 2006 - 2020  DFTB+ developers group
|
|===============================================================================
|
|  When publishing results obtained with DFTB+, please cite the following
|  reference:
|
|  * DFTB+, a software package for efficient approximate density functional
|    theory based atomistic simulations, J. Chem. Phys. 152, 124101 (2020).
|    [doi: 10.1063/1.5143190]
|
|  You should also cite additional publications crediting the parametrization
|  data you use. Please consult the documentation of the SK-files for the
|  references.
|
|===============================================================================

Reading input file 'dftb_in.hsd'
Parser version: 8

--------------------------------------------------------------------------------
Reading SK-files:
Done.


Processed input in HSD format written to 'dftb_pin.hsd'

Starting initialization...
--------------------------------------------------------------------------------
OpenMP threads:              1
Chosen random seed:          452287261
Mode:                        Static calculation
Self consistent charges:     Yes
SCC-tolerance:                 0.100000E-05
Max. scc iterations:                   1000
Shell resolved Hubbard:      No
Spin polarisation:           No
Nr. of up electrons:             6.000000
Nr. of down electrons:           6.000000
Periodic boundaries:         No
Electronic solver:           Relatively robust
Maximal SCC-cycles:                    1000
Initial charges:             Set automatically (system chrg:   0.100E+01)
Included shells:             C:  s, p
                             N:  s, p
                             H:  s
Spin coupling constants:     C   1(s)-1(s):  -0.455900E-01
                             C   1(s)-2(p):  -0.293000E-01
                             C   2(p)-1(s):  -0.293000E-01
                             C   2(p)-2(p):  -0.275500E-01
                             N   1(s)-1(s):  -0.468700E-01
                             N   1(s)-2(p):  -0.317000E-01
                             N   2(p)-1(s):  -0.317000E-01
                             N   2(p)-2(p):  -0.307200E-01
                             H   1(s)-1(s):  -0.792500E-01
Range separated hybrid:      Yes
  Screening parameter omega:   0.300000E+00
  Range separated algorithm:   MatrixBased
Extra options:
                             Mulliken analysis
                             Force calculation
Force type                   original
                             Eigenvector printing


REKS Calcuation:             Yes
SSR(2,2) Calcuation:         Yes
Energy Functional:           (PPS+OSS)/2
Number of Core Orbitals:                  5
Number of Active Orbitals:                2
Number of Basis:                         12
Number of States:                         2
State-Averaging Weight:          0.500000
                                 0.500000
State of Interest:                        1
Initial Guess:               Diagonalize H0 matrix
Newton-Raphson for FON opt:  Yes
NR max. Iterations:                      50
Level Shifting:              Yes
Shift Value:                     0.300000
W Scale Factor:              C  =    3.200000
                             N  =    3.200000
                             H  =    3.200000
Transition Dipole:           No
Gradient of Microstate:      No
CP-REKS Solver:              Preconditioned Conjugate-Gradient
CG max. Iterations:                     100
CG Tolerance:                  0.100000E-07
Memory for A and Hxc:        Direct Updating Without Saving
Non-Adiabatic Coupling:      Yes

--------------------------------------------------------------------------------

***  Geometry step: 0

  iSCC       reks energy        Diff energy         x_a       SCC error   
    1       -6.2084390893       0.0000000000     0.987812    1.09395471
    2       -6.2179176273      -0.0094785380     0.995989    0.05306438
    3       -6.2206800920      -0.0027624647     0.998292    0.01842231
    4       -6.2217338822      -0.0010537902     0.999064    0.01292431
    5       -6.2221822591      -0.0004483770     0.999385    0.00884523
    6       -6.2224100988      -0.0002278397     0.999545    0.00657830
    7       -6.2225482742      -0.0001381754     0.999637    0.00541044
    8       -6.2226425784      -0.0000943041     0.999695    0.00450946
    9       -6.2227110590      -0.0000684807     0.999735    0.00379198
   10       -6.2227622322      -0.0000511732     0.999764    0.00321031
   11       -6.2228009342      -0.0000387020     0.999787    0.00273227
   12       -6.2228303272      -0.0000293930     0.999804    0.00237488
   13       -6.2228526631      -0.0000223359     0.999818    0.00209256
   14       -6.2228696182      -0.0000169551     0.999829    0.00183892
   15       -6.2228824659      -0.0000128477     0.999838    0.00161150
   16       -6.2228921818      -0.0000097158     0.999845    0.00140852
   17       -6.2228995144      -0.0000073326     0.999851    0.00122828
   18       -6.2229050377      -0.0000055233     0.999857    0.00106901
   19       -6.2229091908      -0.0000041531     0.999861    0.00092885
   20       -6.2229123086      -0.0000031178     0.999865    0.00080596
   21       -6.2229146459      -0.0000023373     0.999868    0.00069853
   22       -6.2229163957      -0.0000017499     0.999870    0.00060484
   23       -6.2229177044      -0.0000013087     0.999873    0.00052330
   24       -6.2229186821      -0.0000009777     0.999875    0.00045246
   25       -6.2229194120      -0.0000007299     0.999876    0.00039099
   26       -6.2229199564      -0.0000005444     0.999878    0.00033771
   27       -6.2229203622      -0.0000004058     0.999879    0.00029159
   28       -6.2229206646      -0.0000003023     0.999880    0.00025168
   29       -6.2229208897      -0.0000002251     0.999881    0.00021717
   30       -6.2229210573      -0.0000001676     0.999881    0.00018735
   31       -6.2229211819      -0.0000001247     0.999882    0.00016160
   32       -6.2229212747      -0.0000000927     0.999883    0.00013936
   33       -6.2229213436      -0.0000000690     0.999883    0.00012017
   34       -6.2229213949      -0.0000000513     0.999883    0.00010360
   35       -6.2229214330      -0.0000000381     0.999884    0.00008931
   36       -6.2229214613      -0.0000000283     0.999884    0.00007699
   37       -6.2229214824      -0.0000000210     0.999884    0.00006636
   38       -6.2229214980      -0.0000000156     0.999885    0.00005720
   39       -6.2229215096      -0.0000000116     0.999885    0.00004929
   40       -6.2229215182      -0.0000000086     0.999885    0.00004248
   41       -6.2229215247      -0.0000000064     0.999885    0.00003661
   42       -6.2229215294      -0.0000000048     0.999885    0.00003155
   43       -6.2229215329      -0.0000000035     0.999885    0.00002719
   44       -6.2229215356      -0.0000000026     0.999885    0.00002343
   45       -6.2229215375      -0.0000000019     0.999885    0.00002019
   46       -6.2229215390      -0.0000000014     0.999885    0.00001739
   47       -6.2229215400      -0.0000000011     0.999886    0.00001499
   48       -6.2229215408      -0.0000000008     0.999886    0.00001291
   49       -6.2229215414      -0.0000000006     0.999886    0.00001113
   50       -6.2229215419      -0.0000000004     0.999886    0.00000959
   51       -6.2229215422      -0.0000000003     0.999886    0.00000826
   52       -6.2229215424      -0.0000000002     0.999886    0.00000712
   53       -6.2229215426      -0.0000000002     0.999886    0.00000613
   54       -6.2229215427      -0.0000000001     0.999886    0.00000528
   55       -6.2229215428      -0.0000000001     0.999886    0.00000455
   56       -6.2229215429      -0.0000000001     0.999886    0.00000392
   57       -6.2229215430      -0.0000000001     0.999886    0.00000338
   58       -6.2229215430      -0.0000000000     0.999886    0.00000291
   59       -6.2229215430      -0.0000000000     0.999886    0.00000251
   60       -6.2229215431      -0.0000000000     0.999886    0.00000216
   61       -6.2229215431      -0.0000000000     0.999886    0.00000186
   62       -6.2229215431      -0.0000000000     0.999886    0.00000160
   63       -6.2229215431      -0.0000000000     0.999886    0.00000138
   64       -6.2229215431      -0.0000000000     0.999886    0.00000119
   65       -6.2229215431      -0.0000000000     0.999886    0.00000103
   66       -6.2229215431      -0.0000000000     0.999886    0.00000088
  
--------------------------------------------------
 Final SA-REKS(2,2) energy:      -6.22292154
  
 State     Energy      FON(1)    FON(2)   Spin
  PPS   -6.28129709   1.999772  0.000228  0.00
  OSS   -6.16454600   1.000000  1.000000  0.00
 Trip   -6.21948140   1.000000  1.000000  1.00
--------------------------------------------------

 Lagrangian Wab:  -0.03314401 -0.03314434

--------------------------------------------------
 SSR: 2SI-2SA-REKS(2,2) Hamiltonian matrix
               PPS           OSS
   PPS    -6.28129709   -0.04636926
   OSS    -0.04636926   -6.16454600
--------------------------------------------------

----------------------------------------------------------------
 SSR: 2SI-2SA-REKS(2,2) states
                    E_n       C_{PPS}    C_{OSS}
 SSR state  1   -6.29747228  -0.944201  -0.329370
 SSR state  2   -6.14837080   0.329370  -0.944201
----------------------------------------------------------------

 unrelaxed SSR FONs for S0:  1.891312  0.108688

Total Energy:                       -6.2974722822 H         -171.3629 eV
Extrapolated to 0:                  -6.2974722822 H         -171.3629 eV

----------------------------------------------------------------------------------
 Solving CP-REKS equation for  1 state vector...
----------------------------------------------------------------------------------
  CG solver: Constructing Y initial guess
  CG solver: Iteration    1    eps =    0.010159199578
  CG solver: Iteration    2    eps =    0.000983977360
  CG solver: Iteration    3    eps =    0.000064671270
  CG solver: Iteration    4    eps =    0.000008148149
  CG solver: Iteration    5    eps =    0.000001319500
  CG solver: Iteration    6    eps =    0.000000116643
  CG solver: Iteration    7    eps =    0.000000004885
  Convergence reached in CG solver after    7 iterations
  CG solver: Calculating converged R, Z, Q2 matrix
----------------------------------------------------------------------------------

----------------------------------------------------------------------------------
 Solving CP-REKS equation for SI between  1 and  2 state vectors...
----------------------------------------------------------------------------------
  CG solver: Constructing Y initial guess
  CG solver: Iteration    1    eps =    0.017069929325
  CG solver: Iteration    2    eps =    0.007074092390
  CG solver: Iteration    3    eps =    0.000522106723
  CG solver: Iteration    4    eps =    0.000069508597
  CG solver: Iteration    5    eps =    0.000014506805
  CG solver: Iteration    6    eps =    0.000000943172
  CG solver: Iteration    7    eps =    0.000000012460
  CG solver: Iteration    8    eps =    0.000000000818
  Convergence reached in CG solver after    8 iterations
  CG solver: Calculating converged R, Z, Q2 matrix
----------------------------------------------------------------------------------

--------------------------------------------------
 Gradient Information
--------------------------------------------------
           1 st state (SSR)
    -0.06145679    -0.05823992     0.04900014
    -0.07653060     0.01684809    -0.06903817
     0.04181874     0.04249595    -0.00907254
     0.03405680    -0.02418490     0.03177564
     0.05776079     0.03172876     0.05979204
     0.00435105    -0.00864799    -0.06245711

           2 st state (SSR)
    -0.01071227    -0.05887415     0.13948768
    -0.06155488     0.05809624    -0.16822366
    -0.01086811     0.03124152     0.00852768
     0.04828056     0.00460466     0.00488645
     0.01172701    -0.02185922     0.07049172
     0.02312769    -0.01320906    -0.05516986
--------------------------------------------------
 Coupling Information
--------------------------------------------------
 between  1 and  2 states
--------------------------------------------------
 g vector - difference gradient
    -0.04583568     0.00198157    -0.10863156
     0.00627187    -0.00734573     0.10904662
     0.04131517     0.00432712    -0.00811176
    -0.02603410    -0.03021042     0.01668091
     0.04299361     0.02920078    -0.01245665
    -0.01871088     0.00204668     0.00347244

 h vector - derivative coupling
     0.01691125    -0.00198481     0.06401807
    -0.01993453    -0.02391087    -0.05754848
    -0.00965886     0.00359969    -0.00393635
     0.02134084     0.01488936     0.00061564
    -0.01712017     0.00631669     0.00708075
     0.00846147     0.00108994    -0.01022963

 G vector - GDV
    -0.02537226     0.00031711    -0.04524377
    -0.00748786    -0.02062408     0.04959274
     0.02634343     0.00562721    -0.00880011
    -0.00711188    -0.01439478     0.01344459
     0.02301689     0.02679399    -0.00534984
    -0.00938832     0.00228054    -0.00364362

 H vector - DCV - non-adiabatic coupling
     0.28001757    -0.01868977     0.78936224
    -0.13085286    -0.09492889    -0.75711757
    -0.22307293     0.00085362     0.01316612
     0.22067721     0.20421785    -0.06635191
    -0.26925893    -0.08863904     0.08914912
     0.12248995    -0.00281377    -0.06820799
--------------------------------------------------


--------------------------------------------------------------------------------
DFTB+ running times                          cpu [s]             wall clock [s]
--------------------------------------------------------------------------------
SCC                                    +     0.03  ( 70.9%)      0.03  ( 62.5%)
Post-SCC processing                    +     0.01  ( 26.2%)      0.01  ( 25.0%)
  Force calculation                          0.01  ( 25.8%)      0.01  ( 20.8%)
--------------------------------------------------------------------------------
Missing                                +     0.00  (  2.9%)      0.01  ( 12.5%)
Total                                  =     0.04  (100.0%)      0.05  (100.0%)
--------------------------------------------------------------------------------
