 Fermi distribution function

Calculation with static geometry


********************************************************************************
 iSCC Total electronic   Diff electronic      SCC error    
   13   -0.52941451E+01   -0.41350035E-10    0.39351271E-06
********************************************************************************

 Total charge:     1.00000000

 Atomic gross charges (e)
 Atom           Charge
    1       0.32893977
    2      -0.21873986
    3       0.17788873
    4       0.28422084
    5       0.25974175
    6       0.16794878

Nr. of electrons (up):     12.00000000
Atom populations (up)
 Atom       Population
    1       3.67106023
    2       5.21873986
    3       0.82211127
    4       0.71577916
    5       0.74025825
    6       0.83205122

l-shell populations (up)
 Atom Sh.   l       Population
    1   1   0       1.37865742
    1   2   1       2.29240281
    2   1   0       1.49803977
    2   2   1       3.72070009
    3   1   0       0.82211127
    4   1   0       0.71577916
    5   1   0       0.74025825
    6   1   0       0.83205122

Orbital populations (up)
 Atom Sh.   l   m       Population  Label
    1   1   0   0       1.37865742  s
    1   2   1  -1       0.44523952  p_y
    1   2   1   0       0.88035430  p_z
    1   2   1   1       0.96680899  p_x
    2   1   0   0       1.49803977  s
    2   2   1  -1       1.31536625  p_y
    2   2   1   0       1.10048245  p_z
    2   2   1   1       1.30485139  p_x
    3   1   0   0       0.82211127  s
    4   1   0   0       0.71577916  s
    5   1   0   0       0.74025825  s
    6   1   0   0       0.83205122  s

Fermi level:                        -0.5078833395 H          -13.8202 eV
Band energy:                        -8.6964194305 H         -236.6416 eV
TS:                                  0.0000000000 H            0.0000 eV
Band free energy (E-TS):            -8.6964194305 H         -236.6416 eV
Extrapolated E(0K):                 -8.6964194305 H         -236.6416 eV
Input / Output electrons (q):     12.0000000000     12.0000000000

Energy H0:                          -5.4301610408 H         -147.7622 eV
Energy SCC:                          0.1360159590 H            3.7012 eV
Total Electronic energy:            -5.2941450819 H         -144.0610 eV
Repulsive energy:                    0.1438195771 H            3.9135 eV
Total energy:                       -5.1503255048 H         -140.1475 eV
Extrapolated to 0:                  -5.1503255048 H         -140.1475 eV
Total Mermin free energy:           -5.1503255048 H         -140.1475 eV
Force related energy:               -5.1503255048 H         -140.1475 eV

SCC converged

Excitation Energy:                   0.0887509076 H            2.4150 eV

Total Forces
    1     -0.006472808848     -0.009785759585      0.071915872934
    2      0.005941481748     -0.007984483115     -0.071114736562
    3     -0.000772446444      0.015947048655      0.001043536053
    4     -0.014734705368     -0.003095871394     -0.002472458338
    5      0.008829782156      0.014390828373      0.000133302726
    6      0.007208696758     -0.009471762935      0.000494483188

Maximal derivative component:        0.719159E-01 au


