     6
  Step:     0            Position(A)                                  Velocity(au)
C        -0.04063623     0.01986427     0.00181167    -0.00000821     0.00007624    -0.00007509
N        -0.04232754    -0.04814980     1.31394993    -0.00020902    -0.00002593     0.00000954
H         0.91868556    -0.05659546    -0.51592490     0.00030080    -0.00032733    -0.00034924
H         0.85568447    -0.15006478     1.85069532     0.00072280    -0.00001052     0.00082420
H        -0.93784314    -0.09757466     1.80435369     0.00162745     0.00007578    -0.00045206
H        -0.97704248     0.06685913    -0.52778176     0.00035145    -0.00028608     0.00073931
     6
  Step:     1            Position(A)                                  Velocity(au)
C        -0.04065864     0.02031468     0.00111499     0.00000084     0.00008842    -0.00017906
N        -0.04345408    -0.04829014     1.31425419    -0.00020048    -0.00002542     0.00010105
H         0.92038414    -0.05848833    -0.51789502     0.00031643    -0.00036438    -0.00036914
H         0.85946950    -0.15022018     1.85512854     0.00065019    -0.00004483     0.00078964
H        -0.92908358    -0.09727163     1.80203932     0.00155326     0.00003400    -0.00038269
H        -0.97536351     0.06518752    -0.52385685     0.00025613    -0.00032509     0.00069155
     6
  Step:     2            Position(A)                                  Velocity(au)
C        -0.04062704     0.02083141    -0.00014687     0.00001145     0.00010046    -0.00028136
N        -0.04452044    -0.04842789     1.31505527    -0.00018714    -0.00002496     0.00019078
H         0.92214677    -0.06058112    -0.51996257     0.00032448    -0.00040036    -0.00038518
H         0.86279637    -0.15055512     1.85933256     0.00055693    -0.00007627     0.00074154
H        -0.92085332    -0.09720271     1.80016773     0.00143410    -0.00000975    -0.00029006
H        -0.97424091     0.06330321    -0.52021747     0.00014872    -0.00036381     0.00063518
     6
  Step:     3            Position(A)                                  Velocity(au)
C        -0.04053340     0.02141347    -0.00196241     0.00002342     0.00011227    -0.00038111
N        -0.04550101    -0.04856318     1.31634091    -0.00016929    -0.00002450     0.00027784
H         0.92393318    -0.06286732    -0.52210806     0.00032543    -0.00043502    -0.00039795
H         0.86556104    -0.15105439     1.86323936     0.00044632    -0.00010504     0.00068210
H        -0.91339777    -0.09737823     1.79886674     0.00127090    -0.00005528    -0.00017445
H        -0.97373684     0.06120824    -0.51690944     0.00003086    -0.00040206     0.00057077
     6
  Step:     4            Position(A)                                  Velocity(au)
C        -0.04037092     0.02205945    -0.00431546     0.00003648     0.00012377    -0.00047742
N        -0.04637211    -0.04869588     1.31809421    -0.00014734    -0.00002399     0.00036136
H         0.92570634    -0.06533936    -0.52431528     0.00031994    -0.00046815    -0.00040798
H         0.86767816    -0.15170398     1.86679329     0.00032184    -0.00013135     0.00061353
H        -0.90695228    -0.09780738     1.79825964     0.00106647    -0.00010235    -0.00003734
H        -0.97390340     0.05890551    -0.51397443    -0.00009538    -0.00043965     0.00049923
     6
  Step:     5            Position(A)                                  Velocity(au)
C        -0.04013434     0.02276739    -0.00718512     0.00005033     0.00013483    -0.00056933
N        -0.04711284    -0.04882558     1.32029394    -0.00012189    -0.00002337     0.00044053
H         0.92743312    -0.06798853    -0.52657113     0.00030872    -0.00049948    -0.00041579
H         0.86908171    -0.15249125     1.86995103     0.00018713    -0.00015544     0.00053811
H        -0.90173127    -0.09849782     1.79845822     0.00082571    -0.00015058     0.00011841
H        -0.97478019     0.05639880    -0.51144818    -0.00022740    -0.00047635     0.00042178
     6
  Step:     6            Position(A)                                  Velocity(au)
C        -0.03982019     0.02353482    -0.01054547     0.00006460     0.00014533    -0.00065581
N        -0.04770592    -0.04895161     1.32291472    -0.00009369    -0.00002260     0.00051451
H         0.92908458    -0.07080498    -0.52886518     0.00029256    -0.00052874    -0.00042176
H         0.86972588    -0.15340495     1.87268161     0.00004608    -0.00017757     0.00045810
H        -0.89791681    -0.09945510     1.79955539     0.00055572    -0.00019948     0.00028857
H        -0.97639175     0.05369293    -0.50935899    -0.00036215    -0.00051191     0.00033992
     6
  Step:     7            Position(A)                                  Velocity(au)
C        -0.03942710     0.02435857    -0.01436525     0.00007886     0.00015513    -0.00073572
N        -0.04813856    -0.04907305     1.32592707    -0.00006364    -0.00002164     0.00058247
H         0.93063619    -0.07377744    -0.53118881     0.00027226    -0.00055557    -0.00042611
H         0.86958618    -0.15443536     1.87496658    -0.00009719    -0.00019797     0.00037587
H        -0.89564696    -0.10068183     1.80161762     0.00026572    -0.00024837     0.00046749
H        -0.97874520     0.05079412    -0.50772654    -0.00049611    -0.00054594     0.00025534
     6
  Step:     8            Position(A)                                  Velocity(au)
C        -0.03895604     0.02523473    -0.01860736     0.00009266     0.00016405    -0.00080785
N        -0.04840327    -0.04918873     1.32929739    -0.00003282    -0.00002044     0.00064358
H         0.93206799    -0.07689288    -0.53353447     0.00024875    -0.00057958    -0.00042905
H         0.86866085    -0.15557425     1.87680033    -0.00023820    -0.00021688     0.00029387
H        -0.89500505    -0.10217672     1.80467812    -0.00003319    -0.00029638     0.00064839
H        -0.98182806     0.04771056    -0.50656100    -0.00062538    -0.00057796     0.00016988
     6
  Step:     9            Position(A)                                  Velocity(au)
C        -0.03841055     0.02615841    -0.02322844     0.00010548     0.00017189    -0.00087094
N        -0.04849859    -0.04929729     1.33298791    -0.00000240    -0.00001898     0.00069696
H         0.93336529    -0.08013614    -0.53589605     0.00022302    -0.00060027    -0.00043078
H         0.86697276    -0.15681482     1.87819066    -0.00037216    -0.00023453     0.00021467
H        -0.89601108    -0.10393350     1.80873125    -0.00032859    -0.00034244     0.00082361
H        -0.98560642     0.04445311    -0.50586269    -0.00074580    -0.00060736     0.00008544
     6
  Step:    10            Position(A)                                  Velocity(au)
C        -0.03779686     0.02712373    -0.02817849     0.00023423     0.00035777    -0.00185186
N        -0.04842964    -0.04939726     1.33695659     0.00005287    -0.00003454     0.00148717
H         0.93451884    -0.08348951    -0.53826849     0.00039317    -0.00123728    -0.00086499
H         0.86457103    -0.15815164     1.87915940    -0.00099044    -0.00050350     0.00028258
H        -0.89861611    -0.10593990     1.81372912    -0.00121796    -0.00077251     0.00197521
H        -0.99002392     0.04103602    -0.50562206    -0.00171042    -0.00126990     0.00000777
     6
  Step:    11            Position(A)                                  Velocity(au)
C        -0.03648547     0.02908593    -0.03821272     0.00023336     0.00034347    -0.00173078
N        -0.04806259    -0.04958459     1.34504634     0.00007525    -0.00003218     0.00140083
H         0.93686805    -0.09032372    -0.54335095     0.00044442    -0.00120601    -0.00094900
H         0.85885663    -0.16085114     1.88057515    -0.00103629    -0.00046301     0.00023251
H        -0.90606589    -0.11023912     1.82506255    -0.00141582    -0.00076229     0.00205673
H        -0.99993580     0.03409046    -0.50613837    -0.00181867    -0.00121431    -0.00018250
     6
  Step:    12            Position(A)                                  Velocity(au)
C        -0.03518382     0.03096973    -0.04755868     0.00022625     0.00032337    -0.00157597
N        -0.04758707    -0.04975764     1.35264213     0.00008971    -0.00002892     0.00128620
H         0.93949520    -0.09699366    -0.54889475     0.00048182    -0.00115553    -0.00100917
H         0.85296730    -0.16333608     1.88176285    -0.00103215    -0.00041870     0.00019728
H        -0.91446950    -0.11447548     1.83675903    -0.00152731    -0.00073522     0.00206367
H        -1.01038816     0.02743899    -0.50766563    -0.00186491    -0.00114188    -0.00034598
     6
  Step:    13            Position(A)                                  Velocity(au)
C        -0.03392651     0.03274335    -0.05603770     0.00010695     0.00014957    -0.00070001
N        -0.04704793    -0.04991172     1.35959392     0.00004808    -0.00001254     0.00057657
H         0.94231770    -0.10339331    -0.55476515     0.00025183    -0.00054530    -0.00052267
H         0.84718252    -0.16558683     1.88280652    -0.00049121    -0.00018674     0.00008891
H        -0.92334053    -0.11855479     1.84840360    -0.00077735    -0.00034710     0.00100177
H        -1.02102881     0.02117523    -0.51005156    -0.00092581    -0.00052890    -0.00023885
     6
  Step:    14            Position(A)                                  Velocity(au)
C        -0.03332867     0.03357881    -0.05996344     0.00010399     0.00014588    -0.00068746
N        -0.04675232    -0.04997232     1.36283091     0.00005485    -0.00000893     0.00056743
H         0.94361402    -0.10643155    -0.55764551     0.00020728    -0.00052949    -0.00049657
H         0.84440009    -0.16668755     1.88324637    -0.00048560    -0.00020299     0.00007148
H        -0.92793705    -0.12054968     1.85408892    -0.00083367    -0.00035707     0.00100131
H        -1.02617789     0.01819564    -0.51149944    -0.00088936    -0.00052477    -0.00026954
     6
  Step:    15            Position(A)                                  Velocity(au)
C        -0.03275043     0.03439322    -0.06381264     0.00010090     0.00014332    -0.00067873
N        -0.04642759    -0.05001267     1.36601129     0.00005895    -0.00000543     0.00056136
H         0.94466196    -0.10938159    -0.56038112     0.00016566    -0.00051845    -0.00047556
H         0.84169058    -0.16788255     1.88361493    -0.00046970    -0.00022196     0.00006398
H        -0.93276900    -0.12259308     1.85972806    -0.00086861    -0.00036735     0.00099419
H        -1.03108713     0.01524029    -0.51309994    -0.00084878    -0.00052467    -0.00029566
     6
  Step:    16            Position(A)                                  Velocity(au)
C        -0.03219246     0.03519278    -0.06760668     0.00009767     0.00014184    -0.00067379
N        -0.04608851    -0.05003343     1.36915242     0.00006056    -0.00000198     0.00055841
H         0.94547953    -0.11226985    -0.56300076     0.00012681    -0.00051198    -0.00045944
H         0.83911074    -0.16918705     1.88396686    -0.00044382    -0.00024399     0.00006584
H        -0.93771849    -0.12468647     1.86528447    -0.00088396    -0.00037814     0.00098094
H        -1.03573600     0.01228730    -0.51482885    -0.00080452    -0.00052847    -0.00031823
     6
  Step:    17            Position(A)                                  Velocity(au)
C        -0.03165538     0.03598340    -0.07136669     0.00009420     0.00014121    -0.00067176
N        -0.04574858    -0.05003491     1.37227174     0.00005981     0.00000146     0.00055789
H         0.94608368    -0.11512157    -0.56553204     0.00009044    -0.00050928    -0.00044750
H         0.83671478    -0.17061802     1.88435311    -0.00040774    -0.00026910     0.00007645
H        -0.94267927    -0.12683245     1.87072558    -0.00088032    -0.00038912     0.00096093
H        -1.04010684     0.00931547    -0.51666770    -0.00075597    -0.00053542    -0.00033774
     6
  Step:    18            Position(A)                                  Velocity(au)
C        -0.03114046     0.03676977    -0.07510891     0.00009031     0.00014116    -0.00067147
N        -0.04542053    -0.05001712     1.37538290     0.00005678     0.00000495     0.00055886
H         0.94648954    -0.11795755    -0.56799850     0.00005633    -0.00050939    -0.00043890
H         0.83455707    -0.17219235     1.88482068    -0.00036132    -0.00029705     0.00009511
H        -0.94754992    -0.12903213     1.87601615    -0.00085789    -0.00039980     0.00093322
H        -1.04417872     0.00630768    -0.51860068    -0.00070225    -0.00054456    -0.00035432
     6
  Step:    19            Position(A)                                  Velocity(au)
C        -0.03064980     0.03755514    -0.07884315     0.00008589     0.00014145    -0.00067184
N        -0.04511641    -0.04997984     1.37849438     0.00005158     0.00000849     0.00056047
H         0.94671092    -0.12079332    -0.57041900     0.00002445    -0.00051142    -0.00043291
H         0.83269170    -0.17392555     1.88541210    -0.00030486    -0.00032750     0.00012096
H        -0.95223147    -0.13128399     1.88111650    -0.00081713    -0.00040969     0.00089717
H        -1.04792605     0.00325207    -0.52061283    -0.00064277    -0.00055497    -0.00036801
     6
  Step:    20            Position(A)                                  Velocity(au)
C        -0.03018614     0.03834138    -0.08257330     0.00008087     0.00014189    -0.00067201
N        -0.04484743    -0.04992277     1.38160991     0.00004442     0.00001211     0.00056201
H         0.94676121    -0.12363960    -0.57280833    -0.00000512    -0.00051468    -0.00042898
H         0.83116991    -0.17583104     1.88616454    -0.00023931    -0.00036003     0.00015293
H        -0.95662858    -0.13358399     1.88598406    -0.00075901    -0.00041843     0.00085266
H        -1.05132021     0.00014173    -0.52268943    -0.00057743    -0.00056590    -0.00037888
     6
  Step:    21            Position(A)                                  Velocity(au)
C        -0.02975260     0.03912933    -0.08629850     0.00007522     0.00014234    -0.00067137
N        -0.04462365    -0.04984554     1.38472945     0.00003553     0.00001578     0.00056302
H         0.94665411    -0.12650328    -0.57517818    -0.00003223    -0.00051867    -0.00042672
H         0.83003676    -0.17791973     1.88710874    -0.00016619    -0.00039417     0.00018977
H        -0.96065206    -0.13592612     1.89057601    -0.00068511    -0.00042578     0.00080011
H        -1.05433217    -0.00302614    -0.52481613    -0.00050658    -0.00057679    -0.00038705
     6
  Step:    22            Position(A)                                  Velocity(au)
C        -0.02935238     0.03991903    -0.09001456     0.00006897     0.00014269    -0.00066950
N        -0.04445360    -0.04974786     1.38785029     0.00002525     0.00001950     0.00056317
H         0.94640395    -0.12938843    -0.57753801    -0.00005672    -0.00052302    -0.00042586
H         0.82932788    -0.18019988     1.88826792    -0.00008755    -0.00042944     0.00023003
H        -0.96422214    -0.13830322     1.89485224    -0.00059751    -0.00043164     0.00074038
H        -1.05693498    -0.00625128    -0.52697938    -0.00043092    -0.00058723    -0.00039274
     6
  Step:    23            Position(A)                                  Velocity(au)
C        -0.02898852     0.04070999    -0.09371505     0.00006218     0.00014288    -0.00066618
N        -0.04434398    -0.04962949     1.39096808     0.00001392     0.00002326     0.00056230
H         0.94602578    -0.13229711    -0.57989567    -0.00007844    -0.00052747    -0.00042618
H         0.82906686    -0.18267691     1.88965689    -0.00000583    -0.00046534     0.00027211
H        -0.96727111    -0.14070767     1.89877764    -0.00049874    -0.00043602     0.00067466
H        -1.05910571    -0.00953129    -0.52916683    -0.00035142    -0.00059695    -0.00039626
     6
  Step:    24            Position(A)                                  Velocity(au)
C        -0.02866374     0.04150140    -0.09739217     0.00005493     0.00014288    -0.00066125
N        -0.04429941    -0.04949032     1.39407747     0.00000196     0.00002702     0.00056031
H         0.94553525    -0.13522997    -0.58225779    -0.00009730    -0.00053185    -0.00042754
H         0.82926336    -0.18535333     1.89128146     0.00007633    -0.00050135     0.00031438
H        -0.96974542    -0.14313199     1.90232379    -0.00039154    -0.00043903     0.00060437
H        -1.06082680    -0.01286225    -0.53136775    -0.00026922    -0.00060577    -0.00039792
     6
  Step:    25            Position(A)                                  Velocity(au)
C        -0.02838027     0.04229220    -0.10103745     0.00004732     0.00014266    -0.00065468
N        -0.04432230    -0.04933033     1.39717267    -0.00001024     0.00003076     0.00055719
H         0.94494835    -0.13818661    -0.58463005    -0.00011325    -0.00053602    -0.00042978
H         0.82991214    -0.18822867     1.89313818     0.00015617    -0.00053695     0.00035517
H        -0.97160691    -0.14556934     1.90547013    -0.00027886    -0.00044084     0.00053104
H        -1.06208694    -0.01623934    -0.53357324    -0.00018555    -0.00061360    -0.00039811
     6
  Step:    26            Position(A)                                  Velocity(au)
C        -0.02813976     0.04308122    -0.10464215     0.00003946     0.00014221    -0.00064648
N        -0.04441281    -0.04914967     1.40024781    -0.00002227     0.00003447     0.00055298
H         0.94428107    -0.14116590    -0.58701723    -0.00012634    -0.00053988    -0.00043278
H         0.83099282    -0.19129952     1.89521461     0.00023101    -0.00057161     0.00039291
H        -0.97283354    -0.14801389     1.90820454    -0.00016366    -0.00044166     0.00045626
H        -1.06288159    -0.01965725    -0.53577641    -0.00010168    -0.00062039    -0.00039720
     6
  Step:    27            Position(A)                                  Velocity(au)
C        -0.02794328     0.04386724    -0.10819762     0.00003147     0.00014153    -0.00063672
N        -0.04456894    -0.04894858     1.40329717    -0.00003374     0.00003812     0.00054772
H         0.94354909    -0.14416612    -0.58942329    -0.00013664    -0.00054336    -0.00043638
H         0.83247066    -0.19455958     1.89748984     0.00029835    -0.00060486     0.00042616
H        -0.97341949    -0.15046101     1.91052351    -0.00004887    -0.00044176     0.00038163
H        -1.06321315    -0.02311048    -0.53797248    -0.00001890    -0.00062616    -0.00039560
     6
  Step:    28            Position(A)                                  Velocity(au)
C        -0.02779119     0.04464902    -0.11169551     0.00002347     0.00014062    -0.00062547
N        -0.04478658    -0.04872743     1.40631531    -0.00004430     0.00004169     0.00054150
H         0.94276738    -0.14718509    -0.59185133    -0.00014432    -0.00054639    -0.00044045
H         0.83429785    -0.19799992     1.89993552     0.00035603    -0.00063623     0.00045370
H        -0.97337488    -0.15290758     1.91243216     0.00006266    -0.00044142     0.00030869
H        -1.06309094    -0.02659361    -0.54015875     0.00006156    -0.00063095    -0.00039368
     6
  Step:    29            Position(A)                                  Velocity(au)
C        -0.02768320     0.04542537    -0.11512799     0.00001560     0.00013951    -0.00061285
N        -0.04505979    -0.04848667     1.40929713    -0.00005363     0.00004517     0.00053439
H         0.94194994    -0.15022022    -0.59430356    -0.00014959    -0.00054890    -0.00044482
H         0.83641551    -0.20160920     1.90251700     0.00040226    -0.00066535     0.00047454
H        -0.97272517    -0.15535203     1.91394389     0.00016824    -0.00044093     0.00023891
H        -1.06253102    -0.03010158    -0.54233459     0.00013851    -0.00063486    -0.00039182
     6
  Step:    30            Position(A)                                  Velocity(au)
C        -0.02761832     0.04619517    -0.11848781     0.00000796     0.00013819    -0.00059900
N        -0.04538096    -0.04822682     1.41223793    -0.00006146     0.00004855     0.00052646
H         0.94110948    -0.15326856    -0.59678128    -0.00015269    -0.00055084    -0.00044934
H         0.83875610    -0.20537408     1.90519484     0.00043574    -0.00069191     0.00048796
H        -0.97151029    -0.15779447     1.91507997     0.00026536    -0.00044063     0.00017365
H        -1.06155583    -0.03362981    -0.54450134     0.00021083    -0.00063800    -0.00039037
     6
  Step:    31            Position(A)                                  Velocity(au)
C        -0.02759492     0.04695735    -0.12176847     0.00000069     0.00013670    -0.00058406
N        -0.04574115    -0.04794843     1.41513339    -0.00006758     0.00005183     0.00051780
H         0.94025720    -0.15632682    -0.59928491    -0.00015393    -0.00055217    -0.00045386
H         0.84124607    -0.20927969     1.90792644     0.00045565    -0.00071570     0.00049355
H        -0.96978347    -0.16023675     1.91586894     0.00035175    -0.00044080     0.00011416
H        -1.06019373    -0.03717441    -0.54666221     0.00027753    -0.00064052    -0.00038966
     6
  Step:    32            Position(A)                                  Velocity(au)
C        -0.02761072     0.04771098    -0.12496424    -0.00000612     0.00013505    -0.00056818
N        -0.04613036    -0.04765208     1.41797959    -0.00007183     0.00005501     0.00050847
H         0.93940263    -0.15939136    -0.60181402    -0.00015361    -0.00055281    -0.00045824
H         0.84380864    -0.21331018     1.91066765     0.00046167    -0.00073659     0.00049118
H        -0.96760982    -0.16268238     1.91634584     0.00042546    -0.00044177     0.00006152
H        -1.05847840    -0.04073236    -0.54882210     0.00033770    -0.00064261    -0.00038997
     6
  Step:    33            Position(A)                                  Velocity(au)
C        -0.02766286     0.04845522    -0.12807022    -0.00001237     0.00013327    -0.00055150
N        -0.04653786    -0.04733826     1.42077296    -0.00007412     0.00005811     0.00049854
H         0.93855346    -0.16245817    -0.60436736    -0.00015208    -0.00055271    -0.00046234
H         0.84636658    -0.21744932     1.91337421     0.00045397    -0.00075459     0.00048097
H        -0.96506459    -0.16513650     1.91655130     0.00048485    -0.00044380     0.00001664
H        -1.05644823    -0.04430167    -0.55098740     0.00039058    -0.00064446    -0.00039156
     6
  Step:    34            Position(A)                                  Velocity(au)
C        -0.02774791     0.04918938    -0.13108220    -0.00002476     0.00018122    -0.00073680
N        -0.04695255    -0.04700744     1.42351013    -0.00010262     0.00008433     0.00067321
H         0.93771554    -0.16552282    -0.60694296    -0.00020646    -0.00076114    -0.00064288
H         0.84884472    -0.22168114     1.91600324     0.00059747    -0.00106191     0.00063905
H        -0.96223119    -0.16760562     1.91653049     0.00072925    -0.00061676    -0.00002727
H        -1.05414554    -0.04788159    -0.55316582     0.00060079    -0.00089156    -0.00054438
     6
  Step:    35            Position(A)                                  Velocity(au)
C        -0.02788976     0.05018950    -0.13488358    -0.00002591     0.00017884    -0.00063257
N        -0.04752004    -0.04653920     1.42704356    -0.00010025     0.00008416     0.00059929
H         0.93679203    -0.16984483    -0.61080688    -0.00012756    -0.00079452    -0.00074509
H         0.85212054    -0.22745599     1.91953971     0.00057320    -0.00101492     0.00062872
H        -0.95812465    -0.17098995     1.91634601     0.00073788    -0.00060308    -0.00003356
H        -1.05102786    -0.05282488    -0.55645831     0.00051846    -0.00088804    -0.00064023
     6
  Step:    36            Position(A)                                  Velocity(au)
C        -0.02803596     0.05117719    -0.13811346    -0.00002631     0.00017646    -0.00053055
N        -0.04806689    -0.04607196     1.43017141    -0.00009511     0.00008385     0.00052657
H         0.93629769    -0.17435419    -0.61522482    -0.00005325    -0.00082711    -0.00084033
H         0.85521600    -0.23296227     1.92299170     0.00053231    -0.00096381     0.00060808
H        -0.95402948    -0.17430905     1.91615751     0.00072460    -0.00059254    -0.00002910
H        -1.04838275    -0.05775241    -0.56028215     0.00043157    -0.00088443    -0.00073401
     6
  Step:    37            Position(A)                                  Velocity(au)
C        -0.02818239     0.05215230    -0.14078492    -0.00002602     0.00017417    -0.00043167
N        -0.04857798    -0.04560656     1.43290064    -0.00008744     0.00008344     0.00045574
H         0.93619969    -0.17904490    -0.62015397     0.00001383    -0.00085895    -0.00092770
H         0.85804143    -0.23817659     1.92630347     0.00047652    -0.00090933     0.00057836
H        -0.95006489    -0.17758079     1.91602236     0.00069126    -0.00058571    -0.00001494
H        -1.04622742    -0.06266250    -0.56462281     0.00034358    -0.00088098    -0.00082505
     6
  Step:    38            Position(A)                                  Velocity(au)
C        -0.02832552     0.05311509    -0.14291645    -0.00002517     0.00017200    -0.00033657
N        -0.04903975    -0.04514355     1.43524221    -0.00007751     0.00008299     0.00038726
H         0.93645153    -0.18391127    -0.62554689     0.00007159    -0.00089001    -0.00100654
H         0.86051797    -0.24307992     1.92942681     0.00040778    -0.00085208     0.00054085
H        -0.94633817    -0.18082595     1.91599131     0.00064015    -0.00058293     0.00000761
H        -1.04455992    -0.06755458    -0.56946199     0.00025761    -0.00087774    -0.00091273
     6
  Step:    39            Position(A)                                  Velocity(au)
C        -0.02846248     0.05406599    -0.14452972    -0.00002386     0.00016994    -0.00024554
N        -0.04944041    -0.04468323     1.43720934    -0.00006567     0.00008251     0.00032130
H         0.93699626    -0.18894735    -0.63135297     0.00011847    -0.00092007    -0.00107639
H         0.86257847    -0.24765705     1.93232107     0.00032813    -0.00079269     0.00049677
H        -0.94294237    -0.18406663     1.91610705     0.00057393    -0.00058413     0.00003706
H        -1.04336121    -0.07242846    -0.57477803     0.00017638    -0.00087477    -0.00099646
     6
  Step:    40            Position(A)                                  Velocity(au)
C        -0.02859096     0.05500542    -0.14564768    -0.00002217     0.00016797    -0.00015859
N        -0.04977019    -0.04422575     1.43881613    -0.00005229     0.00008203     0.00025786
H         0.93776927    -0.19414550    -0.63751992     0.00015330    -0.00094852    -0.00113709
H         0.86416790    -0.25189729     1.93495251     0.00023971    -0.00073207     0.00044718
H        -0.93995411    -0.18732337     1.91640353     0.00049561    -0.00058860     0.00007186
H        -1.04259793    -0.07728490    -0.58054594     0.00010211    -0.00087237    -0.00107558
     6
  Step:    41            Position(A)                                  Velocity(au)
C        -0.02870893     0.05593364    -0.14629298    -0.00002010     0.00016605    -0.00007552
N        -0.05002174    -0.04377115     1.44007640    -0.00003781     0.00008156     0.00019678
H         0.93870078    -0.19949353    -0.64399577     0.00017536    -0.00097431    -0.00118874
H         0.86524367    -0.25579665     1.93729310     0.00014468    -0.00067146     0.00039296
H        -0.93743192    -0.19061102     1.91690604     0.00040846    -0.00059501     0.00011048
H        -1.04222594    -0.08212800    -0.58673696     0.00003640    -0.00087122    -0.00114931
     6
  Step:    42            Position(A)                                  Velocity(au)
C        -0.02881433     0.05685071    -0.14648693    -0.00001769     0.00016411     0.00000392
N        -0.05019032    -0.04331943     1.44100291    -0.00002268     0.00008107     0.00013783
H         0.93971797    -0.20497287    -0.65073020     0.00018422    -0.00099639    -0.00123149
H         0.86577573    -0.25935913     1.93931942     0.00004523    -0.00061202     0.00033491
H        -0.93541498    -0.19393561     1.91763127     0.00031593    -0.00060186     0.00015128
H        -1.04219340    -0.08696670    -0.59331808    -0.00001943    -0.00087189    -0.00121683
     6
  Step:    43            Position(A)                                  Velocity(au)
C        -0.02890535     0.05775636    -0.14624942    -0.00001499     0.00016208     0.00007996
N        -0.05027367    -0.04287067     1.44160729    -0.00000733     0.00008057     0.00008085
H         0.94074693    -0.21056030    -0.65767377     0.00017984    -0.00101418    -0.00126530
H         0.86574607    -0.26259424     1.94101289    -0.00005654    -0.00055434     0.00027396
H        -0.93392295    -0.19729581     1.91858632     0.00022147    -0.00060812     0.00019243
H        -1.04244177    -0.09181192    -0.60025206    -0.00006420    -0.00087428    -0.00127735
     6
  Step:    44            Position(A)                                  Velocity(au)
C        -0.02898078     0.05864994    -0.14559935    -0.00001215     0.00015988     0.00015271
N        -0.05027171    -0.04242507     1.44190042     0.00000787     0.00008000     0.00002571
H         0.94171436    -0.21623126    -0.66477633     0.00016243    -0.00102752    -0.00128991
H         0.86514811    -0.26551292     1.94236061    -0.00015858    -0.00049851     0.00021115
H        -0.93295648    -0.20068635     1.91976740     0.00012842    -0.00061318     0.00023189
H        -1.04290608    -0.09667205    -0.60749799    -0.00009683    -0.00087769    -0.00133019
     6