     6
  Step:     0            Position(A)                                  Velocity(au)
C        -0.03708417     0.00358292     0.00270437    -0.00007175     0.00007266    -0.00026464
N        -0.05294908    -0.05943802     1.31344320     0.00022547    -0.00005217     0.00022688
H         0.93387238     0.06638432    -0.51006069    -0.00008353    -0.00037870     0.00051330
H         0.90410407    -0.07888852     1.80435948    -0.00155936     0.00027767    -0.00070102
H        -0.91062818     0.01186617     1.82791463    -0.00086755     0.00004391     0.00043235
H        -0.96258936     0.11413794    -0.51446682     0.00023219    -0.00008377    -0.00024393
     6
  Step:     1            Position(A)                                  Velocity(au)
C        -0.03745138     0.00397745     0.00121596    -0.00006283     0.00007154    -0.00027818
N        -0.05166137    -0.05973223     1.31474514     0.00024315    -0.00005526     0.00024808
H         0.93351829     0.06435065    -0.50747448    -0.00004201    -0.00036490     0.00042994
H         0.89511487    -0.07735978     1.80046626    -0.00170919     0.00028096    -0.00071218
H        -0.91565734     0.01215464     1.83062334    -0.00095782     0.00006038     0.00054907
H        -0.96173573     0.11374147    -0.51622454     0.00007880    -0.00006110    -0.00039950
     6
  Step:     2            Position(A)                                  Velocity(au)
C        -0.03777148     0.00436560    -0.00033883    -0.00005463     0.00007031    -0.00028880
N        -0.05028911    -0.06004255     1.31615720     0.00025595    -0.00005801     0.00026686
H         0.93341278     0.06239244    -0.50535723     0.00000677    -0.00035095     0.00034199
H         0.88540590    -0.07581483     1.79656838    -0.00181855     0.00028344    -0.00070084
H        -0.92110651     0.01252671     1.83392139    -0.00101942     0.00007434     0.00064672
H        -0.96172730     0.11346948    -0.51883731    -0.00007456    -0.00003850    -0.00055485
     6
  Step:     3            Position(A)                                  Velocity(au)
C        -0.03804919     0.00474684    -0.00194449    -0.00004741     0.00006898    -0.00029661
N        -0.04886050    -0.06036708     1.31766548     0.00026329    -0.00006040     0.00028289
H         0.93359232     0.06051017    -0.50373195     0.00006141    -0.00033690     0.00025034
H         0.87521401    -0.07425807     1.79279679    -0.00188140     0.00028507    -0.00066410
H        -0.92681315     0.01296819     1.83770055    -0.00105056     0.00008564     0.00072399
H        -0.96255168     0.11332016    -0.52229638    -0.00022322    -0.00001651    -0.00070687
     6
  Step:     4            Position(A)                                  Velocity(au)
C        -0.03829053     0.00512079    -0.00358611    -0.00004139     0.00006759    -0.00030173
N        -0.04740665    -0.06070378     1.31925425     0.00026473    -0.00006240     0.00029584
H         0.93408506     0.05870408    -0.50261654     0.00012025    -0.00032283     0.00015603
H         0.86480821    -0.07269391     1.78929780    -0.00189254     0.00028590    -0.00059954
H        -0.93260812     0.01346429     1.84184763    -0.00105071     0.00009421     0.00078038
H        -0.96417111     0.11328875    -0.52657612    -0.00036262     0.00000434    -0.00085251
     6
  Step:     5            Position(A)                                  Velocity(au)
C        -0.03850258     0.00548723    -0.00524958    -0.00003673     0.00006618    -0.00030435
N        -0.04596066    -0.06105057     1.32090606     0.00026005    -0.00006401     0.00030546
H         0.93490950     0.05697396    -0.50202284     0.00018143    -0.00030885     0.00006027
H         0.85448337    -0.07112633     1.78622956    -0.00184826     0.00028608    -0.00050552
H        -0.93832250     0.01400011     1.84624867    -0.00102057     0.00010008     0.00081615
H        -0.96652377     0.11336766    -0.53163462    -0.00048862     0.00002355    -0.00098895
     6
  Step:     6            Position(A)                                  Velocity(au)
C        -0.03869313     0.00584616    -0.00692187    -0.00003354     0.00006479    -0.00030471
N        -0.04455649    -0.06140537     1.32260213     0.00024921    -0.00006526     0.00031157
H         0.93607352     0.05531900    -0.50195593     0.00024294    -0.00029510    -0.00003564
H         0.84455100    -0.06955841     1.78375726    -0.00174690     0.00028581    -0.00038147
H        -0.94379374     0.01456116     1.85079280    -0.00096185     0.00010337     0.00083224
H        -0.96952643     0.11354685    -0.53741518    -0.00059770     0.00004072    -0.00111376
     6
  Step:     7            Position(A)                                  Velocity(au)
C        -0.03887037     0.00619775    -0.00859124    -0.00003080     0.00006690    -0.00035939
N        -0.04322767    -0.06176624     1.32432289     0.00023248    -0.00006920     0.00035860
H         0.93757376     0.05373768    -0.50241374     0.00026191    -0.00023810    -0.00008634
H         0.83532588    -0.06799196     1.78204616    -0.00161576     0.00024085    -0.00024310
H        -0.94887067     0.01513370     1.85537545    -0.00085192     0.00015585     0.00081426
H        -0.97307846     0.11381423    -0.54384875    -0.00065777     0.00000585    -0.00118539
     6
  Step:     8            Position(A)                                  Velocity(au)
C        -0.03903113     0.00658027    -0.01086554    -0.00002798     0.00007253    -0.00047081
N        -0.04200551    -0.06216475     1.32653704     0.00020980    -0.00007591     0.00044867
H         0.93894743     0.05270627    -0.50290336     0.00023507    -0.00015742    -0.00009208
H         0.82682110    -0.06691555     1.78108969    -0.00145752     0.00017275    -0.00009540
H        -0.95314189     0.01627130     1.85972771    -0.00069243     0.00023690     0.00076246
H        -0.97674416     0.11361109    -0.55042254    -0.00066718    -0.00006163    -0.00119963
     6
  Step:     9            Position(A)                                  Velocity(au)
C        -0.03917766     0.00699420    -0.01376113    -0.00002577     0.00007807    -0.00058129
N        -0.04092386    -0.06259983     1.32924966     0.00018145    -0.00008228     0.00053625
H         0.94015502     0.05200903    -0.50342489     0.00020347    -0.00010340    -0.00009820
H         0.81932114    -0.06609499     1.78099862    -0.00124813     0.00013361     0.00007303
H        -0.95647414     0.01773503     1.86374795    -0.00051287     0.00028754     0.00069564
H        -0.98040462     0.11313747    -0.55702170    -0.00065689    -0.00010474    -0.00119566
     6
  Step:    10            Position(A)                                  Velocity(au)
C        -0.03931431     0.00743835    -0.01725439    -0.00002435     0.00008329    -0.00068576
N        -0.04001127    -0.06306905     1.33243084     0.00014840    -0.00008811     0.00061699
H         0.94118377     0.05156978    -0.50398264     0.00017054    -0.00006038    -0.00010533
H         0.81310305    -0.06544703     1.78189233    -0.00099200     0.00010648     0.00026095
H        -0.95877880     0.01943166     1.86737341    -0.00032054     0.00032425     0.00061927
H        -0.98396395     0.11245990    -0.56356382    -0.00063010    -0.00013839    -0.00117732
     6
  Step:    11            Position(A)                                  Velocity(au)
C        -0.03944558     0.00791068    -0.02130704    -0.00002372     0.00008803    -0.00078176
N        -0.03929090    -0.06356942     1.33603893     0.00011180    -0.00009332     0.00068906
H         0.94203165     0.05134462    -0.50458387     0.00013801    -0.00002404    -0.00011393
H         0.80840540    -0.06492329     1.78387006    -0.00069827     0.00008666     0.00046323
H        -0.96000133     0.02130303     1.87056228    -0.00012177     0.00035172     0.00053698
H        -0.98733808     0.11161466    -0.56997672    -0.00058890    -0.00016649    -0.00114623
     6
  Step:    12            Position(A)                                  Velocity(au)
C        -0.03957575     0.00840842    -0.02586960    -0.00002383     0.00009214    -0.00086730
N        -0.03877921    -0.06409747     1.34002451     0.00007301    -0.00009780     0.00075115
H         0.94270464     0.05130483    -0.50523819     0.00010724     0.00000768    -0.00012438
H         0.80540799    -0.06449198     1.78699722    -0.00037953     0.00007182     0.00067250
H        -0.96012070     0.02330773     1.87329110     0.00007707     0.00037231     0.00045212
H        -0.99045382     0.11062510    -0.57619552    -0.00053541    -0.00019071    -0.00110365
     6
  Step:    13            Position(A)                                  Velocity(au)
C        -0.03970870     0.00892801    -0.03088275    -0.00002458     0.00009550    -0.00094065
N        -0.03848478    -0.06464925     1.34433224     0.00003360    -0.00010148     0.00080228
H         0.94321565     0.05142944    -0.50595711     0.00007943     0.00003590    -0.00013691
H         0.80421509    -0.06413033     1.79129503    -0.00005101     0.00006058     0.00087987
H        -0.95915045     0.02541362     1.87555408     0.00026938     0.00038743     0.00036798
H        -0.99324945     0.10950902    -0.58216190    -0.00047190    -0.00021176    -0.00105091
     6
  Step:    14            Position(A)                                  Velocity(au)
C        -0.03984771     0.00946521    -0.03627849    -0.00002584     0.00009798    -0.00100037
N        -0.03840738    -0.06522040     1.34890231    -0.00000475    -0.00010428     0.00084182
H         0.94358361     0.05170209    -0.50675323     0.00005561     0.00006124    -0.00015164
H         0.80484354    -0.06382157     1.79673353     0.00027065     0.00005202     0.00107566
H        -0.95713981     0.02759490     1.87736301     0.00044855     0.00039811     0.00028779
H        -0.99567566     0.10828180    -0.58782450    -0.00040085    -0.00022991    -0.00098949
     6
  Step:    15            Position(A)                                  Velocity(au)
C        -0.03999542     0.01001511    -0.04198158    -0.00002750     0.00009951    -0.00104555
N        -0.03853749    -0.06580617     1.35367195    -0.00004037    -0.00010617     0.00086952
H         0.94383260     0.05210888    -0.50763950     0.00003658     0.00008406    -0.00016852
H         0.80721783    -0.06355318     1.80322917     0.00056893     0.00004546     0.00125055
H        -0.95417388     0.02983056     1.87874707     0.00060822     0.00040523     0.00021475
H        -0.99769673     0.10695819    -0.59313997    -0.00032499    -0.00024523    -0.00092120
     6
  Step:    16            Position(A)                                  Velocity(au)
C        -0.04015372     0.01057245    -0.04791223    -0.00002942     0.00010006    -0.00107597
N        -0.03885661    -0.06640170     1.35857748    -0.00007176    -0.00010717     0.00088574
H         0.94399063     0.05263738    -0.50862830     0.00002290     0.00010457    -0.00018739
H         0.81117402    -0.06331579     1.81064836     0.00082930     0.00004038     0.00139672
H        -0.95037223     0.03210391     1.87975250     0.00074274     0.00040969     0.00015179
H        -0.99929179     0.10555314    -0.59807466    -0.00024718    -0.00025773    -0.00084822
     6
  Step:    17            Position(A)                                  Velocity(au)
C        -0.04032372     0.01113185    -0.05399006    -0.00003146     0.00009970    -0.00109242
N        -0.03933841    -0.06700226     1.36355725    -0.00009775    -0.00010739     0.00089146
H         0.94408821     0.05327593    -0.50973086     0.00001484     0.00012297    -0.00020805
H         0.81647333    -0.06310247     1.81881733     0.00104093     0.00003640     0.00150900
H        -0.94588445     0.03440294     1.88044117     0.00084784     0.00041253     0.00010149
H        -1.00045541     0.10408178    -0.60260660    -0.00017028    -0.00026753    -0.00077309
     6
  Step:    18            Position(A)                                  Velocity(au)
C        -0.04050585     0.01168829    -0.06013913    -0.00003353     0.00009855    -0.00109668
N        -0.03995073    -0.06760370     1.36855511    -0.00011765    -0.00010702     0.00088841
H         0.94415667     0.05401370    -0.51095692     0.00001233     0.00013950    -0.00023035
H         0.82282458    -0.06290839     1.82753782     0.00119787     0.00003321     0.00158561
H        -0.94088273     0.03672118     1.88088844     0.00092108     0.00041499     0.00006580
H        -1.00119761     0.10255884    -0.60672750    -0.00009687    -0.00027492    -0.00069856
     6
  Step:    19            Position(A)                                  Velocity(au)
C        -0.04069991     0.01223753    -0.06629369    -0.00003555     0.00009685    -0.00109143
N        -0.04065827    -0.06820291     1.37352428    -0.00013124    -0.00010630     0.00087887
H         0.94422657     0.05484100    -0.51231520     0.00001509     0.00015452    -0.00025426
H         0.82991219    -0.06272994     1.83660622     0.00129933     0.00003059     0.00162813
H        -0.93555096     0.03905865     1.88117932     0.00096199     0.00041843     0.00004592
H        -1.00154215     0.10099744    -0.61044369    -0.00002905    -0.00028042    -0.00062729
     6
  Step:    20            Position(A)                                  Velocity(au)
C        -0.04090525     0.01277650    -0.07240266    -0.00003745     0.00009482    -0.00107973
N        -0.04142539    -0.06879814     1.37843024    -0.00013877    -0.00010552     0.00086530
H         0.94432626     0.05574990    -0.51381387     0.00002262     0.00016846    -0.00027986
H         0.83742405    -0.06256462     1.84583181     0.00134861     0.00002839     0.00164061
H        -0.93007359     0.04142275     1.88140445     0.00097178     0.00042428     0.00004241
H        -1.00152401     0.09940804    -0.61377580     0.00003170    -0.00028462    -0.00056155
     6
  Step:    21            Position(A)                                  Velocity(au)
C        -0.04112094     0.01330346    -0.07843183    -0.00003921     0.00009268    -0.00106441
N        -0.04221833    -0.06938919     1.38325185    -0.00014073    -0.00010494     0.00084990
H         0.94448092     0.05673485    -0.51546139     0.00003434     0.00018180    -0.00030731
H         0.84507303    -0.06241074     1.85504972     0.00135146     0.00002647     0.00162817
H        -0.92462631     0.04382833     1.88165606     0.00095250     0.00043378     0.00005522
H        -1.00118583     0.09779775    -0.61675657     0.00008448    -0.00028815    -0.00050298
     6
  Step:    22            Position(A)                                  Velocity(au)
C        -0.04134578     0.01381786    -0.08436255    -0.00004075     0.00009058    -0.00104758
N        -0.04300662    -0.06997726     1.38797984    -0.00013770    -0.00010474     0.00083422
H         0.94471208     0.05779262    -0.51726686     0.00004959     0.00019494    -0.00033670
H         0.85260926    -0.06226725     1.86412618     0.00131430     0.00002471     0.00159568
H        -0.91937119     0.04629678     1.88202492     0.00090640     0.00044787     0.00008390
H        -1.00057473     0.09617033    -0.61942731     0.00012885    -0.00029146    -0.00045244
     6
  Step:    23            Position(A)                                  Velocity(au)
C        -0.04157828     0.01431997    -0.09018759    -0.00004202     0.00008859    -0.00103036
N        -0.04376355    -0.07056454     1.39261331    -0.00013026    -0.00010501     0.00081903
H         0.94503745     0.05892243    -0.51923978     0.00006772     0.00020819    -0.00036795
H         0.85982188    -0.06213345     1.87295615     0.00124300     0.00002308     0.00154694
H        -0.91445490     0.04885421     1.88259755     0.00083566     0.00046703     0.00012756
H        -0.99973986     0.09452703    -0.62183375     0.00016454    -0.00029476    -0.00041018
     6
  Step:    24            Position(A)                                  Velocity(au)
C        -0.04181658     0.01481038    -0.09590583    -0.00004291     0.00008671    -0.00101302
N        -0.04446596    -0.07115369     1.39715551    -0.00011895    -0.00010576     0.00080442
H         0.94547080     0.06012497    -0.52138906     0.00008801     0.00022166    -0.00040076
H         0.86653473    -0.06200865     1.88145671     0.00114262     0.00002151     0.00148458
H        -0.91000917     0.05152902     1.88345399     0.00074243     0.00049133     0.00018492
H        -0.99873142     0.09286805    -0.62402256     0.00019127    -0.00029809    -0.00037603
     6
  Step:    25            Position(A)                                  Velocity(au)
C        -0.04205825     0.01528975    -0.10151751    -0.00004331     0.00008490    -0.00099530
N        -0.04509392    -0.07174738     1.40161020    -0.00010429    -0.00010693     0.00079011
H         0.94602181     0.06140151    -0.52372201     0.00010970     0.00023534    -0.00043465
H         0.87260127    -0.06189286     1.88956015     0.00101770     0.00001990     0.00141053
H        -0.90615134     0.05434938     1.88466573     0.00062922     0.00052042     0.00025418
H        -0.99760062     0.09119308    -0.62603940     0.00020878    -0.00030136    -0.00034966
     6
  Step:    26            Position(A)                                  Velocity(au)
C        -0.04230029     0.01575850    -0.10702141    -0.00004311     0.00008310    -0.00097672
N        -0.04563071    -0.07234790     1.40597952    -0.00008686    -0.00010843     0.00077566
H         0.94669588     0.06275324    -0.52624322     0.00013195     0.00024914    -0.00046898
H         0.87790049    -0.06178636     1.89720965     0.00087254     0.00001822     0.00132641
H        -0.90298193     0.05734115     1.88629275     0.00049938     0.00055368     0.00033299
H        -0.99639971     0.08950240    -0.62792762     0.00021684    -0.00030441    -0.00033063
     6
  Step:    27            Position(A)                                  Velocity(au)
C        -0.04253912     0.01621676    -0.11241368    -0.00004219     0.00008126    -0.00095685
N        -0.04606294    -0.07295704     1.41026339    -0.00006730    -0.00011016     0.00076071
H         0.94749379     0.06418084    -0.52895387     0.00015392     0.00026293    -0.00050309
H         0.88233523    -0.06168956     1.90435737     0.00071152     0.00001646     0.00123389
H        -0.90058029     0.06052615     1.88838055     0.00035721     0.00059024     0.00041846
H        -0.99518161     0.08779712    -0.62972790     0.00021534    -0.00030708    -0.00031849
     6
  Step:    28            Position(A)                                  Velocity(au)
C        -0.04277066     0.01666438    -0.11768799    -0.00004051     0.00007936    -0.00093536
N        -0.04638091    -0.07357597     1.41445964    -0.00004631    -0.00011202     0.00074500
H         0.94841167     0.06568425    -0.53185146     0.00017476     0.00027658    -0.00053632
H         0.88583227    -0.06160290     1.91096459     0.00053915     0.00001461     0.00113483
H        -0.89899990     0.06392094     1.89095755     0.00020785     0.00062909     0.00050729
H        -0.99399920     0.08607918    -0.63147803     0.00020439    -0.00030926    -0.00031275
     6
  Step:    29            Position(A)                                  Velocity(au)
C        -0.04299048     0.01710104    -0.12283625    -0.00003799     0.00007737    -0.00091210
N        -0.04657891    -0.07420527     1.41856480    -0.00002463    -0.00011390     0.00072842
H         0.94944112     0.06726274    -0.53492998     0.00019369     0.00028998    -0.00056807
H         0.88834285    -0.06152680     1.91700251     0.00035999     0.00001269     0.00103122
H        -0.89826422     0.06753602     1.89403320     0.00005704     0.00066911     0.00059599
H        -0.99290410     0.08435107    -0.63321284     0.00018435    -0.00031090    -0.00031289
     6
  Step:    30            Position(A)                                  Velocity(au)
C        -0.04319395     0.01752630    -0.12784944    -0.00003465     0.00007528    -0.00088704
N        -0.04665536    -0.07484490     1.42257477    -0.00000304    -0.00011571     0.00071097
H         0.95056955     0.06891487    -0.53818018     0.00021000     0.00030303    -0.00059782
H         0.88984284    -0.06146155     1.92245312     0.00017859     0.00001073     0.00092519
H        -0.89836448     0.07137529     1.89759725    -0.00008934     0.00070911     0.00068103
H        -0.99194537     0.08261556    -0.63496385     0.00015584    -0.00031198    -0.00031831
     6
  Step:    31            Position(A)                                  Velocity(au)
C        -0.04337647     0.01793968    -0.13271837    -0.00003049     0.00007310    -0.00086026
N        -0.04661277    -0.07549432     1.42648544     0.00001775    -0.00011736     0.00069273
H         0.95178064     0.07063872    -0.54159009     0.00022307     0.00031566    -0.00062515
H         0.89033243    -0.06140727     1.92730970    -0.00000067     0.00000877     0.00081889
H        -0.89925948     0.07543596     1.90162026    -0.00022557     0.00074793     0.00075911
H        -0.99116790     0.08087540    -0.63675896     0.00011976    -0.00031256    -0.00032832
     6
  Step:    32            Position(A)                                  Velocity(au)
C        -0.04353363     0.01834073    -0.13743436    -0.00002557     0.00007084    -0.00083195
N        -0.04645757    -0.07615249     1.43029306     0.00003707    -0.00011877     0.00067382
H         0.95305501     0.07243189    -0.54514549     0.00023244     0.00032780    -0.00064971
H         0.88983537    -0.06136383     1.93157704    -0.00017360     0.00000686     0.00071444
H        -0.90087775     0.07970866     1.90605520    -0.00034655     0.00078446     0.00082734
H        -0.99061099     0.07913309    -0.63862198     0.00007725    -0.00031270    -0.00034218
     6
  Step:    33            Position(A)                                  Velocity(au)
C        -0.04366140     0.01872908    -0.14198963    -0.00001997     0.00006851    -0.00080234
N        -0.04619967    -0.07681794     1.43399453     0.00005433    -0.00011989     0.00065440
H         0.95437098     0.07429174    -0.54883048     0.00023776     0.00033945    -0.00067128
H         0.88839779    -0.06133086     1.93527136    -0.00033632     0.00000504     0.00061390
H        -0.90312148     0.08417800     1.91084010    -0.00044806     0.00081772     0.00088335
H        -0.99030699     0.07739066    -0.64057222     0.00002967    -0.00031254    -0.00035905
     6
  Step:    34            Position(A)                                  Velocity(au)
C        -0.04375628     0.01910442    -0.14637764    -0.00001381     0.00006615    -0.00077169
N        -0.04585201    -0.07748889     1.43758737     0.00006904    -0.00012067     0.00063460
H         0.95570524     0.07621556    -0.55262795     0.00023884     0.00035059    -0.00068972
H         0.88608661    -0.06130762     1.93841986    -0.00048525     0.00000338     0.00051921
H        -0.90587204     0.08882338     1.91590147    -0.00052694     0.00084690     0.00092545
H        -0.99028023     0.07564938    -0.64262416    -0.00002146    -0.00031219    -0.00037806
     6
  Step:    35            Position(A)                                  Velocity(au)
C        -0.04381543     0.01946657    -0.15059330    -0.00000722     0.00006377    -0.00074030
N        -0.04542992    -0.07816334     1.44106977     0.00008084    -0.00012108     0.00061455
H         0.95703383     0.07820048    -0.55652028     0.00023562     0.00036121    -0.00070500
H         0.88298771    -0.06129313     1.94106015    -0.00061721     0.00000194     0.00043219
H        -0.90899641     0.09362014     1.92115804    -0.00058125     0.00087140     0.00095263
H        -0.99054628     0.07391005    -0.64478728    -0.00007455    -0.00031177    -0.00039832
     6
  Step:    36            Position(A)                                  Velocity(au)
C        -0.04383678     0.01981549    -0.15463307    -0.00000033     0.00006139    -0.00070845
N        -0.04495050    -0.07883916     1.44444048     0.00008947    -0.00012112     0.00059434
H         0.95833274     0.08024363    -0.56048975     0.00022817     0.00037136    -0.00071716
H         0.87920377    -0.06128603     1.94323938    -0.00072945     0.00000076     0.00035443
H        -0.91235380     0.09854078     1.92652468    -0.00061019     0.00089086     0.00096456
H        -0.99111160     0.07217274    -0.64706603    -0.00012796    -0.00031141    -0.00041895
     6
  Step:    37            Position(A)                                  Velocity(au)
C        -0.04381908     0.02015124    -0.15849497     0.00000671     0.00005903    -0.00067645
N        -0.04443201    -0.07951419     1.44769864     0.00009478    -0.00012078     0.00057404
H         0.95957868     0.08234238    -0.56451900     0.00021667     0.00038107    -0.00072631
H         0.87485189    -0.06128465     1.94501327    -0.00081966    -0.00000009     0.00028736
H        -0.91580208     0.10355629     1.93191612    -0.00061405     0.00090516     0.00096153
H        -0.99197350     0.07043680    -0.64945998    -0.00018010    -0.00031125    -0.00043911
     6
  Step:    38            Position(A)                                  Velocity(au)
C        -0.04376190     0.02047398    -0.16217857     0.00001376     0.00005673    -0.00064455
N        -0.04389324    -0.08018636     1.45084371     0.00009673    -0.00012009     0.00055372
H         0.96074964     0.08449433    -0.56859145     0.00020141     0.00039042    -0.00073264
H         0.87006081    -0.06128700     1.94644479    -0.00088607    -0.00000055     0.00023213
H        -0.91920328     0.10863749     1.93725013    -0.00059402     0.00091438     0.00094433
H        -0.99312056     0.06870086    -0.65196415    -0.00022948    -0.00031142    -0.00045805
     6
  Step:    39            Position(A)                                  Velocity(au)
C        -0.04366563     0.02078401    -0.16568488     0.00002066     0.00005448    -0.00061301
N        -0.04335297    -0.08085377     1.45387537     0.00009537    -0.00011909     0.00053340
H         0.96182535     0.08669748    -0.57269157     0.00018271     0.00039948    -0.00073637
H         0.86496787    -0.06129079     1.94760268    -0.00092746    -0.00000058     0.00018960
H        -0.92242835     0.11375614     1.94245013    -0.00055203     0.00091880     0.00091419
H        -0.99453329     0.06696292    -0.65456946    -0.00027474    -0.00031203    -0.00047508
     6
  Step:    40            Position(A)                                  Velocity(au)
C        -0.04353140     0.02108171    -0.16901626     0.00002731     0.00005232    -0.00058204
N        -0.04282947    -0.08151473     1.45679342     0.00009082    -0.00011783     0.00051309
H         0.96278766     0.08895028    -0.57680517     0.00016099     0.00040835    -0.00073776
H         0.85971567    -0.06129347     1.94855969    -0.00094323    -0.00000014     0.00016032
H        -0.92536076     0.11888604     1.94744728    -0.00049054     0.00091886     0.00087259
H        -0.99618513     0.06522037    -0.65726329    -0.00031475    -0.00031318    -0.00048963
     6
  Step:    41            Position(A)                                  Velocity(au)
C        -0.04336104     0.02136753    -0.17217620     0.00003358     0.00005025    -0.00055183
N        -0.04234007    -0.08216785     1.45959774     0.00008329    -0.00011635     0.00049281
H         0.96362079     0.09125167    -0.58091952     0.00013666     0.00041712    -0.00073707
H         0.85444840    -0.06129231     1.94939067    -0.00093340     0.00000081     0.00014447
H        -0.92789912     0.12400385     1.95218178    -0.00041236     0.00091513     0.00082120
H        -0.99804358     0.06347010    -0.66003014    -0.00034855    -0.00031496    -0.00050125
     6
  Step:    42            Position(A)                                  Velocity(au)
C        -0.04315696     0.02164197    -0.17516914     0.00003939     0.00004827    -0.00052251
N        -0.04190076    -0.08281204     1.46228825     0.00007304    -0.00011472     0.00047256
H         0.96431141     0.09360115    -0.58502347     0.00011017     0.00042589    -0.00073459
H         0.84930834    -0.06128446     1.95017054    -0.00089866     0.00000227     0.00014188
H        -0.92995859     0.12908967     1.95660365    -0.00032050     0.00090826     0.00076179
H        -1.00007146     0.06170863    -0.66285224    -0.00037543    -0.00031741    -0.00050960
     6
  Step:    43            Position(A)                                  Velocity(au)
C        -0.04292202     0.02190559    -0.17800023     0.00004465     0.00004640    -0.00049419
N        -0.04152590    -0.08344657     1.46486494     0.00006039    -0.00011300     0.00045233
H         0.96484877     0.09599876    -0.58910741     0.00008197     0.00043476    -0.00073058
H         0.84443179    -0.06126704     1.95097208    -0.00084039     0.00000423     0.00015195
H        -0.93147143     0.13412746     1.96067290    -0.00021796     0.00089894     0.00069611
H        -1.00222821     0.05993216    -0.66571027    -0.00039489    -0.00032060    -0.00051444
     6
  Step:    44            Position(A)                                  Velocity(au)
C        -0.04265950     0.02215894    -0.18067515     0.00004931     0.00004463    -0.00046692
N        -0.04122790    -0.08407101     1.46732790     0.00004570    -0.00011123     0.00043214
H         0.96522463     0.09844509    -0.59316326     0.00005248     0.00044383    -0.00072529
H         0.83994513    -0.06123730     1.95186352    -0.00076068     0.00000668     0.00017369
H        -0.93238702     0.13910525     1.96435938    -0.00010776     0.00088791     0.00062586
H        -1.00447115     0.05813669    -0.66858391    -0.00040664    -0.00032454    -0.00051564
     6