|===============================================================================
|
|  DFTB+ release 20.1
|
|  Copyright (C) 2006 - 2020  DFTB+ developers group
|
|===============================================================================
|
|  When publishing results obtained with DFTB+, please cite the following
|  reference:
|
|  * DFTB+, a software package for efficient approximate density functional
|    theory based atomistic simulations, J. Chem. Phys. 152, 124101 (2020).
|    [doi: 10.1063/1.5143190]
|
|  You should also cite additional publications crediting the parametrization
|  data you use. Please consult the documentation of the SK-files for the
|  references.
|
|===============================================================================

Reading input file 'dftb_in.hsd'
Parser version: 8

--------------------------------------------------------------------------------
Reading SK-files:
Done.


Processed input in HSD format written to 'dftb_pin.hsd'

Starting initialization...
--------------------------------------------------------------------------------
WARNING!
-> Excited state forces are not implemented yet for fractional occupations, kT=  0.3158E-02K
OpenMP threads:              1
Chosen random seed:          506732023
Mode:                        Static calculation
Self consistent charges:     Yes
SCC-tolerance:                 0.100000E-05
Max. scc iterations:                    100
Shell resolved Hubbard:      No
Spin polarisation:           No
Nr. of up electrons:             6.000000
Nr. of down electrons:           6.000000
Periodic boundaries:         No
Electronic solver:           Relatively robust
Mixer:                       Broyden mixer
Mixing parameter:                  0.200000
Maximal SCC-cycles:                     100
Nr. of chrg. vec. in memory:              0
Electronic temperature:        0.100000E-07 H      0.272114E-06 eV
Initial charges:             Set automatically (system chrg:   0.100E+01)
Included shells:             C:  s, p
                             N:  s, p
                             H:  s
Extra options:
                             Mulliken analysis
                             Force calculation
Force type                   original
                             Eigenvector printing

--------------------------------------------------------------------------------

***  Geometry step: 0

 iSCC Total electronic   Diff electronic      SCC error    
    1   -0.53529886E+01    0.00000000E+00    0.90852728E+00
    2   -0.53615095E+01   -0.85209877E-02    0.61528946E+00
    3   -0.53672104E+01   -0.57008302E-02    0.12300744E+00
    4   -0.53669548E+01    0.25558023E-03    0.18075958E+00
    5   -0.53679399E+01   -0.98509175E-03    0.28387854E-01
    6   -0.53679590E+01   -0.19146659E-04    0.15896582E-01
    7   -0.53679699E+01   -0.10862979E-04    0.63520961E-03
    8   -0.53679699E+01   -0.77779276E-08    0.46412098E-03
    9   -0.53679699E+01   -0.97086286E-08    0.13485896E-05
   10   -0.53679699E+01   -0.26645353E-14    0.14013488E-05
   11   -0.53679699E+01   -0.10480505E-12    0.14547046E-07
>> Charges saved for restart in charges.bin

Total Energy:                       -5.0903180377 H         -138.5146 eV
Extrapolated to 0:                  -5.1830076566 H         -141.0368 eV
Total Mermin free energy:           -5.0903180377 H         -138.5146 eV
Force related energy:               -5.1830076566 H         -141.0368 eV

--------------------------------------------------------------------------------
DFTB+ running times                          cpu [s]             wall clock [s]
--------------------------------------------------------------------------------
SCC                                    +     0.01  ( 55.4%)      0.03  ( 60.8%)
Post-SCC processing                    +     0.01  ( 39.0%)      0.01  ( 29.4%)
--------------------------------------------------------------------------------
Missing                                +     0.00  (  5.7%)      0.00  (  9.8%)
Total                                  =     0.02  (100.0%)      0.05  (100.0%)
--------------------------------------------------------------------------------
