     6
  Step:     0            Position(A)                                  Velocity(au)
C        -0.04219823     0.00355266     0.00453500     0.00002715     0.00007906     0.00025773
N        -0.03793033    -0.05138738     1.30892024     0.00014169    -0.00011550    -0.00014677
H         0.93174543     0.02252410    -0.47154109     0.00012439    -0.00035946    -0.00027266
H         0.82447534    -0.10158556     1.82850313    -0.00073039     0.00071660    -0.00083116
H        -0.93814244    -0.05255589     1.87440557    -0.00130056     0.00036358     0.00056481
H        -1.00108643     0.13360292    -0.58258199    -0.00038605    -0.00005770    -0.00049261
     6
  Step:     1            Position(A)                                  Velocity(au)
C        -0.04207388     0.00398463     0.00561614     0.00001816     0.00007883     0.00013688
N        -0.03720396    -0.05204149     1.30839465     0.00012204    -0.00012390    -0.00004522
H         0.93257972     0.02065952    -0.47319864     0.00017892    -0.00032138    -0.00033109
H         0.82082620    -0.09760000     1.82417097    -0.00059017     0.00074182    -0.00074439
H        -0.94500706    -0.05047999     1.87733893    -0.00119650     0.00039659     0.00049987
H        -1.00298323     0.13334882    -0.58510522    -0.00030465    -0.00003457    -0.00042711
     6
  Step:     2            Position(A)                                  Velocity(au)
C        -0.04199963     0.00441482     0.00603209     0.00000896     0.00007849     0.00001504
N        -0.03659555    -0.05274246     1.30842564     0.00009890    -0.00013266     0.00005631
H         0.93370229     0.01900911    -0.47516230     0.00022932    -0.00028166    -0.00038454
H         0.81802049    -0.09347211     1.82036158    -0.00042389     0.00076903    -0.00064129
H        -0.95122883    -0.04821834     1.87987280    -0.00106831     0.00043135     0.00042057
H        -1.00441839     0.13322480    -0.58725341    -0.00021830    -0.00001034    -0.00035649
     6
  Step:     3            Position(A)                                  Velocity(au)
C        -0.04197592     0.00484279     0.00578055    -0.00000021     0.00007811    -0.00010686
N        -0.03612262    -0.05349203     1.30901035     0.00007286    -0.00014173     0.00015704
H         0.93508707     0.01757983    -0.47740314     0.00027437    -0.00024107    -0.00043264
H         0.81619139    -0.08919147     1.81715911    -0.00023539     0.00079817    -0.00052402
H        -0.95668792    -0.04576358     1.88193744    -0.00092028     0.00046713     0.00033004
H        -1.00537017     0.13323578    -0.58900306    -0.00012870     0.00001456    -0.00028235
     6
  Step:     4            Position(A)                                  Velocity(au)
C        -0.04200196     0.00526856     0.00486415    -0.00000914     0.00007777    -0.00022794
N        -0.03579925    -0.05429151     1.31014202     0.00004454    -0.00015097     0.00025629
H         0.93670114     0.01637419    -0.47989100     0.00031285    -0.00020035    -0.00047521
H         0.81544767    -0.08474823     1.81463408    -0.00002954     0.00082897    -0.00039522
H        -0.96128742    -0.04311269     1.88348010    -0.00075623     0.00050305     0.00023122
H        -1.00582503     0.13338397    -0.59033947    -0.00003720     0.00003965    -0.00020622
     6
  Step:     5            Position(A)                                  Velocity(au)
C        -0.04207581     0.00569251     0.00329009    -0.00001762     0.00007750    -0.00034727
N        -0.03563596    -0.05514157     1.31181058     0.00001463    -0.00016026     0.00035340
H         0.93850528     0.01539083    -0.48259538     0.00034366    -0.00016008    -0.00051218
H         0.81586863    -0.08013406     1.81284089     0.00018779     0.00086098    -0.00025805
H        -0.96495061    -0.04026714     1.88446375    -0.00057971     0.00053827     0.00012691
H        -1.00577661     0.13366898    -0.59125627     0.00005483     0.00006447    -0.00012959
     6
  Step:     6            Position(A)                                  Velocity(au)
C        -0.04219444     0.00611518     0.00107057    -0.00002544     0.00007730    -0.00046375
N        -0.03563944    -0.05604221     1.31400252    -0.00001613    -0.00016943     0.00044758
H         0.94045522     0.01462545    -0.48548604     0.00036600    -0.00012074    -0.00054353
H         0.81749905    -0.07534303     1.81181521     0.00040974     0.00089355    -0.00011620
H        -0.96762012    -0.03723266     1.88486649    -0.00039434     0.00057195     0.00001993
H        -1.00522609     0.13408828    -0.59175513     0.00014580     0.00008870    -0.00005398
     6
  Step:     7            Position(A)                                  Velocity(au)
C        -0.04235372     0.00653697    -0.00177607    -0.00003239     0.00007711    -0.00057593
N        -0.03581218    -0.05699253     1.31670015    -0.00004690    -0.00017827     0.00053782
H         0.94250358     0.01407185    -0.48853316     0.00037941    -0.00008260    -0.00056927
H         0.82034483    -0.07037259     1.81157147     0.00062862     0.00092581     0.00002614
H        -0.96925857    -0.03401886     1.88468144    -0.00020408     0.00060333    -0.00008684
H        -1.00418388     0.13463799    -0.59184596     0.00023370     0.00011211     0.00001899
     6
  Step:     8            Position(A)                                  Velocity(au)
C        -0.04254843     0.00695787    -0.00522377    -0.00003825     0.00007681    -0.00068207
N        -0.03615205    -0.05799057     1.31988035    -0.00007677    -0.00018655     0.00062285
H         0.94460177     0.01372274    -0.49170758     0.00038380    -0.00004585    -0.00058945
H         0.82436921    -0.06522487     1.81210086     0.00083608     0.00095666     0.00016444
H        -0.96985051    -0.03063892     1.88391738    -0.00001343     0.00063166    -0.00019029
H        -1.00267197     0.13531352    -0.59154756     0.00031609     0.00013457     0.00008755
     6
  Step:     9            Position(A)                                  Velocity(au)
C        -0.04277216     0.00737721    -0.00923696    -0.00004281     0.00007629    -0.00078010
N        -0.03665191    -0.05903306     1.32351319    -0.00010473    -0.00019396     0.00070112
H         0.94670178     0.01357036    -0.49498085     0.00037939    -0.00001060    -0.00060412
H         0.82949035    -0.05990811     1.81337016     0.00102351     0.00098471     0.00029403
H        -0.96940553    -0.02710938     1.88259994     0.00017241     0.00065628    -0.00028704
H        -1.00072634     0.13611000    -0.59088833     0.00039008     0.00015602     0.00014975
     6
  Step:    10            Position(A)                                  Velocity(au)
C        -0.04301738     0.00779352    -0.01376906    -0.00004585     0.00007537    -0.00086774
N        -0.03729926    -0.06011525     1.32756049    -0.00012975    -0.00020022     0.00077091
H         0.94875759     0.01360668    -0.49832517     0.00036666     0.00002304    -0.00061335
H         0.83558081    -0.05443826     1.81532174     0.00118251     0.00100835     0.00041042
H        -0.96796193    -0.02345002     1.88077311     0.00034758     0.00067653    -0.00037349
H        -0.99839898     0.13702262    -0.58990721     0.00045255     0.00017644     0.00020355
     6
  Step:    11            Position(A)                                  Velocity(au)
C        -0.04327539     0.00820446    -0.01876144    -0.00004718     0.00007390    -0.00094269
N        -0.03807611    -0.06123075     1.33197483    -0.00015082    -0.00020502     0.00083041
H         0.95072635     0.01382329    -0.50171308     0.00034635     0.00005492    -0.00061714
H         0.84246982    -0.04884023     1.81787501     0.00130559     0.00102586     0.00050957
H        -0.96559039    -0.01968362     1.87850048     0.00050572     0.00069191    -0.00044593
H        -0.99575903     0.13804659    -0.58865409     0.00050034     0.00019576     0.00024694
     6
  Step:    12            Position(A)                                  Velocity(au)
C        -0.04353659     0.00860682    -0.02414343    -0.00004667     0.00007176    -0.00100286
N        -0.03895910    -0.06237149     1.33669918    -0.00016702    -0.00020808     0.00087792
H         0.95256926     0.01421112    -0.50511685     0.00031935     0.00008485    -0.00061541
H         0.84994899    -0.04314854     1.82092958     0.00138692     0.00103558     0.00058830
H        -0.96239648    -0.01583547     1.87586562     0.00064025     0.00070208    -0.00050080
H        -0.99289268     0.13917700    -0.58718958     0.00053057     0.00021395     0.00027809
     6
  Step:    13            Position(A)                                  Velocity(au)
C        -0.04379069     0.00899672    -0.02983341    -0.00004428     0.00006886    -0.00104667
N        -0.03992011    -0.06352798     1.34166741    -0.00017762    -0.00020920     0.00091210
H         0.95425213     0.01476004    -0.50850744     0.00028671     0.00011258    -0.00060803
H         0.85778192    -0.03740695     1.82437006     0.00142301     0.00103619     0.00064461
H        -0.95852175    -0.01193237     1.87297148     0.00074501     0.00070702    -0.00053500
H        -0.98990136     0.14040869    -0.58558381     0.00054102     0.00023094     0.00029562
     6
  Step:    14            Position(A)                                  Velocity(au)
C        -0.04402721     0.00936983    -0.03574159    -0.00006774     0.00011027    -0.00181617
N        -0.04092730    -0.06468968     1.34680620    -0.00030826    -0.00035252     0.00157742
H         0.95574634     0.01545863    -0.51185439     0.00042269     0.00023337    -0.00100714
H         0.86571740    -0.03166647     1.82807254     0.00239135     0.00173766     0.00114708
H        -0.95414102    -0.00800102     1.86993724     0.00137900     0.00119645    -0.00092454
H        -0.98689763     0.14173606    -0.58391377     0.00089767     0.00041742     0.00050562
     6
  Step:    15            Position(A)                                  Velocity(au)
C        -0.04439779     0.00996221    -0.04557306    -0.00006217     0.00009914    -0.00166065
N        -0.04263337    -0.06661453     1.35538451    -0.00029187    -0.00032884     0.00145620
H         0.95826449     0.01674569    -0.51770667     0.00046566     0.00022187    -0.00105996
H         0.87888024    -0.02213720     1.83451990     0.00224224     0.00163526     0.00112081
H        -0.94640605    -0.00148996     1.86485761     0.00133246     0.00111044    -0.00085712
H        -0.98219037     0.14409898    -0.58148479     0.00075621     0.00042087     0.00034863
     6
  Step:    16            Position(A)                                  Velocity(au)
C        -0.04473033     0.01049120    -0.05452440    -0.00002949     0.00004765    -0.00081637
N        -0.04422853    -0.06840908     1.36327663    -0.00014604    -0.00016612     0.00072392
H         0.96101320     0.01796810    -0.52384313     0.00027282     0.00011409    -0.00060025
H         0.89107838    -0.01317076     1.84074948     0.00111353     0.00083379     0.00058137
H        -0.93907014     0.00455869     1.86024271     0.00067170     0.00056006    -0.00041285
H        -0.97834444     0.14649630    -0.57997060     0.00032276     0.00023272     0.00009966
     6
  Step:    17            Position(A)                                  Velocity(au)
C        -0.04486690     0.01074367    -0.05909260    -0.00001853     0.00004155    -0.00079522
N        -0.04500794    -0.06933214     1.36732198    -0.00012797    -0.00015997     0.00070334
H         0.96239565     0.01867228    -0.52713399     0.00021591     0.00013394    -0.00056238
H         0.89693443    -0.00856649     1.84392748     0.00094860     0.00079220     0.00053736
H        -0.93545797     0.00771424     1.85811168     0.00059303     0.00055593    -0.00033426
H        -0.97673723     0.14785134    -0.57950758     0.00024148     0.00024589     0.00006129
     6
  Step:    18            Position(A)                                  Velocity(au)
C        -0.04494019     0.01096188    -0.06353274    -0.00000735     0.00003587    -0.00077792
N        -0.04567820    -0.07022125     1.37124411    -0.00010873    -0.00015543     0.00068635
H         0.96345906     0.01948535    -0.53021377     0.00016206     0.00015391    -0.00053036
H         0.90182424    -0.00419660     1.84683675     0.00078131     0.00075738     0.00049183
H        -0.93235229     0.01085632     1.85645615     0.00049902     0.00055990    -0.00024828
H        -0.97560891     0.14928181    -0.57927632     0.00015612     0.00026141     0.00001871
     6
  Step:    19            Position(A)                                  Velocity(au)
C        -0.04494983     0.01114820    -0.06786696     0.00000394     0.00003053    -0.00076490
N        -0.04623433    -0.07108528     1.37506351    -0.00008862    -0.00015247     0.00067325
H         0.96422352     0.02040832    -0.53311603     0.00011141     0.00017458    -0.00050423
H         0.90574698    -0.00002385     1.84947496     0.00061348     0.00072903     0.00044641
H        -0.92982943     0.01402952     1.85531125     0.00039210     0.00057209    -0.00015594
H        -0.97497637     0.15079981    -0.57929655     0.00006747     0.00027934    -0.00002742
     6
  Step:    20            Position(A)                                  Velocity(au)
C        -0.04489591     0.01130466    -0.07211964     0.00001527     0.00002545    -0.00075526
N        -0.04667308    -0.07193295     1.37880213    -0.00006778    -0.00015083     0.00066317
H         0.96470976     0.02144527    -0.53587431     0.00006392     0.00019619    -0.00048319
H         0.90871126     0.00398759     1.85184825     0.00044548     0.00070576     0.00040169
H        -0.92795052     0.01727868     1.85470558     0.00027416     0.00059166    -0.00005804
H        -0.97485151     0.15241768    -0.57958411    -0.00002375     0.00029927    -0.00007645
     6
  Step:    21            Position(A)                                  Velocity(au)
C        -0.04477907     0.01143266    -0.07631019     0.00002649     0.00002050    -0.00074764
N        -0.04699205    -0.07277149     1.38247726    -0.00004637    -0.00015017     0.00065489
H         0.96493805     0.02260163    -0.53851773     0.00001968     0.00021877    -0.00046628
H         0.91072715     0.00786601     1.85396561     0.00027781     0.00068592     0.00035800
H        -0.92676451     0.02064383     1.85466242     0.00014763     0.00061734     0.00004414
H        -0.97524189     0.15414540    -0.58015120    -0.00011640     0.00032050    -0.00012754
     6
  Step:    22            Position(A)                                  Velocity(au)
C        -0.04460077     0.01153310    -0.08045053     0.00003737     0.00001564    -0.00074077
N        -0.04718980    -0.07360626     1.38609948    -0.00002469    -0.00015016     0.00064728
H         0.96492904     0.02388299    -0.54107001    -0.00002094     0.00024222    -0.00045268
H         0.91180689     0.01163076     1.85583745     0.00011173     0.00066811     0.00031581
H        -0.92630554     0.02415771     1.85519741     0.00001587     0.00064776     0.00014866
H        -0.97614857     0.15598901    -0.58100527    -0.00020881     0.00034223    -0.00017959
     6
  Step:    23            Position(A)                                  Velocity(au)
C        -0.04436365     0.01160653    -0.08454552     0.00004766     0.00001083    -0.00073366
N        -0.04726658    -0.07444083     1.38967323    -0.00000317    -0.00015054     0.00063950
H         0.96470521     0.02529447    -0.54355031    -0.00005740     0.00026644    -0.00044184
H         0.91196926     0.01529356     1.85747653    -0.00005070     0.00065131     0.00027583
H        -0.92658808     0.02784520     1.85631507    -0.00011686     0.00068157     0.00025302
H        -0.97756325     0.15795003    -0.58214779    -0.00029887     0.00036363    -0.00023136
     6
  Step:    24            Position(A)                                  Velocity(au)
C        -0.04407175     0.01165333    -0.08859466     0.00005708     0.00000607    -0.00072567
N        -0.04722502    -0.07527734     1.39319831     0.00001768    -0.00015112     0.00063100
H         0.96429183     0.02684062    -0.54597466    -0.00008906     0.00029132    -0.00043339
H         0.91124409     0.01886067     1.85889932    -0.00020683     0.00063489     0.00023900
H        -0.92760276     0.03172357     1.85800612    -0.00024579     0.00071752     0.00035444
H        -0.97946625     0.16002548    -0.58357354    -0.00038432     0.00038393    -0.00028154
     6
  Step:    25            Position(A)                                  Velocity(au)
C        -0.04373054     0.01167388    -0.09259373     0.00006539     0.00000138    -0.00071635
N        -0.04707048    -0.07611683     1.39667147     0.00003732    -0.00015174     0.00062143
H         0.96371743     0.02852544    -0.54835698    -0.00011528     0.00031679    -0.00042714
H         0.90967538     0.02233494     1.86012727    -0.00035368     0.00061850     0.00020640
H        -0.92931405     0.03580303     1.86024605    -0.00036600     0.00075443     0.00045003
H        -0.98182565     0.16220816    -0.58527034    -0.00046286     0.00040245    -0.00032888
     6
  Step:    26            Position(A)                                  Velocity(au)
C        -0.04334689     0.01166865    -0.09653620     0.00007232    -0.00000322    -0.00070549
N        -0.04681127    -0.07695950     1.40008755     0.00005520    -0.00015228     0.00061063
H         0.96301380     0.03035252    -0.55070993    -0.00013549     0.00034278    -0.00042294
H         0.90732312     0.02571740     1.86118748    -0.00048819     0.00060202     0.00017913
H        -0.93166028     0.04008723     1.86299519    -0.00047286     0.00079124     0.00053710
H        -0.98459750     0.16448704    -0.58721948    -0.00053236     0.00041854    -0.00037222
     6
  Step:    27            Position(A)                                  Velocity(au)
C        -0.04292888     0.01163821    -0.10041416     0.00007768    -0.00000770    -0.00069298
N        -0.04645857    -0.07780491     1.40344037     0.00007082    -0.00015267     0.00059852
H         0.96221553     0.03232523    -0.55304526    -0.00014923     0.00036929    -0.00042068
H         0.90426377     0.02900841     1.86211296    -0.00060733     0.00058548     0.00015830
H        -0.93455573     0.04457393     1.86619988    -0.00056230     0.00082697     0.00061329
H        -0.98772694     0.16684769    -0.58939647    -0.00059102     0.00043166    -0.00041064
     6
  Step:    28            Position(A)                                  Velocity(au)
C        -0.04248564     0.01158329    -0.10421913     0.00008132    -0.00001203    -0.00067881
N        -0.04602609    -0.07865218     1.40672325     0.00008376    -0.00015285     0.00058510
H         0.96135937     0.03444682    -0.55537398    -0.00015619     0.00039632    -0.00042028
H         0.90058973     0.03220849     1.86294249    -0.00070835     0.00056899     0.00014491
H        -0.93789438     0.04925570     1.86979464    -0.00063111     0.00086082     0.00067672
H        -0.99115004     0.16927279    -0.59177215    -0.00063741     0.00044136    -0.00044340
     6
  Step:    29            Position(A)                                  Velocity(au)
C        -0.04202697     0.01150477    -0.10794248     0.00008314    -0.00001619    -0.00066305
N        -0.04552965    -0.07950011     1.40992940     0.00009369    -0.00015278     0.00057041
H         0.96048331     0.03672066    -0.55770638    -0.00015625     0.00042392    -0.00042162
H         0.89640786     0.03531878     1.86372009    -0.00078888     0.00055274     0.00013985
H        -0.94155500     0.05412079     1.87370503    -0.00067709     0.00089214     0.00072608
H        -0.99479607     0.17174263    -0.59431402    -0.00067056     0.00044730    -0.00047007
     6
  Step:    30            Position(A)                                  Velocity(au)
C        -0.04156312     0.01140364    -0.11157589     0.00008310    -0.00002016    -0.00064582
N        -0.04498655    -0.08034735     1.41305218     0.00010041    -0.00015246     0.00055455
H         0.95962566     0.03915041    -0.56005199    -0.00014947     0.00045219    -0.00042456
H         0.89183687     0.03834134     1.86449412    -0.00084712     0.00053693     0.00014377
H        -0.94540693     0.05915430     1.87785080    -0.00069911     0.00092052     0.00076067
H        -0.99859011     0.17423569    -0.59698775    -0.00068999     0.00044920    -0.00049047
     6
  Step:    31            Position(A)                                  Velocity(au)
C        -0.04110444     0.01128098    -0.11511162     0.00008122    -0.00002392    -0.00062728
N        -0.04441498    -0.08119249     1.41608534     0.00010384    -0.00015188     0.00053761
H         0.95882402     0.04174036    -0.56241937    -0.00013608     0.00048127    -0.00042895
H         0.88700407     0.04127913     1.86531608    -0.00088196     0.00052173     0.00015712
H        -0.94931577     0.06433932     1.88214912    -0.00069709     0.00094577     0.00078036
H        -1.00245560     0.17672913    -0.59975861    -0.00069572     0.00044692    -0.00050469
     6
  Step:    32            Position(A)                                  Velocity(au)
C        -0.04066106     0.01113792    -0.11854273     0.00007755    -0.00002748    -0.00060761
N        -0.04383328    -0.08203417     1.41902312     0.00010401    -0.00015108     0.00051974
H         0.95811429     0.04449564    -0.56481611    -0.00011647     0.00051139    -0.00043462
H         0.88204144     0.04413583     1.86623920    -0.00089301     0.00050724     0.00018006
H        -0.95314910     0.06965834     1.88651774    -0.00067189     0.00096795     0.00078554
H        -1.00631701     0.17919931    -0.60259301    -0.00068817     0.00044036    -0.00051310
     6
  Step:    33            Position(A)                                  Velocity(au)
C        -0.04024269     0.01097560    -0.12186313     0.00007221    -0.00003084    -0.00058698
N        -0.04325928    -0.08287118     1.42186039     0.00010108    -0.00015009     0.00050104
H         0.95752985     0.04742269    -0.56724861    -0.00009116     0.00054283    -0.00044136
H         0.87708133     0.04691537     1.86731687    -0.00088065     0.00049348     0.00021249
H        -0.95678145     0.07509465     1.89087769    -0.00062518     0.00098736     0.00077708
H        -1.01010224     0.18162220    -0.60545994    -0.00066821     0.00042951    -0.00051632
     6
  Step:    34            Position(A)                                  Velocity(au)
C        -0.03985835     0.01079510    -0.12506752     0.00006533    -0.00003402    -0.00056551
N        -0.04270969    -0.08370249     1.42459256     0.00009531    -0.00014894     0.00048161
H         0.95710095     0.05052963    -0.56972216    -0.00006075     0.00057596    -0.00044899
H         0.87225227     0.04962120     1.86860118    -0.00084600     0.00048026     0.00025402
H        -0.96009849     0.08063367     1.89515559    -0.00055925     0.00100456     0.00075614
H        -1.01374470     0.18397363    -0.60833227    -0.00063700     0.00041436    -0.00051517
     6
  Step:    35            Position(A)                                  Velocity(au)
C        -0.03951626     0.01059739    -0.12815098     0.00005706    -0.00003703    -0.00054321
N        -0.04219955    -0.08452727     1.42721535     0.00008704    -0.00014768     0.00046147
H         0.95685440     0.05382675    -0.57224095    -0.00002583     0.00061124    -0.00045736
H         0.86767467     0.05225533     1.87014131    -0.00079091     0.00046721     0.00030402
H        -0.96299975     0.08626424     1.89928518    -0.00047678     0.00102026     0.00072411
H        -1.01718498     0.18622940    -0.61118803    -0.00059595     0.00039488    -0.00051070
     6
  Step:    36            Position(A)                                  Velocity(au)
C        -0.03922381     0.01038326    -0.13110840     0.00004754    -0.00003993    -0.00051998
N        -0.04174177    -0.08534485     1.42972448     0.00007668    -0.00014633     0.00044058
H         0.95681368     0.05732707    -0.57480832     0.00001306     0.00064923    -0.00046635
H         0.86345673     0.05481695     1.87198208    -0.00071788     0.00045368     0.00036159
H        -0.96540061     0.09197972     1.90320827    -0.00038068     0.00103539     0.00068248
H        -1.02037211     0.18836504    -0.61401160    -0.00054666     0.00037101    -0.00050417
     6
  Step:    37            Position(A)                                  Velocity(au)
C        -0.03898754     0.01015330    -0.13393377     0.00003691    -0.00004276    -0.00049554
N        -0.04134674    -0.08615464     1.43211518     0.00006472    -0.00014489     0.00041879
H         0.95699965     0.06104695    -0.57742735     0.00005560     0.00069061    -0.00047603
H         0.85969099     0.05730082     1.87416265    -0.00062994     0.00043869     0.00042567
H        -0.96723340     0.09777908     1.90687523    -0.00027402     0.00105105     0.00063277
H        -1.02326447     0.19035548    -0.61679501    -0.00049090     0.00034256    -0.00049713
     6
  Step:    38            Position(A)                                  Velocity(au)
C        -0.03881331     0.00990779    -0.13661897     0.00002529    -0.00004557    -0.00046935
N        -0.04102207    -0.08695602     1.43438150     0.00005166    -0.00014332     0.00039575
H         0.95743193     0.06500688    -0.58010197     0.00010180     0.00073619    -0.00048675
H         0.85645160     0.05969534     1.87671567    -0.00053052     0.00042089     0.00049506
H        -0.96844784     0.10366772     1.91024490    -0.00015989     0.00106842     0.00057646
H        -1.02583101     0.19217442    -0.61953980    -0.00043068     0.00030925    -0.00049153
     6
  Step:    39            Position(A)                                  Velocity(au)
C        -0.03870641     0.00964663    -0.13915212     0.00001274    -0.00004846    -0.00044039
N        -0.04077233    -0.08774815     1.43651527     0.00003806    -0.00014158     0.00037086
H         0.95813144     0.06923204    -0.58283916     0.00015228     0.00078681    -0.00049945
H         0.85379260     0.06198036     1.87966687    -0.00042325     0.00039857     0.00056854
H        -0.96901104     0.10965804     1.91328441    -0.00004134     0.00108870     0.00051498
H        -1.02805288     0.19379383    -0.62225991    -0.00036847     0.00027077    -0.00049001
     6
  Step:    40            Position(A)                                  Velocity(au)
C        -0.03867172     0.00936917    -0.14151394    -0.00000064    -0.00005155    -0.00040677
N        -0.04059898    -0.08852965     1.43850367     0.00002446    -0.00013949     0.00034289
H         0.95912449     0.07375235    -0.58565340     0.00020853     0.00084305    -0.00051622
H         0.85174709     0.06412553     1.88303501    -0.00031184     0.00036999     0.00064485
H        -0.96890740     0.11576873     1.91596894     0.00007850     0.00111259     0.00044982
H        -1.02992658     0.19518410    -0.62498632    -0.00030754     0.00022712    -0.00049627
     6
  Step:    41            Position(A)                                  Velocity(au)
C        -0.03871354     0.00907384    -0.14367186    -0.00001464    -0.00005504    -0.00036545
N        -0.04050051    -0.08929808     1.44032520     0.00001133    -0.00013683     0.00030983
H         0.96044840     0.07859930    -0.58857499     0.00027282     0.00090409    -0.00054106
H         0.85032769     0.06609135     1.88683190    -0.00019978     0.00033446     0.00072257
H        -0.96813884     0.12202024     1.91828239     0.00019648     0.00113906     0.00038280
H        -1.03147001     0.19631745    -0.62777403    -0.00025256     0.00017973    -0.00051514
     6
  Step:    42            Position(A)                                  Velocity(au)
C        -0.03883427     0.00875780    -0.14557284    -0.00002860    -0.00005917    -0.00031280
N        -0.04047318    -0.09004935     1.44194484    -0.00000113    -0.00013328     0.00026928
H         0.96215460     0.08379381    -0.59166278     0.00034648     0.00096561    -0.00057963
H         0.84952821     0.06784027     1.89106042    -0.00009027     0.00029499     0.00079941
H        -0.96672511     0.12841998     1.92022055     0.00030955     0.00116316     0.00031659
H        -1.03273172     0.19718027    -0.63070786    -0.00020934     0.00013339    -0.00055105
     6
  Step:    43            Position(A)                                  Velocity(au)
C        -0.03903102     0.00841695    -0.14714446    -0.00004128    -0.00006403    -0.00024735
N        -0.04051303    -0.09077768     1.44331465    -0.00001304    -0.00012868     0.00022027
H         0.96429493     0.08931931    -0.59500992     0.00042613     0.00101901    -0.00063579
H         0.84932554     0.06936629     1.89570680     0.00001358     0.00025979     0.00087138
H        -0.96470226     0.13493342     1.92179710     0.00041535     0.00117576     0.00025460
H        -1.03379411     0.19779832    -0.63389168    -0.00018194     0.00009662    -0.00060376
     6
  Step:    44            Position(A)                                  Velocity(au)
C        -0.03929237     0.00804727    -0.14831757    -0.00005740    -0.00007773    -0.00019241
N        -0.04061789    -0.09147725     1.44438910    -0.00002764    -0.00013785     0.00018437
H         0.96688322     0.09510155    -0.59871796     0.00056243     0.00118099    -0.00079165
H         0.84967889     0.07072304     1.90072990     0.00012130     0.00026686     0.00104454
H        -0.96211604     0.14146704     1.92304573     0.00057381     0.00130734     0.00022347
H        -1.03475066     0.19825244    -0.63740760    -0.00018943     0.00008671    -0.00074564
     6