 Fermi distribution function

Calculation with static geometry


********************************************************************************
 iSCC Total electronic   Diff electronic      SCC error    
   11   -0.53751499E+01   -0.44586557E-12    0.54639014E-06
********************************************************************************

 Total charge:     1.00000000

 Atomic gross charges (e)
 Atom           Charge
    1       0.28615294
    2      -0.18572704
    3       0.15404258
    4       0.29049533
    5       0.28966800
    6       0.16536819

Nr. of electrons (up):     12.00000000
Atom populations (up)
 Atom       Population
    1       3.71384706
    2       5.18572704
    3       0.84595742
    4       0.70950467
    5       0.71033200
    6       0.83463181

l-shell populations (up)
 Atom Sh.   l       Population
    1   1   0       1.31593993
    1   2   1       2.39790713
    2   1   0       1.42076757
    2   2   1       3.76495946
    3   1   0       0.84595742
    4   1   0       0.70950467
    5   1   0       0.71033200
    6   1   0       0.83463181

Orbital populations (up)
 Atom Sh.   l   m       Population  Label
    1   1   0   0       1.31593993  s
    1   2   1  -1       0.54491324  p_y
    1   2   1   0       0.87875699  p_z
    1   2   1   1       0.97423690  p_x
    2   1   0   0       1.42076757  s
    2   2   1  -1       1.35500245  p_y
    2   2   1   0       1.06880206  p_z
    2   2   1   1       1.34115495  p_x
    3   1   0   0       0.84595742  s
    4   1   0   0       0.70950467  s
    5   1   0   0       0.71033200  s
    6   1   0   0       0.83463181  s

Fermi level:                        -0.4863335257 H          -13.2338 eV
Band energy:                        -8.8060762410 H         -239.6255 eV
TS:                                  0.0000000000 H            0.0000 eV
Band free energy (E-TS):            -8.8060762410 H         -239.6255 eV
Extrapolated E(0K):                 -8.8060762410 H         -239.6255 eV
Input / Output electrons (q):     12.0000000000     12.0000000000

Energy H0:                          -5.5064388204 H         -149.8378 eV
Energy SCC:                          0.1312889257 H            3.5726 eV
Total Electronic energy:            -5.3751498947 H         -146.2653 eV
Repulsive energy:                    0.1777919132 H            4.8380 eV
Total energy:                       -5.1973579815 H         -141.4273 eV
Extrapolated to 0:                  -5.1973579815 H         -141.4273 eV
Total Mermin free energy:           -5.1973579815 H         -141.4273 eV
Force related energy:               -5.1973579815 H         -141.4273 eV

SCC converged

Excitation Energy:                   0.0989883172 H            2.6936 eV

Total Forces
    1     -0.008696565678     -0.012362076703      0.059455960136
    2     -0.002451125117      0.012276838745     -0.055102024188
    3     -0.003579723209      0.014509128096      0.005138011558
    4     -0.009790137346     -0.011766734032     -0.002342879514
    5      0.016422381383      0.007417839997     -0.007586747961
    6      0.008095169967     -0.010074996103      0.000437679969

Maximal derivative component:        0.594560E-01 au


