|===============================================================================
|
|  DFTB+ release 20.1
|
|  Copyright (C) 2006 - 2020  DFTB+ developers group
|
|===============================================================================
|
|  When publishing results obtained with DFTB+, please cite the following
|  reference:
|
|  * DFTB+, a software package for efficient approximate density functional
|    theory based atomistic simulations, J. Chem. Phys. 152, 124101 (2020).
|    [doi: 10.1063/1.5143190]
|
|  You should also cite additional publications crediting the parametrization
|  data you use. Please consult the documentation of the SK-files for the
|  references.
|
|===============================================================================

Reading input file 'dftb_in.hsd'
Parser version: 8

--------------------------------------------------------------------------------
Reading SK-files:
Done.


Processed input in HSD format written to 'dftb_pin.hsd'

Starting initialization...
--------------------------------------------------------------------------------
WARNING!
-> Excited state forces are not implemented yet for fractional occupations, kT=  0.3158E-02K
OpenMP threads:              1
Chosen random seed:          506593237
Mode:                        Static calculation
Self consistent charges:     Yes
SCC-tolerance:                 0.100000E-05
Max. scc iterations:                    100
Shell resolved Hubbard:      No
Spin polarisation:           No
Nr. of up electrons:             6.000000
Nr. of down electrons:           6.000000
Periodic boundaries:         No
Electronic solver:           Relatively robust
Mixer:                       Broyden mixer
Mixing parameter:                  0.200000
Maximal SCC-cycles:                     100
Nr. of chrg. vec. in memory:              0
Electronic temperature:        0.100000E-07 H      0.272114E-06 eV
Initial charges:             Set automatically (system chrg:   0.100E+01)
Included shells:             C:  s, p
                             N:  s, p
                             H:  s
Extra options:
                             Mulliken analysis
                             Force calculation
Force type                   original
                             Eigenvector printing

--------------------------------------------------------------------------------

***  Geometry step: 0

 iSCC Total electronic   Diff electronic      SCC error    
    1   -0.53603558E+01    0.00000000E+00    0.91531417E+00
    2   -0.53691172E+01   -0.87613715E-02    0.61153101E+00
    3   -0.53742488E+01   -0.51315864E-02    0.14077511E+00
    4   -0.53690776E+01    0.51712363E-02    0.35913033E+00
    5   -0.53750969E+01   -0.60192929E-02    0.35451745E-01
    6   -0.53751308E+01   -0.33974641E-04    0.21960594E-01
    7   -0.53751499E+01   -0.19018495E-04    0.90257473E-03
    8   -0.53751499E+01   -0.39098538E-07    0.65090527E-04
    9   -0.53751499E+01    0.42094328E-10    0.71980565E-04
   10   -0.53751499E+01   -0.27382629E-09    0.28872343E-05
   11   -0.53751499E+01   -0.44586557E-12    0.54639014E-06
>> Charges saved for restart in charges.bin

Total Energy:                       -5.0983696642 H         -138.7337 eV
Extrapolated to 0:                  -5.1973579815 H         -141.4273 eV
Total Mermin free energy:           -5.0983696642 H         -138.7337 eV
Force related energy:               -5.1973579815 H         -141.4273 eV

--------------------------------------------------------------------------------
DFTB+ running times                          cpu [s]             wall clock [s]
--------------------------------------------------------------------------------
SCC                                    +     0.01  ( 52.0%)      0.03  ( 62.0%)
Post-SCC processing                    +     0.01  ( 42.7%)      0.01  ( 30.0%)
--------------------------------------------------------------------------------
Missing                                +     0.00  (  5.3%)      0.00  (  8.0%)
Total                                  =     0.02  (100.0%)      0.05  (100.0%)
--------------------------------------------------------------------------------
