     6
  Step:     0            Position(A)                                  Velocity(au)
C        -0.04204126     0.02425563    -0.00540023     0.00011705     0.00004821     0.00003639
N        -0.04072428    -0.05652392     1.31199677     0.00015544     0.00016889     0.00002419
H         0.96602723    -0.00700334    -0.48967704    -0.00025164    -0.00024699    -0.00015951
H         0.80159661    -0.12390768     1.81133855    -0.00155216    -0.00118084    -0.00053750
H        -0.94564135    -0.06261612     1.94314216    -0.00065371    -0.00073886     0.00032583
H        -0.96803534     0.02019386    -0.54038171    -0.00109733    -0.00075481    -0.00039869
     6
  Step:     1            Position(A)                                  Velocity(au)
C        -0.04138166     0.02452485    -0.00522929     0.00012294     0.00005022     0.00002557
N        -0.03995320    -0.05560111     1.31218778     0.00012463     0.00016881     0.00004490
H         0.96463571    -0.00834607    -0.49072443    -0.00025593    -0.00024383    -0.00022433
H         0.79373535    -0.13043182     1.80887660    -0.00130046    -0.00120852    -0.00034941
H        -0.94866091    -0.06663813     1.94452372    -0.00044618    -0.00073129     0.00017589
H        -0.97433809     0.01605062    -0.54294568    -0.00119430    -0.00076063    -0.00053083
     6
  Step:     2            Position(A)                                  Velocity(au)
C        -0.04069643     0.02480499    -0.00512056     0.00012641     0.00005218     0.00001368
N        -0.03936086    -0.05467729     1.31248794     0.00009051     0.00016922     0.00006413
H         0.96322749    -0.00967067    -0.49213107    -0.00025797    -0.00024029    -0.00029067
H         0.78737039    -0.13712813     1.80751628    -0.00100957    -0.00124347    -0.00013768
H        -0.95052228    -0.07061596     1.94506633    -0.00023198    -0.00072251     0.00002046
H        -0.98110020     0.01187303    -0.54618866    -0.00126452    -0.00076707    -0.00064639
     6
  Step:     3            Position(A)                                  Velocity(au)
C        -0.03999864     0.02509568    -0.00507967     0.00012757     0.00005405     0.00000081
N        -0.03896300    -0.05374974     1.31288944     0.00005405     0.00017013     0.00008205
H         0.96181330    -0.01097495    -0.49390457    -0.00025840    -0.00023635    -0.00035826
H         0.78269000    -0.14403618     1.80737034    -0.00069048    -0.00128546     0.00009076
H        -0.95119890    -0.07454284     1.94474760    -0.00001480    -0.00071258    -0.00013764
H        -0.98817276     0.00765838    -0.55001757    -0.00130762    -0.00077395    -0.00074481
     6
  Step:     4            Position(A)                                  Velocity(au)
C        -0.03930064     0.02539638    -0.00511170     0.00012656     0.00005581    -0.00001291
N        -0.03876943    -0.05281582     1.31338569     0.00001641     0.00017149     0.00009891
H         0.96040021    -0.01225664    -0.49605096    -0.00025788    -0.00023198    -0.00042677
H         0.77981563    -0.15119282     1.80850936    -0.00035606    -0.00133358     0.00032769
H        -0.95068425    -0.07841253     1.94356036     0.00020173    -0.00070154    -0.00029566
H        -0.99540737     0.00340491    -0.55433786    -0.00132397    -0.00078105    -0.00082599
     6
  Step:     5            Position(A)                                  Velocity(au)
C        -0.03861377     0.02570636    -0.00522098     0.00012359     0.00005741    -0.00002734
N        -0.03878346    -0.05187332     1.31397174    -0.00002122     0.00017318     0.00011502
H         0.95899158    -0.01351327    -0.49857426    -0.00025705    -0.00022711    -0.00049573
H         0.77879396    -0.15862831     1.81095591    -0.00002029    -0.00138618     0.00056402
H        -0.94899152    -0.08221914     1.94151250     0.00041393    -0.00068941    -0.00045076
H        -1.00265970    -0.00088793    -0.55905561    -0.00131449    -0.00078803    -0.00089016
     6
  Step:     6            Position(A)                                  Velocity(au)
C        -0.03794813     0.02602469    -0.00541095     0.00011888     0.00005882    -0.00004230
N        -0.03900162    -0.05092068     1.31464442    -0.00005757     0.00017503     0.00013067
H         0.95758719    -0.01474198    -0.50147593    -0.00025654    -0.00022164    -0.00056457
H         0.77959363    -0.16636245     1.81468173     0.00030269    -0.00144095     0.00079042
H        -0.94615439    -0.08595704     1.93862747     0.00061782    -0.00067618    -0.00059993
H        -1.00979240    -0.00521893    -0.56407928    -0.00128053    -0.00079451    -0.00093774
     6
  Step:     7            Position(A)                                  Velocity(au)
C        -0.03731252     0.02635019    -0.00568402     0.00011266     0.00005997    -0.00005757
N        -0.03941362    -0.04995735     1.31540205    -0.00009141     0.00017686     0.00014606
H         0.95618347    -0.01593938    -0.50475415    -0.00025690    -0.00021546    -0.00063256
H         0.78210727    -0.17440133     1.81960804     0.00059948    -0.00149508     0.00099786
H        -0.94222870    -0.08962073     1.93494557     0.00080901    -0.00066185    -0.00073983
H        -1.01667664    -0.00958481    -0.56932033    -0.00122371    -0.00080001    -0.00096926
     6
  Step:     8            Position(A)                                  Velocity(au)
C        -0.03671441     0.02668142    -0.00604141     0.00010519     0.00006082    -0.00007291
N        -0.04000270    -0.04898388     1.31624393    -0.00012161     0.00017844     0.00016130
H         0.95477386    -0.01710147    -0.50840304    -0.00025864    -0.00020845    -0.00069883
H         0.78615856    -0.18273506     1.82560926     0.00085841    -0.00154549     0.00117830
H        -0.93729489    -0.09320494     1.93052558     0.00098268    -0.00064648    -0.00086686
H        -1.02319324    -0.01397986    -0.57469365    -0.00114597    -0.00080407    -0.00098537
     6
  Step:     9            Position(A)                                  Velocity(au)
C        -0.03615987     0.02701666    -0.00648294     0.00009672     0.00006132    -0.00008804
N        -0.04074621    -0.04800199     1.31716954    -0.00014714     0.00017956     0.00017631
H         0.95334926    -0.01822364    -0.51241196    -0.00026215    -0.00020052    -0.00076242
H         0.79151381    -0.19133688     1.83251985     0.00107023    -0.00158910     0.00132519
H        -0.93146043    -0.09670489     1.92544649     0.00113362    -0.00063021    -0.00097714
H        -1.02923419    -0.01839580    -0.58011806    -0.00104947    -0.00080619    -0.00098681
     6
  Step:    10            Position(A)                                  Velocity(au)
C        -0.03565366     0.02735394    -0.00700695     0.00008750     0.00006142    -0.00010267
N        -0.04161647    -0.04701450     1.31817767    -0.00016719     0.00018005     0.00019091
H         0.95189866    -0.01930068    -0.51676499    -0.00026773    -0.00019157    -0.00082233
H         0.79789646    -0.20016374     1.84014348     0.00122858    -0.00162316     0.00143391
H        -0.92486180    -0.10011683     1.91980872     0.00125645    -0.00061328    -0.00106672
H        -1.03470339    -0.02282182    -0.58551659    -0.00093663    -0.00080594    -0.00097445
     6
  Step:    11            Position(A)                                  Velocity(au)
C        -0.03519918     0.02769104    -0.00761019     0.00007778     0.00006110    -0.00011652
N        -0.04258186    -0.04602516     1.31926560    -0.00018116     0.00017976     0.00020473
H         0.95040968    -0.02032701    -0.52144075    -0.00027556    -0.00018157    -0.00087757
H         0.80500315    -0.20915852     1.84826363     0.00133039    -0.00164547     0.00150202
H        -0.91766509    -0.10343849     1.91373437     0.00134590    -0.00059612    -0.00113177
H        -1.03951803    -0.02724465    -0.59081709    -0.00081013    -0.00080300    -0.00094934
     6
  Step:    12            Position(A)                                  Velocity(au)
C        -0.03479858     0.02802560    -0.00828788     0.00006779     0.00006033    -0.00012932
N        -0.04360803    -0.04503827     1.32042837    -0.00018869     0.00017865     0.00021736
H         0.94886929    -0.02129680    -0.52641257    -0.00028570    -0.00017051    -0.00092730
H         0.81252210    -0.21825319     1.85665592     0.00137571    -0.00165456     0.00152925
H        -0.91006568    -0.10667025     1.90736655     0.00139713    -0.00057929    -0.00116891
H        -1.04360958    -0.03164957    -0.59595317    -0.00067280    -0.00079721    -0.00091273
     6
  Step:    13            Position(A)                                  Velocity(au)
C        -0.03445286     0.02835517    -0.00903382     0.00005775     0.00005911    -0.00014084
N        -0.04465916    -0.04405839     1.32165849    -0.00018970     0.00017673     0.00022835
H         0.94726448    -0.02220417    -0.53164918    -0.00029810    -0.00015844    -0.00097085
H         0.82014807    -0.22737315     1.86509883     0.00136731    -0.00164982     0.00151733
H        -0.90228436    -0.10981576     1.90086615     0.00140635    -0.00056350    -0.00117550
H        -1.04692477    -0.03602100    -0.60086515    -0.00052757    -0.00078858    -0.00086605
     6
  Step:    14            Position(A)                                  Velocity(au)
C        -0.03416192     0.02867731    -0.00984059     0.00004783     0.00005747    -0.00015091
N        -0.04569938    -0.04308993     1.32294585    -0.00018431     0.00017406     0.00023728
H         0.94558284    -0.02304352    -0.53711586    -0.00031263    -0.00014543    -0.00100785
H         0.82759613    -0.23644184     1.87338384     0.00131009    -0.00163151     0.00146957
H        -0.89456124    -0.11288257     1.89440711     0.00137115    -0.00054951    -0.00115004
H        -1.04942582    -0.04034334    -0.60550100    -0.00037732    -0.00077726    -0.00081088
     6
  Step:    15            Position(A)                                  Velocity(au)
C        -0.03392476     0.02898968    -0.01069990     0.00003821     0.00005544    -0.00015943
N        -0.04669400    -0.04213678     1.32427812    -0.00017291     0.00017078     0.00024385
H         0.94381305    -0.02380969    -0.54277591    -0.00032907    -0.00013159    -0.00103818
H         0.83461158    -0.24538509     1.88132302     0.00121047    -0.00160061     0.00139049
H        -0.88714678    -0.11588238     1.88816957     0.00129086    -0.00053810    -0.00109232
H        -1.05109041    -0.04460197    -0.60981727    -0.00022481    -0.00076358    -0.00074891
     6
  Step:    16            Position(A)                                  Velocity(au)
C        -0.03373953     0.02929015    -0.01160293     0.00002900     0.00005306    -0.00016634
N        -0.04761074    -0.04120210     1.32564138    -0.00015603     0.00016705     0.00024786
H         0.94194517    -0.02449814    -0.54859218    -0.00034718    -0.00011705    -0.00106204
H         0.84097701    -0.25413541     1.88875462     0.00107561    -0.00155870     0.00128522
H        -0.88029171    -0.11883089     1.88233236     0.00116682    -0.00052999    -0.00100357
H        -1.05191093    -0.04878410    -0.61377967    -0.00007253    -0.00074800    -0.00068189
     6
  Step:    17            Position(A)                                  Velocity(au)
C        -0.03360383     0.02957683    -0.01254067     0.00002029     0.00005038    -0.00017167
N        -0.04842071    -0.04028811     1.32702098    -0.00013440     0.00016306     0.00024929
H         0.93997110    -0.02510500    -0.55452874    -0.00036663    -0.00010193    -0.00107985
H         0.84651464    -0.26263419     1.89554566     0.00091276    -0.00150768     0.00115910
H        -0.87423438    -0.12174737     1.87706380     0.00100242    -0.00052571    -0.00088652
H        -1.05189309    -0.05287958    -0.61736326     0.00007738    -0.00073108    -0.00061147
     6
  Step:    18            Position(A)                                  Velocity(au)
C        -0.03351484     0.02984815    -0.01350424     0.00001212     0.00004747    -0.00017547
N        -0.04909930    -0.03939607     1.32840244    -0.00010883     0.00015898     0.00024828
H         0.93788457    -0.02562705    -0.56055221    -0.00038711    -0.00008633    -0.00109223
H         0.85108638    -0.27083386     1.90159239     0.00072881    -0.00144962     0.00101726
H        -0.86918928    -0.12465344     1.87251359     0.00080294    -0.00052557    -0.00074522
H        -1.05105387    -0.05688125    -0.62055212     0.00022322    -0.00071339    -0.00053921
     6
  Step:    19            Position(A)                                  Velocity(au)
C        -0.03346949     0.03010283    -0.01448520     0.00000453     0.00004436    -0.00017786
N        -0.04962673    -0.03852633     1.32977241    -0.00008021     0.00015495     0.00024510
H         0.93568124    -0.02606165    -0.56663260    -0.00040830    -0.00007032    -0.00109985
H         0.85459119    -0.27869853     1.90681874     0.00052994    -0.00138657     0.00086433
H        -0.86533635    -0.12757163     1.86880543     0.00057533    -0.00052957    -0.00058482
H        -1.04941940    -0.06078523    -0.62333862     0.00036366    -0.00069551    -0.00046644
     6
  Step:    20            Position(A)                                  Velocity(au)
C        -0.03346464     0.03033991    -0.01547571    -0.00000250     0.00004112    -0.00017893
N        -0.04998838    -0.03767847     1.33111934    -0.00004946     0.00015109     0.00024012
H         0.93335864    -0.02640656    -0.57274378    -0.00042986    -0.00005396    -0.00110339
H         0.85696062    -0.28620364     1.91117327     0.00032143    -0.00132042     0.00070430
H        -0.86281193    -0.13052355     1.86603101     0.00032782    -0.00053736    -0.00041131
H        -1.04702284    -0.06459078    -0.62572243     0.00049770    -0.00067794    -0.00039430
     6
  Step:    21            Position(A)                                  Velocity(au)
C        -0.03349719     0.03055866    -0.01646857    -0.00000898     0.00003778    -0.00017879
N        -0.05017497    -0.03685154     1.33243403    -0.00001751     0.00014746     0.00023375
H         0.93091629    -0.02665975    -0.57886343    -0.00045143    -0.00003723    -0.00110345
H         0.85815419    -0.29333501     1.91462576     0.00010775    -0.00125279     0.00054054
H        -0.86170256    -0.13352810     1.86424620     0.00006949    -0.00054827    -0.00023115
H        -1.04390255    -0.06829999    -0.62770936     0.00062458    -0.00066110    -0.00032375
     6
  Step:    22            Position(A)                                  Velocity(au)
C        -0.03356418     0.03075859    -0.01745718    -0.00001494     0.00003436    -0.00017755
N        -0.05018247    -0.03604426     1.33370982     0.00001472     0.00014409     0.00022644
H         0.92835573    -0.02681919    -0.58497255    -0.00047260    -0.00002012    -0.00110048
H         0.85815476    -0.30008745     1.91716373    -0.00010736    -0.00118506     0.00037584
H        -0.86204178    -0.13659970     1.86346937    -0.00019020    -0.00056135    -0.00005096
H        -1.04010099    -0.07191735    -0.62931037     0.00074366    -0.00064534    -0.00025558
     6
  Step:    23            Position(A)                                  Velocity(au)
C        -0.03366275     0.03093934    -0.01843545    -0.00002041     0.00003089    -0.00017524
N        -0.05001189    -0.03525525     1.33494261     0.00004638     0.00014098     0.00021862
H         0.92568069    -0.02688269    -0.59105475    -0.00049295    -0.00000258    -0.00109480
H         0.85696486    -0.30646334     1.91878944    -0.00032067    -0.00111838     0.00021257
H        -0.86380967    -0.13974687     1.86368170    -0.00044193    -0.00057540     0.00012283
H        -1.03566406    -0.07544924    -0.63054069     0.00085430    -0.00063090    -0.00019044
     6
  Step:    24            Position(A)                                  Velocity(au)
C        -0.03379022     0.03110069    -0.01939767    -0.00002541     0.00002739    -0.00017193
N        -0.04966892    -0.03448320     1.33613060     0.00007665     0.00013808     0.00021064
H         0.92289720    -0.02684773    -0.59709544    -0.00051202     0.00001548    -0.00108659
H         0.85460394    -0.31247146     1.91951760    -0.00052927    -0.00105375     0.00005283
H        -0.86693535    -0.14297120     1.86482949    -0.00067694    -0.00058910     0.00028428
H        -1.03064116    -0.07890344    -0.63141919     0.00095579    -0.00061797    -0.00012897
     6
  Step:    25            Position(A)                                  Velocity(au)
C        -0.03394397     0.03124251    -0.02033834    -0.00002994     0.00002387    -0.00016762
N        -0.04916350    -0.03372695     1.33727392     0.00010482     0.00013538     0.00020280
H         0.92001376    -0.02671136    -0.60308097    -0.00052932     0.00003413    -0.00107590
H         0.85110701    -0.31812610     1.91937412    -0.00073034    -0.00099209    -0.00010142
H        -0.87130194    -0.14626689     1.86682807    -0.00088750    -0.00060108     0.00042823
H        -1.02508549    -0.08228880    -0.63196806     0.00104733    -0.00060667    -0.00007173
     6
  Step:    26            Position(A)                                  Velocity(au)
C        -0.03412144     0.03136473    -0.02125205    -0.00003400     0.00002033    -0.00016233
N        -0.04850933    -0.03298554     1.33837412     0.00013024     0.00013282     0.00019530
H         0.91704141    -0.02647019    -0.60899802    -0.00054437     0.00005345    -0.00106271
H         0.84652425    -0.32344679     1.91839555    -0.00092105    -0.00093431    -0.00024821
H        -0.87675364    -0.14962086     1.86956700    -0.00106725    -0.00061005     0.00055052
H        -1.01905466    -0.08561498    -0.63221268     0.00112800    -0.00059713    -0.00001931
     6
  Step:    27            Position(A)                                  Velocity(au)
C        -0.03432002     0.03146737    -0.02213345    -0.00003759     0.00001680    -0.00015604
N        -0.04772321    -0.03225814     1.33943365     0.00015239     0.00013039     0.00018825
H         0.91399368    -0.02612030    -0.61483313    -0.00055673     0.00007353    -0.00104694
H         0.84092136    -0.32845835     1.91662918    -0.00109846    -0.00088143    -0.00038552
H        -0.88310434    -0.15301328     1.87291617    -0.00121149    -0.00061489     0.00064814
H        -1.01261125    -0.08889233    -0.63218156     0.00119681    -0.00058947     0.00002770
     6
  Step:    28            Position(A)                                  Velocity(au)
C        -0.03453698     0.03155049    -0.02297715    -0.00004066     0.00001329    -0.00014876
N        -0.04682452    -0.03154397     1.34045528     0.00017087     0.00012811     0.00018166
H         0.91088645    -0.02565727    -0.62057250    -0.00056599     0.00009446    -0.00102854
H         0.83438024    -0.33319141     1.91413348    -0.00125951    -0.00083457    -0.00051122
H        -0.89014730    -0.15641877     1.87673253    -0.00131733    -0.00061469     0.00071930
H        -1.00582324    -0.09213194    -0.63190649     0.00125274    -0.00058385     0.00006866
     6
  Step:    29            Position(A)                                  Velocity(au)
C        -0.03476939     0.03161425    -0.02377776    -0.00004317     0.00000981    -0.00014050
N        -0.04583448    -0.03084211     1.34144158     0.00018539     0.00012600     0.00017547
H         0.90773761    -0.02507615    -0.62620196    -0.00057183     0.00011635    -0.00100749
H         0.82699961    -0.33768308     1.91097845    -0.00140112    -0.00079500    -0.00062320
H        -0.89766525    -0.15980770     1.88086688    -0.00138368    -0.00060886     0.00076344
H        -0.99876436    -0.09534578    -0.63142265     0.00129476    -0.00058044     0.00010297
     6
  Step:    30            Position(A)                                  Velocity(au)
C        -0.03501411     0.03165892    -0.02452990    -0.00004509     0.00000639    -0.00013126
N        -0.04477555    -0.03015137     1.34239454     0.00019578     0.00012415     0.00016955
H         0.90456659    -0.02437143    -0.63170719    -0.00057405     0.00013928    -0.00098379
H         0.81889509    -0.34197775     1.90724586    -0.00152028    -0.00076416    -0.00071934
H        -0.90543969    -0.16314781     1.88517007    -0.00141109    -0.00059705     0.00078107
H        -0.99151360    -0.09854692    -0.63076846     0.00132204    -0.00057949     0.00013007
     6
  Step:    31            Position(A)                                  Velocity(au)
C        -0.03526771     0.03168482    -0.02522837    -0.00004637     0.00000303    -0.00012110
N        -0.04367085    -0.02947008     1.34331525     0.00020198     0.00012266     0.00016371
H         0.90139376    -0.02353698    -0.63707396    -0.00057254     0.00016338    -0.00095754
H         0.81019886    -0.34612793     1.90302897    -0.00161411    -0.00074360    -0.00079761
H        -0.91325932    -0.16640571     1.88949858    -0.00140153    -0.00057921     0.00077364
H        -0.98415435    -0.10174974    -0.62998520     0.00133392    -0.00058127     0.00014949
     6
  Step:    32            Position(A)                                  Velocity(au)
C        -0.03552652     0.03169241    -0.02586813    -0.00004696    -0.00000024    -0.00011006
N        -0.04254358    -0.02879592     1.34420365     0.00020402     0.00012165     0.00015777
H         0.89823980    -0.02256596    -0.64228848    -0.00056733     0.00018881    -0.00092888
H         0.80105853    -0.35019489     1.89843188    -0.00168008    -0.00073496    -0.00085624
H        -0.92092724    -0.16954837     1.89371909    -0.00135810    -0.00055554     0.00074329
H        -0.97677322    -0.10497017    -0.62911650     0.00132997    -0.00058610     0.00016086
     6
  Step:    33            Position(A)                                  Velocity(au)
C        -0.03578661     0.03168222    -0.02644453    -0.00004682    -0.00000340    -0.00009822
N        -0.04141654    -0.02812585     1.34505854     0.00020201     0.00012128     0.00015151
H         0.89512500    -0.02145068    -0.64733763    -0.00055857     0.00021574    -0.00089796
H         0.79163478    -0.35424894     1.89356792    -0.00171617    -0.00073989    -0.00089376
H        -0.92826574    -0.17254420     1.89771164    -0.00128461    -0.00052639     0.00069267
H        -0.96945883    -0.10822592    -0.62820780     0.00131002    -0.00059435     0.00016393
     6
  Step:    34            Position(A)                                  Velocity(au)
C        -0.03604384     0.03165485    -0.02695330    -0.00004593    -0.00000645    -0.00008566
N        -0.04031170    -0.02745600     1.34587759     0.00019615     0.00012169     0.00014476
H         0.89206867    -0.02018247    -0.65220925    -0.00054649     0.00024437    -0.00086500
H         0.78209819    -0.35836930     1.88855751    -0.00172097    -0.00075999    -0.00090918
H        -0.93511972    -0.17536393     1.90137172    -0.00118530    -0.00049222     0.00062464
H        -0.96230000    -0.11153662    -0.62730542     0.00127423    -0.00060638     0.00015865
     6
  Step:    35            Position(A)                                  Velocity(au)
C        -0.03629394     0.03161096    -0.02739076    -0.00004426    -0.00000939    -0.00007250
N        -0.03924987    -0.02678168     1.34665751     0.00018668     0.00012303     0.00013736
H         0.88908856    -0.01875143    -0.65689217    -0.00053143     0.00027495    -0.00083015
H         0.77262530    -0.36264359     1.88352535    -0.00169391    -0.00079667    -0.00090204
H        -0.94135832    -0.17798114     1.90461127    -0.00106453    -0.00045356     0.00054216
H        -0.95538393    -0.11492391    -0.62645542     0.00122306    -0.00062258     0.00014516
     6
  Step:    36            Position(A)                                  Velocity(au)
C        -0.03653258     0.03155120    -0.02775388    -0.00004181    -0.00001221    -0.00005886
N        -0.03825028    -0.02609744     1.34739433     0.00017390     0.00012543     0.00012921
H         0.88620040    -0.01714630    -0.66137619    -0.00051376     0.00030778    -0.00079359
H         0.76339330    -0.36716651     1.87859678    -0.00163531    -0.00085110    -0.00087258
H        -0.94687471    -0.18037238     1.90735846    -0.00092651    -0.00041094     0.00044807
H        -0.94879437    -0.11841138    -0.62570253     0.00115724    -0.00064329     0.00012379
     6
  Step:    37            Position(A)                                  Velocity(au)
C        -0.03675545     0.03147621    -0.02804040    -0.00003859    -0.00001492    -0.00004487
N        -0.03733036    -0.02539721     1.34808376     0.00015816     0.00012898     0.00012029
H         0.88341762    -0.01535416    -0.66565189    -0.00049392     0.00034317    -0.00075542
H         0.75457464    -0.37203811     1.87389382    -0.00154657    -0.00092407    -0.00082175
H        -0.95158517    -0.18251709     1.90955710    -0.00077522    -0.00036483     0.00034508
H        -0.94261028    -0.12202461    -0.62508906     0.00107774    -0.00066889     0.00009507
     6
  Step:    38            Position(A)                                  Velocity(au)
C        -0.03695834     0.03138659    -0.02824893    -0.00003463    -0.00001754    -0.00003072
N        -0.03650538    -0.02467445     1.34872150     0.00013987     0.00013375     0.00011065
H         0.88075113    -0.01336028    -0.66971039    -0.00047236     0.00038148    -0.00071566
H         0.74633057    -0.37736139     1.86953070    -0.00143022    -0.00101585    -0.00075136
H        -0.95542744    -0.18439736     1.91116558    -0.00061430    -0.00031564     0.00023566
H        -0.93690406    -0.12579095    -0.62465367     0.00098585    -0.00069967     0.00005977
     6
  Step:    39            Position(A)                                  Velocity(au)
C        -0.03713728     0.03128283    -0.02837910    -0.00002996    -0.00002008    -0.00001658
N        -0.03578811    -0.02392244     1.34930377     0.00011949     0.00013974     0.00010039
H         0.87820918    -0.01114788    -0.67354300    -0.00044956     0.00042311    -0.00067431
H         0.73880452    -0.38323924     1.86560904    -0.00128997    -0.00112614    -0.00066406
H        -0.95835862    -0.18599743     1.91215554    -0.00044695    -0.00026369     0.00012205
H        -0.93174002    -0.12973935    -0.62442999     0.00088305    -0.00073594     0.00001889
     6
  Step:    40            Position(A)                                  Velocity(au)
C        -0.03728851     0.03116527    -0.02843168    -0.00002465    -0.00002258    -0.00000270
N        -0.03518869    -0.02313454     1.34982769     0.00009753     0.00014692     0.00008971
H         0.87579721    -0.00869781    -0.67714092    -0.00042598     0.00046851    -0.00063126
H         0.73211585    -0.38977086     1.86221316    -0.00113063    -0.00125398    -0.00056329
H        -0.96035254    -0.18730307     1.91251050    -0.00027610    -0.00020921     0.00000633
H        -0.92717328    -0.13390057    -0.62444551     0.00077114    -0.00077792    -0.00002635
     6
  Step:    41            Position(A)                                  Velocity(au)
C        -0.03740877     0.03103412    -0.02840883    -0.00001878    -0.00002507     0.00001066
N        -0.03471406    -0.02230449     1.35029173     0.00007458     0.00015518     0.00007891
H         0.87351808    -0.00598850    -0.68049463    -0.00040209     0.00051812    -0.00058632
H         0.72635359    -0.39704848     1.85940593    -0.00095811    -0.00139774    -0.00045325
H        -0.96139915    -0.18830134     1.91222521    -0.00010452    -0.00015237    -0.00010954
H        -0.92324797    -0.13830607    -0.62472014     0.00065212    -0.00082574    -0.00007448
     6
  Step:    42            Position(A)                                  Velocity(au)
C        -0.03749525     0.03088936    -0.02831434    -0.00001245    -0.00002758     0.00002318
N        -0.03436787    -0.02142672     1.35069608     0.00005126     0.00016436     0.00006831
H         0.87137199    -0.00299564    -0.68359360    -0.00037836     0.00057246    -0.00053925
H         0.72157149    -0.40515364     1.85722492    -0.00077908    -0.00155516    -0.00033878
H        -0.96150279    -0.18897991     1.91130496     0.00006525    -0.00009321    -0.00022363
H        -0.91999643    -0.14298821    -0.62526522     0.00052821    -0.00087953    -0.00012385
     6
  Step:    43            Position(A)                                  Velocity(au)
C        -0.03754572     0.03073079    -0.02815388    -0.00000576    -0.00003015     0.00003447
N        -0.03415023    -0.02049666     1.35104307     0.00002822     0.00017426     0.00005834
H         0.86935644     0.00030805    -0.68642591    -0.00035527     0.00063207    -0.00048975
H         0.71778444    -0.41415385     1.85567961    -0.00060078    -0.00172337    -0.00022513
H        -0.96068145    -0.18932658     1.90976545     0.00023069    -0.00003172    -0.00033400
H        -0.91743812    -0.14798011    -0.62608237     0.00040183    -0.00093939    -0.00017257
     6
  Step:    44            Position(A)                                  Velocity(au)
C        -0.03755853     0.03055794    -0.02793538     0.00000119    -0.00003281     0.00004407
N        -0.03405765    -0.01951093     1.35133742     0.00000611     0.00018463     0.00004945
H         0.86746619     0.00395328    -0.68897785    -0.00033333     0.00069760    -0.00043745
H         0.71496657    -0.42410015     1.85474989    -0.00043067    -0.00189916    -0.00011773
H        -0.95896663    -0.18932864     1.90763298     0.00038926     0.00003225    -0.00043860
H        -0.91557877    -0.15331570    -0.62716248     0.00027558    -0.00100545    -0.00021860
     6