     6
  Step:   300            Position(A)                                  Velocity(au)
C        -0.03423249     0.01490745     0.02046528    -0.00002215    -0.00002828     0.00013213
N        -0.04713358    -0.05530707     1.29389384     0.00006627     0.00000725    -0.00016068
H         0.15712129    -0.91193297    -0.53624361    -0.00155997    -0.00026177    -0.00022830
H        -0.00548950     0.79280497     1.86478814    -0.00213269    -0.00005342     0.00032842
H        -0.08303131    -0.96195579     1.76428230     0.00145995     0.00016976     0.00044460
H        -0.21863638     1.00224446    -0.42507263     0.00157581     0.00038173     0.00011366
