     6
  Step:     0            Position(A)                                  Velocity(au)
C        -0.03234455     0.02685109     0.01365695     0.00010778     0.00002829    -0.00015958
N        -0.03679366    -0.06523728     1.30826764     0.00008849     0.00002995     0.00018816
H         0.88955841    -0.06337714    -0.54567604     0.00006987    -0.00018685    -0.00009469
H         0.80025966    -0.07071021     1.82583066    -0.00030606    -0.00025122    -0.00062838
H        -0.98807978    -0.01284907     1.79488044    -0.00122544    -0.00024453     0.00050379
H        -1.01795930     0.06375965    -0.52587859    -0.00105238    -0.00007065    -0.00049399
     6
  Step:     1            Position(A)                                  Velocity(au)
C        -0.03177981     0.02702109     0.01269326     0.00009816     0.00003384    -0.00019234
N        -0.03637874    -0.06508411     1.30937358     0.00006188     0.00002621     0.00021549
H         0.89018728    -0.06445320    -0.54650630     0.00015919    -0.00020677    -0.00020892
H         0.79912162    -0.07204652     1.82289315    -0.00010153    -0.00023793    -0.00043991
H        -0.99437072    -0.01420299     1.79758825    -0.00106455    -0.00025126     0.00048109
H        -1.02365456     0.06337192    -0.52870430    -0.00102268    -0.00007148    -0.00053500
     6
  Step:     2            Position(A)                                  Velocity(au)
C        -0.03127113     0.02722118     0.01155369     0.00008754     0.00003932    -0.00022408
N        -0.03611700    -0.06495067     1.31062410     0.00003293     0.00002275     0.00024133
H         0.89129924    -0.06563830    -0.54796063     0.00024570    -0.00022689    -0.00032252
H         0.79914936    -0.07331203     1.82102008     0.00011647    -0.00022556    -0.00024209
H        -0.99972102    -0.01559673     1.80014134    -0.00088449    -0.00025926     0.00044883
H        -1.02914271     0.06297796    -0.53172906    -0.00097839    -0.00007298    -0.00056778
     6
  Step:     3            Position(A)                                  Velocity(au)
C        -0.03082311     0.02745082     0.01024430     0.00007621     0.00004469    -0.00025471
N        -0.03601887    -0.06483543     1.31201107     0.00000245     0.00001957     0.00026579
H         0.89287253    -0.06693286    -0.55003111     0.00032734    -0.00024701    -0.00043418
H         0.80039454    -0.07451168     1.82024734     0.00034010    -0.00021403    -0.00004020
H        -1.00403721    -0.01703638     1.80249343    -0.00068893    -0.00026829     0.00040908
H        -1.03434723     0.06257430    -0.53490952    -0.00092068    -0.00007511    -0.00059306
     6
  Step:     4            Position(A)                                  Velocity(au)
C        -0.03043873     0.02770932     0.00877170     0.00006445     0.00004993    -0.00028410
N        -0.03609027    -0.06473696     1.31352702    -0.00002873     0.00001662     0.00028893
H         0.89487443    -0.06833610    -0.55270272     0.00040208    -0.00026691    -0.00054252
H         0.80286391    -0.07564968     1.82058105     0.00056099    -0.00020314     0.00016032
H        -1.00724549    -0.01852697     1.80460931    -0.00048131    -0.00027810     0.00036378
H        -1.03919837     0.06215764    -0.53820649    -0.00085059    -0.00007778    -0.00061147
     6
  Step:     5            Position(A)                                  Velocity(au)
C        -0.03011954     0.02799585     0.00714313     0.00005252     0.00005499    -0.00031205
N        -0.03633246    -0.06465396     1.31516503    -0.00005975     0.00001390     0.00031082
H         0.89726160    -0.06984642    -0.55595319     0.00046798    -0.00028638    -0.00064613
H         0.80651824    -0.07672917     1.82199739     0.00077066    -0.00019266     0.00035398
H        -1.00929117    -0.02007209     1.80646441    -0.00026510    -0.00028841     0.00031479
H        -1.04363213     0.06172529    -0.54158428    -0.00076907    -0.00008088    -0.00062354
     6
  Step:     6            Position(A)                                  Velocity(au)
C        -0.02986572     0.02830933     0.00536682     0.00004064     0.00005981    -0.00033831
N        -0.03674218    -0.06458531     1.31691843    -0.00008976     0.00001136     0.00033138
H         0.89998067    -0.07146088    -0.55975287     0.00052316    -0.00030510    -0.00074351
H         0.81127288    -0.07775181     1.82444348     0.00096084    -0.00018227     0.00053548
H        -1.01013808    -0.02167389     1.80804406    -0.00004385    -0.00029890     0.00026390
H        -1.04758993     0.06127510    -0.54501013    -0.00067706    -0.00008431    -0.00062967
     6
  Step:     7            Position(A)                                  Velocity(au)
C        -0.02967621     0.02864838     0.00345239     0.00002905     0.00006434    -0.00036254
N        -0.03731167    -0.06453002     1.31878021    -0.00011793     0.00000899     0.00035048
H         0.90296895    -0.07317489    -0.56406446     0.00056593    -0.00032271    -0.00083311
H         0.81700038    -0.07871764     1.82783913     0.00112388    -0.00017168     0.00069988
H        -1.00976958    -0.02333285     1.80934340     0.00017850    -0.00030921     0.00021296
H        -1.05101846     0.06080554    -0.54845356    -0.00057560    -0.00008793    -0.00063018
     6
  Step:     8            Position(A)                                  Velocity(au)
C        -0.02954880     0.02901130     0.00141125     0.00001796     0.00006848    -0.00038434
N        -0.03802890    -0.06448723     1.32074241    -0.00014347     0.00000676     0.00036784
H         0.90615530    -0.07498192    -0.56884262     0.00059478    -0.00033882    -0.00091330
H         0.82353516    -0.07962499     1.83207962     0.00125320    -0.00016059     0.00084284
H        -1.00819053    -0.02504756     1.81036763     0.00039753    -0.00031896     0.00016391
H        -1.05387006     0.06031575    -0.55188586    -0.00046584    -0.00009160    -0.00062535
     6
  Step:     9            Position(A)                                  Velocity(au)
C        -0.02948020     0.02939594    -0.00074300     0.00000757     0.00007217    -0.00040326
N        -0.03887771    -0.06445621     1.32279547    -0.00016562     0.00000466     0.00038308
H         0.90946149    -0.07687336    -0.57403388     0.00060858    -0.00035300    -0.00098254
H         0.83068008    -0.08047060     1.83703943     0.00134367    -0.00014873     0.00096083
H        -1.00543018    -0.02681456     1.81113260     0.00060826    -0.00032775     0.00011880
H        -1.05610347     0.05980569    -0.55527972    -0.00034920    -0.00009516    -0.00061540
     6
  Step:    10            Position(A)                                  Velocity(au)
C        -0.02946613     0.02979972    -0.00299432    -0.00000194     0.00007530    -0.00041882
N        -0.03983826    -0.06443631     1.32492757    -0.00018373     0.00000268     0.00039575
H         0.91280403    -0.07883845    -0.57957689     0.00060659    -0.00036486    -0.00103940
H         0.83821479    -0.08124990     1.84257673     0.00139189    -0.00013592     0.00105128
H        -1.00154529    -0.02862825     1.81166550     0.00080518    -0.00033518     0.00007981
H        -1.05768511     0.05927612    -0.55860914    -0.00022738    -0.00009846    -0.00060064
     6
  Step:    11            Position(A)                                  Velocity(au)
C        -0.02950143     0.03021959    -0.00532414    -0.00001041     0.00007781    -0.00043059
N        -0.04088737    -0.06442693     1.32712431    -0.00019725     0.00000081     0.00040537
H         0.91609652    -0.08086433    -0.58540316     0.00058860    -0.00037406    -0.00108272
H         0.84590496    -0.08195738     1.84853859     0.00139640    -0.00012205     0.00111271
H        -0.99662294    -0.03048086     1.81200555     0.00098245    -0.00034088     0.00004918
H        -1.05859057     0.05872869    -0.56184968    -0.00010234    -0.00010134    -0.00058144
     6
  Step:    12            Position(A)                                  Velocity(au)
C        -0.02958016     0.03065213    -0.00771157    -0.00001770     0.00007963    -0.00043821
N        -0.04199921    -0.06442747     1.32936847    -0.00020579    -0.00000095     0.00041145
H         0.91925238    -0.08293634    -0.59143842     0.00055498    -0.00038031    -0.00111168
H         0.85351279    -0.08258704     1.85476682     0.00135778    -0.00010710     0.00114486
H        -0.99078221    -0.03236268     1.81220432     0.00113424    -0.00034454     0.00002914
H        -1.05880632     0.05816591    -0.56497898     0.00002364    -0.00010365    -0.00055831
     6
  Step:    13            Position(A)                                  Velocity(au)
C        -0.02969572     0.03109355    -0.01013377    -0.00002372     0.00008071    -0.00044143
N        -0.04314602    -0.06443734     1.33164020    -0.00020910    -0.00000258     0.00041360
H         0.92218774    -0.08503845    -0.59760447     0.00050664    -0.00038346    -0.00112591
H         0.86080741    -0.08313292     1.86110409     0.00127850    -0.00009115     0.00114860
H        -0.98417398    -0.03426240     1.81232539     0.00125508    -0.00034595     0.00002171
H        -1.05833107     0.05759107    -0.56797744     0.00014817    -0.00010527    -0.00053190
     6
  Step:    14            Position(A)                                  Velocity(au)
C        -0.02984109     0.03153986    -0.01256664    -0.00002842     0.00008105    -0.00044016
N        -0.04429895    -0.06445589     1.33391743    -0.00020712    -0.00000409     0.00041154
H         0.92482461    -0.08715383    -0.60382164     0.00044507    -0.00038349    -0.00112557
H         0.86757424    -0.08358951     1.86739956     0.00116268    -0.00007433     0.00112586
H        -0.97697826    -0.03616759     1.81244312     0.00134036    -0.00034501     0.00002860
H        -1.05717669     0.05700812    -0.57082901     0.00026877    -0.00010610    -0.00050300
     6
  Step:    15            Position(A)                                  Velocity(au)
C        -0.03000897     0.03198699    -0.01498557    -0.00003177     0.00008066    -0.00043444
N        -0.04542910    -0.06448245     1.33617658    -0.00020000    -0.00000546     0.00040514
H         0.92709375    -0.08926561    -0.61001152     0.00037225    -0.00038050    -0.00111135
H         0.87362347    -0.08395221     1.87351435     0.00101576    -0.00005685     0.00107951
H        -0.96939933    -0.03806537     1.81264069     0.00138669    -0.00034174     0.00005105
H        -1.05536844     0.05642156    -0.57352192     0.00038309    -0.00010608    -0.00047251
     6
  Step:    16            Position(A)                                  Velocity(au)
C        -0.03019207     0.03243098    -0.01736632    -0.00003381     0.00007958    -0.00042450
N        -0.04650850    -0.06451626     1.33839344    -0.00018803    -0.00000669     0.00039445
H         0.92893719    -0.09135763    -0.61609984     0.00029045    -0.00037476    -0.00108444
H         0.87879640    -0.08421759     1.87932599     0.00084405    -0.00003896     0.00101307
H        -0.96165814    -0.03994310     1.81300715     0.00139235    -0.00033630     0.00008966
H        -1.05294436     0.05583620    -0.57604931     0.00048900    -0.00010518    -0.00044143
     6
  Step:    17            Position(A)                                  Velocity(au)
C        -0.03038331     0.03286811    -0.01968594    -0.00003460     0.00007788    -0.00041073
N        -0.04751114    -0.06455654     1.34054422    -0.00017173    -0.00000777     0.00037971
H         0.93030984    -0.09341519    -0.62201913     0.00020216    -0.00036664    -0.00104646
H         0.88296928    -0.08438359     1.88473166     0.00065419    -0.00002090     0.00093049
H        -0.95398233    -0.04178915     1.81363343     0.00135755    -0.00032900     0.00014429
H        -1.04995387     0.05525697    -0.57840968     0.00058481    -0.00010342    -0.00041077
     6
  Step:    18            Position(A)                                  Velocity(au)
C        -0.03057600     0.03329508    -0.02192362    -0.00003596     0.00007749    -0.00044096
N        -0.04841391    -0.06460247     1.34260659    -0.00015081    -0.00001081     0.00039767
H         0.93118026    -0.09542576    -0.62771096     0.00008732    -0.00039759    -0.00095872
H         0.88605503    -0.08444950     1.88965036     0.00043519     0.00004747     0.00082911
H        -0.94659534    -0.04359359     1.81460818     0.00129562    -0.00037626     0.00020177
H        -1.04645561     0.05468872    -0.58060700     0.00070612    -0.00004674    -0.00034381
     6
  Step:    19            Position(A)                                  Velocity(au)
C        -0.03078306     0.03372961    -0.02458825    -0.00003793     0.00007847    -0.00051686
N        -0.04918777    -0.06467674     1.34496518    -0.00012598    -0.00001578     0.00045005
H         0.93128061    -0.09783524    -0.63267751    -0.00005032    -0.00045450    -0.00082231
H         0.88780737    -0.08385583     1.89394904     0.00019163     0.00015138     0.00070993
H        -0.93957863    -0.04597212     1.81587658     0.00121117    -0.00046422     0.00025822
H        -1.04210380     0.05473737    -0.58223188     0.00085024     0.00005164    -0.00024115
     6
  Step:    20            Position(A)                                  Velocity(au)
C        -0.03099860     0.03416921    -0.02768162    -0.00003879     0.00007882    -0.00058914
N        -0.04981741    -0.06477824     1.34762039    -0.00009879    -0.00002038     0.00049927
H         0.93061971    -0.10048912    -0.63687185    -0.00018385    -0.00048971    -0.00068082
H         0.88818988    -0.08276308     1.89755928    -0.00005235     0.00023248     0.00058275
H        -0.93310235    -0.04876515     1.81748484     0.00109579    -0.00052942     0.00032317
H        -1.03698355     0.05526396    -0.58329354     0.00097550     0.00013063    -0.00014293
     6
  Step:    21            Position(A)                                  Velocity(au)
C        -0.03121627     0.03460983    -0.03116710    -0.00003851     0.00007840    -0.00065306
N        -0.05029094    -0.06490432     1.35054043    -0.00007000    -0.00002442     0.00054142
H         0.92922762    -0.10330378    -0.64028013    -0.00030960    -0.00051177    -0.00053931
H         0.88722279    -0.08125974     1.90045647    -0.00028762     0.00029916     0.00045420
H        -0.92734207    -0.05188405     1.81948536     0.00095130    -0.00058030     0.00039616
H        -1.03121051     0.05619613    -0.58382800     0.00107743     0.00019802    -0.00005306
     6
  Step:    22            Position(A)                                  Velocity(au)
C        -0.03142971     0.03504701    -0.03499321    -0.00003710     0.00007719    -0.00070676
N        -0.05060107    -0.06505163     1.35368212    -0.00004054    -0.00002780     0.00057521
H         0.92715352    -0.10621882    -0.64290991    -0.00042438    -0.00052414    -0.00040160
H         0.88496973    -0.07941374     1.90264447    -0.00050687     0.00035433     0.00032926
H        -0.92245167    -0.05526213     1.82192023     0.00078333    -0.00062015     0.00047480
H        -1.02492073     0.05748098    -0.58388754     0.00115330     0.00025650     0.00002589
     6
  Step:    23            Position(A)                                  Velocity(au)
C        -0.03163271     0.03547634    -0.03910079    -0.00003464     0.00007526    -0.00074971
N        -0.05074599    -0.06521639     1.35699744    -0.00001142    -0.00003049     0.00060046
H         0.92446376    -0.10918753    -0.64478828    -0.00052576    -0.00052936    -0.00027108
H         0.88153296    -0.07728218     1.90415256    -0.00070420     0.00039991     0.00021226
H        -0.91854882    -0.05884557     1.82481523     0.00059956    -0.00065137     0.00055610
H        -1.01826420     0.05907545    -0.58353734     0.00120188     0.00030774     0.00009198
     6
  Step:    24            Position(A)                                  Velocity(au)
C        -0.03181944     0.03589388    -0.04342903    -0.00003122     0.00007277    -0.00078254
N        -0.05072962    -0.06539473     1.36043860     0.00001639    -0.00003252     0.00061795
H         0.92123758    -0.11217521    -0.64596011    -0.00061237    -0.00052979    -0.00015052
H         0.87704600    -0.07491388     1.90503290    -0.00087558     0.00043766     0.00010686
H        -0.91570530    -0.06259144     1.82817757     0.00040859    -0.00067628     0.00063716
H        -1.01139703     0.06094376    -0.58285261     0.00122362     0.00035327     0.00014396
     6
  Step:    25            Position(A)                                  Velocity(au)
C        -0.03198464     0.03629656    -0.04792128    -0.00002698     0.00006991    -0.00080680
N        -0.05056122    -0.06558297     1.36396275     0.00004212    -0.00003397     0.00062915
H         0.91756133    -0.11515909    -0.64648486    -0.00068394    -0.00052779    -0.00004185
H         0.87166379    -0.07234901     1.90535702    -0.00101896     0.00046950     0.00001581
H        -0.91394335    -0.06646831     1.83199707     0.00021866    -0.00069728     0.00071563
H        -1.00447206     0.06305732    -0.58191469     0.00122040     0.00039468     0.00018137
     6
  Step:    26            Position(A)                                  Velocity(au)
C        -0.03212378     0.03668243    -0.05252983    -0.00002203     0.00006687    -0.00082446
N        -0.05025449    -0.06577793     1.36753546     0.00006518    -0.00003494     0.00063579
H         0.91352264    -0.11812877    -0.64643223    -0.00074094    -0.00052555     0.00005389
H         0.86555207    -0.06961788     1.90521119    -0.00113379     0.00049740    -0.00005902
H        -0.91323880    -0.07045687     1.83624996     0.00003669    -0.00071669     0.00078978
H        -0.99763082     0.06539574    -0.58080668     0.00119470     0.00043368     0.00020436
     6
  Step:    27            Position(A)                                  Velocity(au)
C        -0.03223303     0.03705057    -0.05721812    -0.00001646     0.00006380    -0.00083729
N        -0.04982619    -0.06597701     1.37113214     0.00008518    -0.00003555     0.00063942
H         0.90920631    -0.12108535    -0.64587713    -0.00078399    -0.00052478     0.00013646
H         0.85887883    -0.06674017     1.90469147    -0.00122011     0.00052313    -0.00011646
H        -0.91352963    -0.07454990     1.84090290    -0.00013204    -0.00073629     0.00085823
H        -0.99100026     0.06794756    -0.57961027     0.00114864     0.00047181     0.00021334
     6
  Step:    28            Position(A)                                  Velocity(au)
C        -0.03230915     0.03740091    -0.06195962    -0.00001035     0.00006077    -0.00084636
N        -0.04929522    -0.06617831     1.37473675     0.00010176    -0.00003589     0.00064094
H         0.90469315    -0.12403896    -0.64489533    -0.00081326    -0.00052657     0.00020592
H         0.85181095    -0.06372633     1.90389960    -0.00127737     0.00054791    -0.00015565
H        -0.91472589    -0.07874909     1.84591553    -0.00028357    -0.00075702     0.00091943
H        -0.98469458     0.07070941    -0.57840404     0.00108336     0.00051021     0.00020878
     6
  Step:    29            Position(A)                                  Velocity(au)
C        -0.03234936     0.03773383    -0.06673376    -0.00000377     0.00005780    -0.00085186
N        -0.04868207    -0.06638046     1.37833825     0.00011461    -0.00003600     0.00064058
H         0.90006281    -0.12700554    -0.64356194    -0.00082814    -0.00053138     0.00026226
H         0.84451745    -0.06058002     1.90294151    -0.00130399     0.00057242    -0.00017575
H        -0.91671782    -0.08306100     1.85124001    -0.00041469    -0.00077895     0.00097142
H        -0.97882014     0.07368388    -0.57726301     0.00099910     0.00054944     0.00019112
     6
  Step:    30            Position(A)                                  Velocity(au)
C        -0.03235144     0.03804970    -0.07152122     0.00000317     0.00005485    -0.00085337
N        -0.04800883    -0.06658239     1.38192685     0.00012336    -0.00003592     0.00063806
H         0.89539783    -0.13000337    -0.64195164    -0.00082742    -0.00053923     0.00030523
H         0.83717457    -0.05730131     1.90192688    -0.00129778     0.00059681    -0.00017601
H        -0.91938052    -0.08749223     1.85681909    -0.00052263    -0.00080144     0.00101197
H        -0.97348041     0.07687647    -0.57625882     0.00089586     0.00058952     0.00016091
     6
  Step:    31            Position(A)                                  Velocity(au)
C        -0.03231387     0.03834872    -0.07630054     0.00001029     0.00005188    -0.00085025
N        -0.04729915    -0.06678320     1.38549124     0.00012773    -0.00003568     0.00063291
H         0.89078692    -0.13305057    -0.64014013    -0.00080983    -0.00054991     0.00033447
H         0.82996854    -0.05388940     1.90096838    -0.00125688     0.00062101    -0.00015595
H        -0.92257676    -0.09204561     1.86258482    -0.00060511    -0.00082354     0.00103901
H        -0.96877700     0.08029272    -0.57545916     0.00077427     0.00063015     0.00011899
     6
  Step:    32            Position(A)                                  Velocity(au)
C        -0.03223616     0.03863093    -0.08104694     0.00001738     0.00004888    -0.00084203
N        -0.04657787    -0.06698218     1.38901756     0.00012756    -0.00003531     0.00062476
H         0.88632498    -0.13616428    -0.63820443    -0.00077452    -0.00056325     0.00034976
H         0.82309325    -0.05034385     1.90017967    -0.00118063     0.00064492    -0.00011578
H        -0.92615982    -0.09671870     1.86845957    -0.00066071    -0.00084430     0.00105108
H        -0.96480589     0.08393624    -0.57492577     0.00063612     0.00067087     0.00006672
     6
  Step:    33            Position(A)                                  Velocity(au)
C        -0.03211918     0.03889628    -0.08573321     0.00002417     0.00004586    -0.00082858
N        -0.04587016    -0.06717875     1.39248995     0.00012293    -0.00003484     0.00061347
H         0.88211046    -0.13936024    -0.63622204    -0.00072143    -0.00057907     0.00035121
H         0.81674271    -0.04666483     1.89967143    -0.00107028     0.00066850    -0.00005654
H        -0.92997823    -0.10150373     1.87435939    -0.00068910    -0.00086294     0.00104763
H        -0.96165100     0.08780802    -0.57471173     0.00048443     0.00071123     0.00000598
     6
  Step:    34            Position(A)                                  Velocity(au)
C        -0.03196528     0.03914478    -0.09033170     0.00003040     0.00004284    -0.00081017
N        -0.04520033    -0.06737256     1.39589195     0.00011413    -0.00003432     0.00059921
H         0.87824090    -0.14265311    -0.63426890    -0.00065131    -0.00059729     0.00033938
H         0.81110003    -0.04285290     1.89954607    -0.00092906     0.00069189     0.00001973
H        -0.93388169    -0.10638850     1.88019892    -0.00069120    -0.00087904     0.00102902
H        -0.95937748     0.09190610    -0.57485874     0.00032333     0.00075094    -0.00006096
     6
  Step:    35            Position(A)                                  Velocity(au)
C        -0.03177835     0.03937652    -0.09481633     0.00003579     0.00003985    -0.00078740
N        -0.04459061    -0.06756351     1.39920790     0.00010166    -0.00003380     0.00058233
H         0.87480842    -0.14605668    -0.63241715    -0.00056571    -0.00061787     0.00031527
H         0.80632665    -0.03890776     1.89989266    -0.00076205     0.00071538     0.00011016
H        -0.93772753    -0.11135893     1.88589618    -0.00066898    -0.00089251     0.00099647
H        -0.95802607     0.09622714    -0.57539513     0.00015759     0.00078987    -0.00013157
     6
  Step:    36            Position(A)                                  Velocity(au)
C        -0.03156377     0.03959179    -0.09916443     0.00004011     0.00003694    -0.00076107
N        -0.04405999    -0.06775172     1.40242435     0.00008619    -0.00003332     0.00056338
H         0.87189500    -0.14958420    -0.63073233    -0.00046687    -0.00064079     0.00028032
H         0.80255166    -0.03482802     1.90078177    -0.00057582     0.00073925     0.00021108
H        -0.94138612    -0.11640041     1.89137694    -0.00062527    -0.00090352     0.00095174
H        -0.95760971     0.10076662    -0.57633465    -0.00000772     0.00082795    -0.00020327
     6
  Step:    37            Position(A)                                  Velocity(au)
C        -0.03132813     0.03979111    -0.10335785     0.00004319     0.00003415    -0.00073207
N        -0.04362334    -0.06793749     1.40553083     0.00006850    -0.00003292     0.00054297
H         0.86956867    -0.15324832    -0.62927111    -0.00035754    -0.00066594     0.00023628
H         0.79986418    -0.03061105     1.90226162    -0.00037790     0.00076376     0.00031835
H        -0.94474506    -0.12149927     1.89657765    -0.00056341    -0.00091238     0.00089694
H        -0.95811270     0.10551930    -0.57767644    -0.00016767     0.00086514    -0.00027357
     6
  Step:    38            Position(A)                                  Velocity(au)
C        -0.03107891     0.03997515    -0.10738340     0.00004489     0.00003149    -0.00070127
N        -0.04329094    -0.06812129     1.40852033     0.00004943    -0.00003260     0.00052169
H         0.86788087    -0.15706074    -0.62807962    -0.00024079    -0.00069313     0.00018511
H         0.79830897    -0.02625325     1.90435585    -0.00017621     0.00078904     0.00042756
H        -0.94771154    -0.12664372     1.90144697    -0.00048695    -0.00091947     0.00083429
H        -0.95949214     0.11047957    -0.57940606    -0.00031777     0.00090141    -0.00034024
     6
  Step:    39            Position(A)                                  Velocity(au)
C        -0.03082408     0.04014472    -0.11123260     0.00004516     0.00002899    -0.00066943
N        -0.04306833    -0.06830360     1.41138905     0.00002979    -0.00003238     0.00050007
H         0.86686477    -0.16103161    -0.62719241    -0.00011987    -0.00072201     0.00012889
H         0.79788544    -0.02175076     1.90706285     0.00002141     0.00081504     0.00053435
H        -0.95021316    -0.13182427     1.90594607    -0.00039946    -0.00092520     0.00076590
H        -0.96168100     0.11564141    -0.58149712    -0.00045413     0.00093665    -0.00040136
     6
  Step:    40            Position(A)                                  Velocity(au)
C        -0.03057177     0.04030069    -0.11490110     0.00004401     0.00002664    -0.00063719
N        -0.04295644    -0.06848486     1.41413612     0.00001036    -0.00003221     0.00047855
H         0.86653469    -0.16516884    -0.62663221     0.00000188    -0.00075209     0.00006968
H         0.79854939    -0.01710035     1.91035654     0.00020764     0.00084156     0.00063453
H        -0.95219747    -0.13703370     1.91004801    -0.00030435    -0.00092991     0.00069376
H        -0.96459200     0.12099814    -0.58391331    -0.00057358     0.00097070    -0.00045535
     6
  Step:    41            Position(A)                                  Velocity(au)
C        -0.03032984     0.04044387    -0.11838796     0.00004152     0.00002443    -0.00060503
N        -0.04295200    -0.06866536     1.41676298    -0.00000816    -0.00003209     0.00045746
H         0.86688591    -0.16947730    -0.62640989     0.00012116    -0.00078275     0.00000955
H         0.80021712    -0.01230039     1.91418838     0.00037598     0.00086819     0.00072438
H        -0.95363087    -0.14226681     1.91373674    -0.00020481    -0.00093389     0.00061966
H        -0.96812209     0.12654199    -0.58661056    -0.00067370     0.00100329    -0.00050103
     6
  Step:    42            Position(A)                                  Velocity(au)
C        -0.03010559     0.04057499    -0.12169489     0.00003780     0.00002233    -0.00057336
N        -0.04304803    -0.06884517     1.41927283    -0.00002515    -0.00003195     0.00043704
H         0.86789517    -0.17395819    -0.62652498     0.00023475    -0.00081327    -0.00004956
H         0.80277122    -0.00735166     1.91849046     0.00052107     0.00089443     0.00080077
H        -0.95449726    -0.14752012     1.91700600    -0.00010383    -0.00093738     0.00054521
H        -0.97215683     0.13226383    -0.58953923    -0.00075284     0.00103412    -0.00053757
     6
  Step:    43            Position(A)                                  Velocity(au)
C        -0.02990545     0.04069463    -0.12482552     0.00003303     0.00002033    -0.00054245
N        -0.04323443    -0.06902411     1.42167001    -0.00004014    -0.00003176     0.00041745
H         0.86952168    -0.17860857    -0.62696640     0.00033968    -0.00084289    -0.00010587
H         0.80606763    -0.00225787     1.92317933     0.00063884     0.00091973     0.00086132
H        -0.95479666    -0.15279157     1.91985830    -0.00000413    -0.00094062     0.00047190
H        -0.97657488     0.13815288    -0.59264625    -0.00081014     0.00106288    -0.00056452
     6
  Step:    44            Position(A)                                  Velocity(au)
C        -0.02973478     0.04080320    -0.12778495     0.00002741     0.00001838    -0.00051253
N        -0.04349869    -0.06920171     1.42395951    -0.00005275    -0.00003146     0.00039876
H         0.87170874    -0.18342128    -0.62771359     0.00043330    -0.00087086    -0.00015780
H         0.80994345     0.00297416     1.92816048     0.00072664     0.00094355     0.00090446
H        -0.95454368    -0.15808044     1.92230400     0.00009180    -0.00094383     0.00040104
H        -0.98125221     0.14419678    -0.59587712    -0.00084542     0.00108931    -0.00058180
     6