 Fermi distribution function

Calculation with static geometry


********************************************************************************
 iSCC Total electronic   Diff electronic      SCC error    
    9   -0.54392086E+01   -0.59351635E-10    0.32035903E-06
********************************************************************************

 Total charge:     1.00000000

 Atomic gross charges (e)
 Atom           Charge
    1       0.26446610
    2      -0.14288353
    3       0.14047356
    4       0.27458040
    5       0.30691335
    6       0.15645012

Nr. of electrons (up):     12.00000000
Atom populations (up)
 Atom       Population
    1       3.73553390
    2       5.14288353
    3       0.85952644
    4       0.72541960
    5       0.69308665
    6       0.84354988

l-shell populations (up)
 Atom Sh.   l       Population
    1   1   0       1.27792708
    1   2   1       2.45760682
    2   1   0       1.40335267
    2   2   1       3.73953086
    3   1   0       0.85952644
    4   1   0       0.72541960
    5   1   0       0.69308665
    6   1   0       0.84354988

Orbital populations (up)
 Atom Sh.   l   m       Population  Label
    1   1   0   0       1.27792708  s
    1   2   1  -1       0.57045434  p_y
    1   2   1   0       0.90207431  p_z
    1   2   1   1       0.98507817  p_x
    2   1   0   0       1.40335267  s
    2   2   1  -1       1.33889911  p_y
    2   2   1   0       1.10044187  p_z
    2   2   1   1       1.30018989  p_x
    3   1   0   0       0.85952644  s
    4   1   0   0       0.72541960  s
    5   1   0   0       0.69308665  s
    6   1   0   0       0.84354988  s

Fermi level:                        -0.4788161131 H          -13.0292 eV
Band energy:                        -8.9504872316 H         -243.5551 eV
TS:                                  0.0000000000 H            0.0000 eV
Band free energy (E-TS):            -8.9504872316 H         -243.5551 eV
Extrapolated E(0K):                 -8.9504872316 H         -243.5551 eV
Input / Output electrons (q):     12.0000000000     12.0000000000

Energy H0:                          -5.5729825170 H         -151.6486 eV
Energy SCC:                          0.1337739034 H            3.6402 eV
Total Electronic energy:            -5.4392086136 H         -148.0084 eV
Repulsive energy:                    0.2261039835 H            6.1526 eV
Total energy:                       -5.2131046301 H         -141.8558 eV
Extrapolated to 0:                  -5.2131046301 H         -141.8558 eV
Total Mermin free energy:           -5.2131046301 H         -141.8558 eV
Force related energy:               -5.2131046301 H         -141.8558 eV

SCC converged

Excitation Energy:                   0.1163422571 H            3.1658 eV

Total Forces
    1      0.008515316906      0.002173266274     -0.054841755928
    2      0.000528684163     -0.009439978968      0.040936776145
    3     -0.006490067860     -0.012421147043      0.002741032507
    4     -0.010557207134      0.014077448332      0.002112167308
    5      0.007192808622     -0.009738972375      0.006511618939
    6      0.000810465302      0.015349383780      0.002540161028

Maximal derivative component:        0.548418E-01 au


