|===============================================================================
|
|  DFTB+ release 20.1
|
|  Copyright (C) 2006 - 2020  DFTB+ developers group
|
|===============================================================================
|
|  When publishing results obtained with DFTB+, please cite the following
|  reference:
|
|  * DFTB+, a software package for efficient approximate density functional
|    theory based atomistic simulations, J. Chem. Phys. 152, 124101 (2020).
|    [doi: 10.1063/1.5143190]
|
|  You should also cite additional publications crediting the parametrization
|  data you use. Please consult the documentation of the SK-files for the
|  references.
|
|===============================================================================

Reading input file 'dftb_in.hsd'
Parser version: 8

--------------------------------------------------------------------------------
Reading SK-files:
Done.


Processed input in HSD format written to 'dftb_pin.hsd'

Starting initialization...
--------------------------------------------------------------------------------
WARNING!
-> Excited state forces are not implemented yet for fractional occupations, kT=  0.3158E-02K
OpenMP threads:              1
Chosen random seed:          433437648
Mode:                        Static calculation
Self consistent charges:     Yes
SCC-tolerance:                 0.100000E-05
Max. scc iterations:                    100
Shell resolved Hubbard:      No
Spin polarisation:           No
Nr. of up electrons:             6.000000
Nr. of down electrons:           6.000000
Periodic boundaries:         No
Electronic solver:           Relatively robust
Mixer:                       Broyden mixer
Mixing parameter:                  0.200000
Maximal SCC-cycles:                     100
Nr. of chrg. vec. in memory:              0
Electronic temperature:        0.100000E-07 H      0.272114E-06 eV
Initial charges:             Set automatically (system chrg:   0.100E+01)
Included shells:             C:  s, p
                             N:  s, p
                             H:  s
Extra options:
                             Mulliken analysis
                             Force calculation
Force type                   original
                             Eigenvector printing

--------------------------------------------------------------------------------

***  Geometry step: 0

 iSCC Total electronic   Diff electronic      SCC error    
    1   -0.54308333E+01    0.00000000E+00    0.77560894E+00
    2   -0.54353508E+01   -0.45175266E-02    0.54096341E+00
    3   -0.54389635E+01   -0.36127036E-02    0.61718422E-01
    4   -0.54390970E+01   -0.13348634E-03    0.57187810E-01
    5   -0.54392075E+01   -0.11055531E-03    0.98176247E-02
    6   -0.54392085E+01   -0.98588105E-06    0.25722028E-02
    7   -0.54392086E+01   -0.10482056E-06    0.65309699E-04
    8   -0.54392086E+01   -0.12271872E-09    0.44840400E-04
    9   -0.54392086E+01   -0.59351635E-10    0.32035903E-06
>> Charges saved for restart in charges.bin

Total Energy:                       -5.0967623731 H         -138.6900 eV
Extrapolated to 0:                  -5.2131046301 H         -141.8558 eV
Total Mermin free energy:           -5.0967623731 H         -138.6900 eV
Force related energy:               -5.2131046301 H         -141.8558 eV

--------------------------------------------------------------------------------
DFTB+ running times                          cpu [s]             wall clock [s]
--------------------------------------------------------------------------------
SCC                                    +     0.02  ( 56.6%)      0.04  ( 50.7%)
Post-SCC processing                    +     0.01  ( 38.4%)      0.03  ( 38.4%)
--------------------------------------------------------------------------------
Missing                                +     0.00  (  5.0%)      0.01  ( 11.0%)
Total                                  =     0.03  (100.0%)      0.07  (100.0%)
--------------------------------------------------------------------------------
