|===============================================================================
|
|  DFTB+ release 20.1
|
|  Copyright (C) 2006 - 2020  DFTB+ developers group
|
|===============================================================================
|
|  When publishing results obtained with DFTB+, please cite the following
|  reference:
|
|  * DFTB+, a software package for efficient approximate density functional
|    theory based atomistic simulations, J. Chem. Phys. 152, 124101 (2020).
|    [doi: 10.1063/1.5143190]
|
|  You should also cite additional publications crediting the parametrization
|  data you use. Please consult the documentation of the SK-files for the
|  references.
|
|===============================================================================

Reading input file 'dftb_in.hsd'
Parser version: 8

--------------------------------------------------------------------------------
Reading SK-files:
Done.


Processed input in HSD format written to 'dftb_pin.hsd'

Starting initialization...
--------------------------------------------------------------------------------
OpenMP threads:              1
Chosen random seed:          452102812
Mode:                        Static calculation
Self consistent charges:     Yes
SCC-tolerance:                 0.100000E-05
Max. scc iterations:                   1000
Shell resolved Hubbard:      No
Spin polarisation:           No
Nr. of up electrons:             6.000000
Nr. of down electrons:           6.000000
Periodic boundaries:         No
Electronic solver:           Relatively robust
Maximal SCC-cycles:                    1000
Initial charges:             Set automatically (system chrg:   0.100E+01)
Included shells:             C:  s, p
                             N:  s, p
                             H:  s
Spin coupling constants:     C   1(s)-1(s):  -0.455900E-01
                             C   1(s)-2(p):  -0.293000E-01
                             C   2(p)-1(s):  -0.293000E-01
                             C   2(p)-2(p):  -0.275500E-01
                             N   1(s)-1(s):  -0.468700E-01
                             N   1(s)-2(p):  -0.317000E-01
                             N   2(p)-1(s):  -0.317000E-01
                             N   2(p)-2(p):  -0.307200E-01
                             H   1(s)-1(s):  -0.792500E-01
Range separated hybrid:      Yes
  Screening parameter omega:   0.300000E+00
  Range separated algorithm:   MatrixBased
Extra options:
                             Mulliken analysis
                             Force calculation
Force type                   original
                             Eigenvector printing


REKS Calcuation:             Yes
SSR(2,2) Calcuation:         Yes
Energy Functional:           (PPS+OSS)/2
Number of Core Orbitals:                  5
Number of Active Orbitals:                2
Number of Basis:                         12
Number of States:                         2
State-Averaging Weight:          0.500000
                                 0.500000
State of Interest:                        1
Initial Guess:               Diagonalize H0 matrix
Newton-Raphson for FON opt:  Yes
NR max. Iterations:                      50
Level Shifting:              Yes
Shift Value:                     0.300000
W Scale Factor:              C  =    3.200000
                             N  =    3.200000
                             H  =    3.200000
Transition Dipole:           No
Gradient of Microstate:      No
CP-REKS Solver:              Preconditioned Conjugate-Gradient
CG max. Iterations:                     100
CG Tolerance:                  0.100000E-07
Memory for A and Hxc:        Direct Updating Without Saving
Non-Adiabatic Coupling:      Yes

--------------------------------------------------------------------------------

***  Geometry step: 0

  iSCC       reks energy        Diff energy         x_a       SCC error   
    1       -6.1232879286       0.0000000000     0.874774    1.03354641
    2       -6.1279972397      -0.0047093111     0.874622    0.04144908
    3       -6.1293924658      -0.0013952261     0.877503    0.01909947
    4       -6.1300013875      -0.0006089217     0.880905    0.00971941
    5       -6.1303451242      -0.0003437366     0.884289    0.00622073
    6       -6.1305730542      -0.0002279300     0.887538    0.00457242
    7       -6.1307384517      -0.0001653975     0.890632    0.00426274
    8       -6.1308645163      -0.0001260647     0.893569    0.00395417
    9       -6.1309633894      -0.0000988731     0.896355    0.00365748
   10       -6.1310424094      -0.0000790200     0.898998    0.00337923
   11       -6.1311064639      -0.0000640545     0.901508    0.00312293
   12       -6.1311590105      -0.0000525466     0.903894    0.00288991
   13       -6.1312025874      -0.0000435768     0.906166    0.00268004
   14       -6.1312391017      -0.0000365143     0.908335    0.00249230
   15       -6.1312700099      -0.0000309083     0.910410    0.00232521
   16       -6.1312964377      -0.0000264278     0.912401    0.00217709
   17       -6.1313192637      -0.0000228259     0.914316    0.00204626
   18       -6.1313391794      -0.0000199158     0.916165    0.00193108
   19       -6.1313567342      -0.0000175548     0.917956    0.00183009
   20       -6.1313723678      -0.0000156336     0.919697    0.00174194
   21       -6.1313864355      -0.0000140677     0.921395    0.00166549
   22       -6.1313992273      -0.0000127917     0.923059    0.00159973
   23       -6.1314109822      -0.0000117550     0.924694    0.00154512
   24       -6.1314219004      -0.0000109182     0.926310    0.00150796
   25       -6.1314321516      -0.0000102512     0.927913    0.00147805
   26       -6.1314418827      -0.0000097311     0.929510    0.00145523
   27       -6.1314512239      -0.0000093412     0.931109    0.00143945
   28       -6.1314602934      -0.0000090695     0.932719    0.00143074
   29       -6.1314692024      -0.0000089090     0.934347    0.00142926
   30       -6.1314780591      -0.0000088567     0.936003    0.00143529
   31       -6.1314869731      -0.0000089140     0.937697    0.00144927
   32       -6.1314960602      -0.0000090871     0.939441    0.00147180
   33       -6.1315054476      -0.0000093874     0.941247    0.00150369
   34       -6.1315152807      -0.0000098330     0.943129    0.00154601
   35       -6.1315257313      -0.0000104506     0.945106    0.00160013
   36       -6.1315370096      -0.0000112783     0.947196    0.00166777
   37       -6.1315493793      -0.0000123697     0.949424    0.00175114
   38       -6.1315631799      -0.0000138006     0.951817    0.00185298
   39       -6.1315788579      -0.0000156781     0.954409    0.00197668
   40       -6.1315970114      -0.0000181534     0.957240    0.00212633
   41       -6.1316184523      -0.0000214410     0.960352    0.00230659
   42       -6.1316442918      -0.0000258394     0.963794    0.00252226
   43       -6.1316760408      -0.0000317491     0.967607    0.00277693
   44       -6.1317156936      -0.0000396528     0.971806    0.00306983
   45       -6.1317656684      -0.0000499747     0.976338    0.00338972
   46       -6.1318283215      -0.0000626531     0.981019    0.00370608
   47       -6.1319046567      -0.0000763352     0.985497    0.00396480
   48       -6.1319924889      -0.0000878322     0.989354    0.00410342
   49       -6.1320859073      -0.0000934184     0.992329    0.00408690
   50       -6.1321775820      -0.0000916747     0.994443    0.00393114
   51       -6.1322618529      -0.0000842709     0.995888    0.00368667
   52       -6.1323358291      -0.0000739761     0.996869    0.00340313
   53       -6.1323987794      -0.0000629504     0.997546    0.00311125
   54       -6.1324512062      -0.0000524268     0.998023    0.00282583
   55       -6.1324941876      -0.0000429813     0.998367    0.00255347
   56       -6.1325290018      -0.0000348143     0.998621    0.00229731
   57       -6.1325569301      -0.0000279282     0.998812    0.00205895
   58       -6.1325791578      -0.0000222278     0.998959    0.00183908
   59       -6.1325967327      -0.0000175749     0.999073    0.00164699
   60       -6.1326105522      -0.0000138195     0.999163    0.00148025
   61       -6.1326213682      -0.0000108160     0.999235    0.00132482
   62       -6.1326298000      -0.0000084318     0.999293    0.00118157
   63       -6.1326363511      -0.0000065511     0.999340    0.00105074
   64       -6.1326414265      -0.0000050754     0.999379    0.00093209
   65       -6.1326453489      -0.0000039225     0.999412    0.00082512
   66       -6.1326483741      -0.0000030252     0.999438    0.00072913
   67       -6.1326507031      -0.0000023290     0.999461    0.00064333
   68       -6.1326524935      -0.0000017904     0.999480    0.00056688
   69       -6.1326538680      -0.0000013745     0.999496    0.00049895
   70       -6.1326549221      -0.0000010541     0.999510    0.00043874
   71       -6.1326557297      -0.0000008076     0.999521    0.00038546
   72       -6.1326563480      -0.0000006183     0.999531    0.00033841
   73       -6.1326568210      -0.0000004730     0.999540    0.00029690
   74       -6.1326571827      -0.0000003617     0.999547    0.00026034
   75       -6.1326574591      -0.0000002764     0.999553    0.00022817
   76       -6.1326576702      -0.0000002111     0.999558    0.00019989
   77       -6.1326578315      -0.0000001612     0.999563    0.00017505
   78       -6.1326579545      -0.0000001231     0.999567    0.00015324
   79       -6.1326580485      -0.0000000939     0.999571    0.00013411
   80       -6.1326581202      -0.0000000717     0.999574    0.00011733
   81       -6.1326581749      -0.0000000547     0.999576    0.00010263
   82       -6.1326582166      -0.0000000417     0.999578    0.00008976
   83       -6.1326582484      -0.0000000318     0.999580    0.00007848
   84       -6.1326582727      -0.0000000243     0.999582    0.00006861
   85       -6.1326582912      -0.0000000185     0.999584    0.00005997
   86       -6.1326583053      -0.0000000141     0.999585    0.00005241
   87       -6.1326583161      -0.0000000108     0.999586    0.00004580
   88       -6.1326583243      -0.0000000082     0.999587    0.00004002
   89       -6.1326583305      -0.0000000063     0.999588    0.00003497
   90       -6.1326583353      -0.0000000048     0.999588    0.00003055
   91       -6.1326583389      -0.0000000036     0.999589    0.00002669
   92       -6.1326583417      -0.0000000028     0.999590    0.00002331
   93       -6.1326583438      -0.0000000021     0.999590    0.00002036
   94       -6.1326583454      -0.0000000016     0.999591    0.00001778
   95       -6.1326583466      -0.0000000012     0.999591    0.00001553
   96       -6.1326583476      -0.0000000009     0.999591    0.00001357
   97       -6.1326583483      -0.0000000007     0.999592    0.00001185
   98       -6.1326583488      -0.0000000005     0.999592    0.00001035
   99       -6.1326583492      -0.0000000004     0.999592    0.00000903
  100       -6.1326583496      -0.0000000003     0.999592    0.00000789
  101       -6.1326583498      -0.0000000002     0.999592    0.00000689
  102       -6.1326583500      -0.0000000002     0.999593    0.00000601
  103       -6.1326583501      -0.0000000001     0.999593    0.00000525
  104       -6.1326583502      -0.0000000001     0.999593    0.00000459
  105       -6.1326583503      -0.0000000001     0.999593    0.00000400
  106       -6.1326583504      -0.0000000001     0.999593    0.00000350
  107       -6.1326583504      -0.0000000000     0.999593    0.00000305
  108       -6.1326583505      -0.0000000000     0.999593    0.00000266
  109       -6.1326583505      -0.0000000000     0.999593    0.00000233
  110       -6.1326583505      -0.0000000000     0.999593    0.00000203
  111       -6.1326583505      -0.0000000000     0.999593    0.00000177
  112       -6.1326583505      -0.0000000000     0.999593    0.00000155
  113       -6.1326583505      -0.0000000000     0.999593    0.00000135
  114       -6.1326583505      -0.0000000000     0.999593    0.00000118
  115       -6.1326583505      -0.0000000000     0.999593    0.00000103
  116       -6.1326583506      -0.0000000000     0.999593    0.00000090
  
--------------------------------------------------
 Final SA-REKS(2,2) energy:      -6.13265835
  
 State     Energy      FON(1)    FON(2)   Spin
  PPS   -6.21439949   1.999187  0.000813  0.00
  OSS   -6.05091721   1.000000  1.000000  0.00
 Trip   -6.12983817   1.000000  1.000000  1.00
--------------------------------------------------

 Lagrangian Wab:  -0.00072544 -0.00072547

--------------------------------------------------
 SSR: 2SI-2SA-REKS(2,2) Hamiltonian matrix
               PPS           OSS
   PPS    -6.21439949   -0.00100502
   OSS    -0.00100502   -6.05091721
--------------------------------------------------

----------------------------------------------------------------
 SSR: 2SI-2SA-REKS(2,2) states
                    E_n       C_{PPS}    C_{OSS}
 SSR state  1   -6.21440567  -0.999981  -0.006147
 SSR state  2   -6.05091103   0.006147  -0.999981
----------------------------------------------------------------

 unrelaxed SSR FONs for S0:  1.999149  0.000851

Total Energy:                       -6.2144056723 H         -169.1026 eV
Extrapolated to 0:                  -6.2144056723 H         -169.1026 eV

----------------------------------------------------------------------------------
 Solving CP-REKS equation for  1 state vector...
----------------------------------------------------------------------------------
  CG solver: Constructing Y initial guess
  CG solver: Iteration    1    eps =    0.000104554074
  CG solver: Iteration    2    eps =    0.000044612753
  CG solver: Iteration    3    eps =    0.000004598808
  CG solver: Iteration    4    eps =    0.000000444105
  CG solver: Iteration    5    eps =    0.000000044289
  CG solver: Iteration    6    eps =    0.000000009219
  Convergence reached in CG solver after    6 iterations
  CG solver: Calculating converged R, Z, Q2 matrix
----------------------------------------------------------------------------------

----------------------------------------------------------------------------------
 Solving CP-REKS equation for SI between  1 and  2 state vectors...
----------------------------------------------------------------------------------
  CG solver: Constructing Y initial guess
  CG solver: Iteration    1    eps =    0.003515123581
  CG solver: Iteration    2    eps =    0.002111590764
  CG solver: Iteration    3    eps =    0.000173393918
  CG solver: Iteration    4    eps =    0.000018358733
  CG solver: Iteration    5    eps =    0.000002662748
  CG solver: Iteration    6    eps =    0.000000484080
  CG solver: Iteration    7    eps =    0.000000054256
  CG solver: Iteration    8    eps =    0.000000005194
  Convergence reached in CG solver after    8 iterations
  CG solver: Calculating converged R, Z, Q2 matrix
----------------------------------------------------------------------------------

--------------------------------------------------
 Gradient Information
--------------------------------------------------
           1 st state (SSR)
     0.03819407     0.01784412    -0.09636051
    -0.03289062    -0.11910506     0.02474788
    -0.03309425     0.02248957    -0.00361945
     0.01746649     0.05576935     0.06624959
     0.02091111     0.06964011     0.00643264
    -0.01058680    -0.04663811     0.00254986

           2 st state (SSR)
     0.11594416    -0.01778103    -0.13663763
    -0.09128142    -0.04382033    -0.01174061
    -0.02857781    -0.01794773     0.06930493
     0.01198424     0.04740498     0.05968267
     0.00762723     0.05852853     0.01353123
    -0.01569640    -0.02638441     0.00585942
--------------------------------------------------
 Coupling Information
--------------------------------------------------
 between  1 and  2 states
--------------------------------------------------
 g vector - difference gradient
    -0.03898832     0.01763844     0.02008843
     0.02921473    -0.03763700     0.01830240
    -0.00220923     0.02025963    -0.03646724
     0.00273221     0.00417676     0.00326659
     0.00665173     0.00563669    -0.00353843
     0.00259888    -0.01007453    -0.00165174

 h vector - derivative coupling
     0.00897420     0.01427270     0.00420129
    -0.00139230    -0.00066809    -0.00461742
    -0.00399818    -0.00320836     0.00018601
     0.00074189     0.00046719     0.00139231
    -0.00075604    -0.00654584    -0.00090520
    -0.00356957    -0.00431760    -0.00025700

 G vector - GDV
    -0.03887504     0.01781258     0.02013856
     0.02919540    -0.03764237     0.01824425
    -0.00225822     0.02021865    -0.03646219
     0.00274113     0.00418219     0.00328346
     0.00664194     0.00555579    -0.00354930
     0.00255480    -0.01012685    -0.00165478

 H vector - DCV - non-adiabatic coupling
     0.05781753     0.08596473     0.02418430
    -0.01071209    -0.00125582    -0.02961615
    -0.02428651    -0.02114563     0.00387982
     0.00433190     0.00254321     0.00826968
    -0.00512408    -0.04045786    -0.00527008
    -0.02202675    -0.02564863    -0.00144757
--------------------------------------------------


--------------------------------------------------------------------------------
DFTB+ running times                          cpu [s]             wall clock [s]
--------------------------------------------------------------------------------
SCC                                    +     0.05  ( 80.4%)      0.05  ( 75.8%)
Post-SCC processing                    +     0.01  ( 17.6%)      0.01  ( 16.7%)
  Force calculation                          0.01  ( 17.2%)      0.01  ( 15.2%)
--------------------------------------------------------------------------------
Missing                                +     0.00  (  2.0%)      0.00  (  7.6%)
Total                                  =     0.06  (100.0%)      0.07  (100.0%)
--------------------------------------------------------------------------------
