    14
  Step:   600            Position(A)                                  Velocity(au)
C        -4.80969759     0.12194911     1.06705817     0.00003582    -0.00072518    -0.00012522
C        -4.82626719     0.47087789    -0.28744003    -0.00012526     0.00050209     0.00004452
H        -4.00856747    -0.57557269     1.32681421     0.00153893     0.00015908     0.00067476
H        -5.48020006     0.48139765     1.83840304    -0.00062895    -0.00152353    -0.00013870
H        -5.77319165     1.07283025    -0.58806018     0.00004397     0.00085303    -0.00221940
C        -3.77942636     0.33456427    -1.11212761     0.00040200     0.00023139     0.00039486
C        -2.35527600    -0.15620741    -0.72065744    -0.00023888    -0.00025496     0.00000373
H        -3.75860956     0.94222853    -1.98480524    -0.00066493     0.00063291     0.00118241
H        -2.08717854    -1.04300537    -1.31002215    -0.00047463    -0.00118505     0.00072356
C        -1.51216889     0.65132898     0.09154269     0.00002983    -0.00024912    -0.00004372
H        -0.35027968     0.60627375     0.11614225    -0.00030636    -0.00216735    -0.00043754
N        -2.02568180     1.51378111     1.00341785    -0.00000559     0.00062662    -0.00029143
H        -1.47530841     1.87596063     1.74761502    -0.00070501     0.00008741     0.00089045
H        -2.94687779     1.29361315     1.38268458     0.00004129     0.00034349     0.00010734
