|===============================================================================
|
|  DFTB+ release 20.1
|
|  Copyright (C) 2006 - 2020  DFTB+ developers group
|
|===============================================================================
|
|  When publishing results obtained with DFTB+, please cite the following
|  reference:
|
|  * DFTB+, a software package for efficient approximate density functional
|    theory based atomistic simulations, J. Chem. Phys. 152, 124101 (2020).
|    [doi: 10.1063/1.5143190]
|
|  You should also cite additional publications crediting the parametrization
|  data you use. Please consult the documentation of the SK-files for the
|  references.
|
|===============================================================================

Reading input file 'dftb_in.hsd'
Parser version: 8

--------------------------------------------------------------------------------
Reading SK-files:
Done.


Processed input in HSD format written to 'dftb_pin.hsd'

Starting initialization...
--------------------------------------------------------------------------------
OpenMP threads:              1
Chosen random seed:          511927488
Mode:                        Static calculation
Self consistent charges:     Yes
SCC-tolerance:                 0.100000E-05
Max. scc iterations:                   1000
Shell resolved Hubbard:      No
Spin polarisation:           No
Nr. of up electrons:             6.000000
Nr. of down electrons:           6.000000
Periodic boundaries:         No
Electronic solver:           Relatively robust
Maximal SCC-cycles:                    1000
Initial charges:             Set automatically (system chrg:   0.100E+01)
Included shells:             C:  s, p
                             N:  s, p
                             H:  s
Spin coupling constants:     C   1(s)-1(s):  -0.455900E-01
                             C   1(s)-2(p):  -0.293000E-01
                             C   2(p)-1(s):  -0.293000E-01
                             C   2(p)-2(p):  -0.275500E-01
                             N   1(s)-1(s):  -0.468700E-01
                             N   1(s)-2(p):  -0.317000E-01
                             N   2(p)-1(s):  -0.317000E-01
                             N   2(p)-2(p):  -0.307200E-01
                             H   1(s)-1(s):  -0.792500E-01
Range separated hybrid:      Yes
  Screening parameter omega:   0.300000E+00
  Range separated algorithm:   MatrixBased
Extra options:
                             Mulliken analysis
                             Force calculation
Force type                   original
                             Eigenvector printing


REKS Calcuation:             Yes
SSR(2,2) Calcuation:         Yes
Energy Functional:           (PPS+OSS)/2
Number of Core Orbitals:                  5
Number of Active Orbitals:                2
Number of Basis:                         12
Number of States:                         2
State-Averaging Weight:          0.500000
                                 0.500000
State of Interest:                        1
Initial Guess:               Diagonalize H0 matrix
Newton-Raphson for FON opt:  Yes
NR max. Iterations:                      50
Level Shifting:              Yes
Shift Value:                     0.300000
W Scale Factor:              C  =    3.000000
                             N  =    3.000000
                             H  =    3.000000
Transition Dipole:           No
Gradient of Microstate:      No
CP-REKS Solver:              Preconditioned Conjugate-Gradient
CG max. Iterations:                     100
CG Tolerance:                  0.100000E-07
Memory for A and Hxc:        Direct Updating Without Saving
Non-Adiabatic Coupling:      Yes

--------------------------------------------------------------------------------

***  Geometry step: 0

  iSCC       reks energy        Diff energy         x_a       SCC error   
    1       -6.2561003978       0.0000000000     0.998969    1.16910815
    2       -6.2710139683      -0.0149135705     0.999623    0.11499300
    3       -6.2759966720      -0.0049827037     0.999804    0.05748271
    4       -6.2787863756      -0.0027897036     0.999879    0.03014457
    5       -6.2807085847      -0.0019222091     0.999915    0.01645558
    6       -6.2821537928      -0.0014452081     0.999935    0.01210504
    7       -6.2832588336      -0.0011050408     0.999947    0.01072623
    8       -6.2840885523      -0.0008297186     0.999954    0.00927135
    9       -6.2846925055      -0.0006039532     0.999959    0.00835689
   10       -6.2851180365      -0.0004255310     0.999962    0.00732219
   11       -6.2854093007      -0.0002912642     0.999964    0.00628452
   12       -6.2856040451      -0.0001947444     0.999966    0.00531414
   13       -6.2857319696      -0.0001279245     0.999967    0.00444630
   14       -6.2858149535      -0.0000829838     0.999967    0.00369265
   15       -6.2858683416      -0.0000533881     0.999968    0.00305079
   16       -6.2859025215      -0.0000341799     0.999968    0.00251117
   17       -6.2859243524      -0.0000218308     0.999968    0.00206139
   18       -6.2859382882      -0.0000139358     0.999968    0.00168870
   19       -6.2859471903      -0.0000089021     0.999968    0.00138114
   20       -6.2859528852      -0.0000056949     0.999968    0.00112809
   21       -6.2859565354      -0.0000036502     0.999968    0.00092034
   22       -6.2859588799      -0.0000023445     0.999968    0.00075011
   23       -6.2859603889      -0.0000015090     0.999968    0.00061083
   24       -6.2859613622      -0.0000009733     0.999968    0.00049702
   25       -6.2859619911      -0.0000006289     0.999968    0.00040413
   26       -6.2859623981      -0.0000004070     0.999968    0.00032839
   27       -6.2859626620      -0.0000002638     0.999968    0.00026669
   28       -6.2859628332      -0.0000001712     0.999968    0.00021647
   29       -6.2859629445      -0.0000001113     0.999968    0.00017593
   30       -6.2859630168      -0.0000000724     0.999968    0.00014346
   31       -6.2859630639      -0.0000000471     0.999968    0.00011687
   32       -6.2859630946      -0.0000000307     0.999968    0.00009512
   33       -6.2859631146      -0.0000000200     0.999968    0.00007736
   34       -6.2859631276      -0.0000000130     0.999968    0.00006287
   35       -6.2859631361      -0.0000000085     0.999968    0.00005106
   36       -6.2859631417      -0.0000000055     0.999968    0.00004145
   37       -6.2859631453      -0.0000000036     0.999968    0.00003363
   38       -6.2859631476      -0.0000000024     0.999968    0.00002728
   39       -6.2859631492      -0.0000000015     0.999968    0.00002211
   40       -6.2859631502      -0.0000000010     0.999968    0.00001792
   41       -6.2859631508      -0.0000000007     0.999968    0.00001452
   42       -6.2859631513      -0.0000000004     0.999968    0.00001176
   43       -6.2859631515      -0.0000000003     0.999968    0.00000953
   44       -6.2859631517      -0.0000000002     0.999968    0.00000771
   45       -6.2859631518      -0.0000000001     0.999968    0.00000624
   46       -6.2859631519      -0.0000000001     0.999968    0.00000505
   47       -6.2859631520      -0.0000000001     0.999968    0.00000409
   48       -6.2859631520      -0.0000000000     0.999968    0.00000331
   49       -6.2859631520      -0.0000000000     0.999968    0.00000268
   50       -6.2859631520      -0.0000000000     0.999968    0.00000216
   51       -6.2859631521      -0.0000000000     0.999968    0.00000175
   52       -6.2859631521      -0.0000000000     0.999968    0.00000142
   53       -6.2859631521      -0.0000000000     0.999968    0.00000115
   54       -6.2859631521      -0.0000000000     0.999968    0.00000093
  
--------------------------------------------------
 Final SA-REKS(2,2) energy:      -6.28596315
  
 State     Energy      FON(1)    FON(2)   Spin
  PPS   -6.41495601   1.999935  0.000065  0.00
  OSS   -6.15697029   1.000000  1.000000  0.00
 Trip   -6.23583008   1.000000  1.000000  1.00
--------------------------------------------------

 Lagrangian Wab:   0.00281057  0.00281045

--------------------------------------------------
 SSR: 2SI-2SA-REKS(2,2) Hamiltonian matrix
               PPS           OSS
   PPS    -6.41495601    0.00395208
   OSS     0.00395208   -6.15697029
--------------------------------------------------

----------------------------------------------------------------
 SSR: 2SI-2SA-REKS(2,2) states
                    E_n       C_{PPS}    C_{OSS}
 SSR state  1   -6.41501654  -0.999883   0.015314
 SSR state  2   -6.15690976  -0.015314  -0.999883
----------------------------------------------------------------

 unrelaxed SSR FONs for S0:  1.999701  0.000299

Total Energy:                       -6.4150165408 H         -174.5615 eV
Extrapolated to 0:                  -6.4150165408 H         -174.5615 eV

----------------------------------------------------------------------------------
 Solving CP-REKS equation for  1 state vector...
----------------------------------------------------------------------------------
  CG solver: Constructing Y initial guess
  CG solver: Iteration    1    eps =    0.000045364103
  CG solver: Iteration    2    eps =    0.000010352000
  CG solver: Iteration    3    eps =    0.000000409413
  CG solver: Iteration    4    eps =    0.000000103011
  CG solver: Iteration    5    eps =    0.000000007101
  Convergence reached in CG solver after    5 iterations
  CG solver: Calculating converged R, Z, Q2 matrix
----------------------------------------------------------------------------------

----------------------------------------------------------------------------------
 Solving CP-REKS equation for SI between  1 and  2 state vectors...
----------------------------------------------------------------------------------
  CG solver: Constructing Y initial guess
  CG solver: Iteration    1    eps =    0.000837550115
  CG solver: Iteration    2    eps =    0.000837800226
  CG solver: Iteration    3    eps =    0.000194077205
  CG solver: Iteration    4    eps =    0.000002462791
  CG solver: Iteration    5    eps =    0.000000340630
  CG solver: Iteration    6    eps =    0.000000009465
  Convergence reached in CG solver after    6 iterations
  CG solver: Calculating converged R, Z, Q2 matrix
----------------------------------------------------------------------------------

--------------------------------------------------
 Gradient Information
--------------------------------------------------
           1 st state (SSR)
     0.00869626    -0.00417064    -0.02020755
     0.00009685     0.00075639     0.01805644
     0.00851852     0.00902286     0.00146489
     0.00403963    -0.00739940    -0.00409316
    -0.00918130     0.00774871    -0.00229136
    -0.01216997    -0.00595792     0.00707073

           2 st state (SSR)
    -0.00257651    -0.00196746     0.08312663
     0.00347331     0.00322105    -0.10012888
    -0.00322262    -0.00683237     0.01652786
    -0.00287673     0.00658647    -0.01131058
    -0.00076463    -0.00401258    -0.01010891
     0.00596718     0.00300489     0.02189388
--------------------------------------------------
 Coupling Information
--------------------------------------------------
 between  1 and  2 states
--------------------------------------------------
 g vector - difference gradient
     0.00553189    -0.00104471    -0.05183014
    -0.00162898    -0.00123486     0.05921036
     0.00590247     0.00812562    -0.00751229
     0.00342205    -0.00723871     0.00361337
    -0.00419524     0.00612108     0.00394256
    -0.00903219    -0.00472842    -0.00742386

 h vector - derivative coupling
    -0.00349707     0.00187338    -0.00453058
     0.00195960    -0.00006355     0.00293666
     0.00095127     0.00634108     0.00074173
    -0.00123212    -0.00791481     0.00009685
     0.00049193     0.00775780     0.00104286
     0.00132638    -0.00799390    -0.00028752

 G vector - GDV
     0.00563639    -0.00110159    -0.05166709
    -0.00168823    -0.00123233     0.05909266
     0.00587057     0.00792762    -0.00753149
     0.00345818    -0.00699294     0.00360871
    -0.00420833     0.00588064     0.00390877
    -0.00906858    -0.00448140    -0.00741158

 H vector - DCV - non-adiabatic coupling
    -0.01288622     0.00713080    -0.02369437
     0.00739539    -0.00039260     0.01839751
     0.00438414     0.02552021     0.00198107
    -0.00436541    -0.03150932     0.00080377
     0.00140729     0.03076869     0.00450629
     0.00406483    -0.03151778    -0.00199427
--------------------------------------------------


--------------------------------------------------------------------------------
DFTB+ running times                          cpu [s]             wall clock [s]
--------------------------------------------------------------------------------
SCC                                    +     0.02  ( 71.3%)      0.02  ( 65.7%)
--------------------------------------------------------------------------------
Missing                                +     0.01  ( 28.7%)      0.01  ( 34.3%)
Total                                  =     0.03  (100.0%)      0.04  (100.0%)
--------------------------------------------------------------------------------
