|===============================================================================
|
|  DFTB+ release 20.1
|
|  Copyright (C) 2006 - 2020  DFTB+ developers group
|
|===============================================================================
|
|  When publishing results obtained with DFTB+, please cite the following
|  reference:
|
|  * DFTB+, a software package for efficient approximate density functional
|    theory based atomistic simulations, J. Chem. Phys. 152, 124101 (2020).
|    [doi: 10.1063/1.5143190]
|
|  You should also cite additional publications crediting the parametrization
|  data you use. Please consult the documentation of the SK-files for the
|  references.
|
|===============================================================================

Reading input file 'dftb_in.hsd'
Parser version: 8

--------------------------------------------------------------------------------
Reading SK-files:
Done.


Processed input in HSD format written to 'dftb_pin.hsd'

Starting initialization...
--------------------------------------------------------------------------------
OpenMP threads:              1
Chosen random seed:          503628342
Mode:                        Static calculation
Self consistent charges:     Yes
SCC-tolerance:                 0.100000E-05
Max. scc iterations:                   1000
Shell resolved Hubbard:      No
Spin polarisation:           No
Nr. of up electrons:            16.000000
Nr. of down electrons:          16.000000
Periodic boundaries:         No
Electronic solver:           Relatively robust
Maximal SCC-cycles:                    1000
Initial charges:             Set automatically (system chrg:   0.100E+01)
Included shells:             C:  s, p
                             H:  s
                             N:  s, p
Spin coupling constants:     C   1(s)-1(s):  -0.455900E-01
                             C   1(s)-2(p):  -0.293000E-01
                             C   2(p)-1(s):  -0.293000E-01
                             C   2(p)-2(p):  -0.275500E-01
                             H   1(s)-1(s):  -0.792500E-01
                             N   1(s)-1(s):  -0.468700E-01
                             N   1(s)-2(p):  -0.317000E-01
                             N   2(p)-1(s):  -0.317000E-01
                             N   2(p)-2(p):  -0.307200E-01
Range separated hybrid:      Yes
  Screening parameter omega:   0.300000E+00
  Range separated algorithm:   MatrixBased
Extra options:
                             Mulliken analysis
                             Force calculation
Force type                   original
                             Eigenvector printing


REKS Calcuation:             Yes
SSR(2,2) Calcuation:         Yes
Energy Functional:           (PPS+OSS)/2
Number of Core Orbitals:                 15
Number of Active Orbitals:                2
Number of Basis:                         32
Number of States:                         2
State-Averaging Weight:          0.500000
                                 0.500000
State of Interest:                        1
Initial Guess:               Diagonalize H0 matrix
Newton-Raphson for FON opt:  Yes
NR max. Iterations:                      50
Level Shifting:              Yes
Shift Value:                     0.300000
W Scale Factor:              C  =    3.200000
                             H  =    3.200000
                             N  =    3.200000
Transition Dipole:           No
Gradient of Microstate:      No
CP-REKS Solver:              Preconditioned Conjugate-Gradient
CG max. Iterations:                     100
CG Tolerance:                  0.100000E-07
Memory for A and Hxc:        Direct Updating Without Saving
Non-Adiabatic Coupling:      Yes

--------------------------------------------------------------------------------

***  Geometry step: 0

  iSCC       reks energy        Diff energy         x_a       SCC error   
    1      -16.3562295689       0.0000000000     0.998788    1.21758918
    2      -16.3757081153      -0.0194785464     0.999842    0.06338427
    3      -16.3792041302      -0.0034960149     0.999941    0.02616059
    4      -16.3803570796      -0.0011529494     0.999966    0.01653544
    5      -16.3808533103      -0.0004962307     0.999976    0.01118389
    6      -16.3810946443      -0.0002413340     0.999981    0.00788411
    7      -16.3812217909      -0.0001271466     0.999984    0.00569395
    8      -16.3812933927      -0.0000716018     0.999986    0.00418702
    9      -16.3813364161      -0.0000430234     0.999987    0.00312803
   10      -16.3813640542      -0.0000276382     0.999988    0.00237187
   11      -16.3813830569      -0.0000190027     0.999988    0.00182446
   12      -16.3813970100      -0.0000139531     0.999989    0.00142314
   13      -16.3814078876      -0.0000108776     0.999989    0.00112541
   14      -16.3814168151      -0.0000089274     0.999989    0.00090200
   15      -16.3814244560      -0.0000076409     0.999989    0.00073254
   16      -16.3814312149      -0.0000067589     0.999990    0.00060265
   17      -16.3814373459      -0.0000061310     0.999990    0.00052057
   18      -16.3814430132      -0.0000056673     0.999990    0.00045642
   19      -16.3814483256      -0.0000053124     0.999990    0.00043899
   20      -16.3814533568      -0.0000050312     0.999990    0.00044590
   21      -16.3814581581      -0.0000048012     0.999990    0.00045005
   22      -16.3814627654      -0.0000046073     0.999991    0.00045217
   23      -16.3814672049      -0.0000044395     0.999991    0.00045278
   24      -16.3814714959      -0.0000042910     0.999991    0.00045226
   25      -16.3814756528      -0.0000041569     0.999991    0.00045092
   26      -16.3814796867      -0.0000040339     0.999991    0.00044897
   27      -16.3814836064      -0.0000039197     0.999991    0.00044656
   28      -16.3814874189      -0.0000038125     0.999991    0.00044382
   29      -16.3814911301      -0.0000037112     0.999991    0.00044084
   30      -16.3814947448      -0.0000036147     0.999991    0.00043769
   31      -16.3814982672      -0.0000035224     0.999992    0.00043441
   32      -16.3815017011      -0.0000034339     0.999992    0.00043104
   33      -16.3815050498      -0.0000033487     0.999992    0.00042762
   34      -16.3815083162      -0.0000032664     0.999992    0.00042415
   35      -16.3815115031      -0.0000031869     0.999992    0.00042066
   36      -16.3815146130      -0.0000031099     0.999992    0.00041716
   37      -16.3815176483      -0.0000030353     0.999992    0.00041366
   38      -16.3815206113      -0.0000029630     0.999992    0.00041015
   39      -16.3815235041      -0.0000028928     0.999992    0.00040666
   40      -16.3815263287      -0.0000028246     0.999992    0.00040317
   41      -16.3815290871      -0.0000027583     0.999993    0.00039970
   42      -16.3815317810      -0.0000026939     0.999993    0.00039624
   43      -16.3815344123      -0.0000026313     0.999993    0.00039280
   44      -16.3815369827      -0.0000025704     0.999993    0.00038937
   45      -16.3815394939      -0.0000025111     0.999993    0.00038596
   46      -16.3815419474      -0.0000024535     0.999993    0.00038257
   47      -16.3815443448      -0.0000023974     0.999993    0.00037920
   48      -16.3815466875      -0.0000023427     0.999993    0.00037585
   49      -16.3815489771      -0.0000022896     0.999993    0.00037252
   50      -16.3815512149      -0.0000022378     0.999993    0.00036921
   51      -16.3815534022      -0.0000021874     0.999993    0.00036592
   52      -16.3815555405      -0.0000021383     0.999993    0.00036266
   53      -16.3815576309      -0.0000020904     0.999993    0.00035941
   54      -16.3815596747      -0.0000020438     0.999994    0.00035618
   55      -16.3815616732      -0.0000019985     0.999994    0.00035298
   56      -16.3815636274      -0.0000019542     0.999994    0.00034980
   57      -16.3815655386      -0.0000019111     0.999994    0.00034664
   58      -16.3815674077      -0.0000018692     0.999994    0.00034350
   59      -16.3815692359      -0.0000018282     0.999994    0.00034039
   60      -16.3815710243      -0.0000017883     0.999994    0.00033729
   61      -16.3815727738      -0.0000017495     0.999994    0.00033423
   62      -16.3815744853      -0.0000017116     0.999994    0.00033118
   63      -16.3815761600      -0.0000016746     0.999994    0.00032816
   64      -16.3815777986      -0.0000016386     0.999994    0.00032517
   65      -16.3815794021      -0.0000016035     0.999994    0.00032219
   66      -16.3815809713      -0.0000015692     0.999994    0.00031924
   67      -16.3815825072      -0.0000015358     0.999994    0.00031632
   68      -16.3815840104      -0.0000015033     0.999994    0.00031342
   69      -16.3815854819      -0.0000014715     0.999994    0.00031054
   70      -16.3815869224      -0.0000014405     0.999995    0.00030769
   71      -16.3815883327      -0.0000014103     0.999995    0.00030487
   72      -16.3815897135      -0.0000013808     0.999995    0.00030207
   73      -16.3815910655      -0.0000013520     0.999995    0.00029929
   74      -16.3815923894      -0.0000013239     0.999995    0.00029654
   75      -16.3815936860      -0.0000012965     0.999995    0.00029381
   76      -16.3815949558      -0.0000012698     0.999995    0.00029111
   77      -16.3815961994      -0.0000012437     0.999995    0.00028844
   78      -16.3815974177      -0.0000012182     0.999995    0.00028578
   79      -16.3815986110      -0.0000011933     0.999995    0.00028316
   80      -16.3815997801      -0.0000011691     0.999995    0.00028056
   81      -16.3816009254      -0.0000011454     0.999995    0.00027798
   82      -16.3816020477      -0.0000011222     0.999995    0.00027543
   83      -16.3816031473      -0.0000010996     0.999995    0.00027290
   84      -16.3816042249      -0.0000010776     0.999995    0.00027039
   85      -16.3816052809      -0.0000010560     0.999995    0.00026792
   86      -16.3816063159      -0.0000010350     0.999995    0.00026546
   87      -16.3816073303      -0.0000010144     0.999995    0.00026303
   88      -16.3816083246      -0.0000009943     0.999995    0.00026063
   89      -16.3816092993      -0.0000009747     0.999995    0.00025824
   90      -16.3816102549      -0.0000009555     0.999995    0.00025589
   91      -16.3816111917      -0.0000009368     0.999995    0.00025355
   92      -16.3816121102      -0.0000009185     0.999995    0.00025124
   93      -16.3816130108      -0.0000009006     0.999996    0.00024895
   94      -16.3816138940      -0.0000008832     0.999996    0.00024669
   95      -16.3816147601      -0.0000008661     0.999996    0.00024445
   96      -16.3816156095      -0.0000008494     0.999996    0.00024223
   97      -16.3816164425      -0.0000008331     0.999996    0.00024004
   98      -16.3816172597      -0.0000008171     0.999996    0.00023786
   99      -16.3816180612      -0.0000008015     0.999996    0.00023571
  100      -16.3816188475      -0.0000007863     0.999996    0.00023358
  101      -16.3816196188      -0.0000007714     0.999996    0.00023148
  102      -16.3816203756      -0.0000007568     0.999996    0.00022940
  103      -16.3816211181      -0.0000007425     0.999996    0.00022733
  104      -16.3816218467      -0.0000007286     0.999996    0.00022529
  105      -16.3816225616      -0.0000007149     0.999996    0.00022327
  106      -16.3816232632      -0.0000007016     0.999996    0.00022128
  107      -16.3816239518      -0.0000006885     0.999996    0.00021930
  108      -16.3816246276      -0.0000006758     0.999996    0.00021734
  109      -16.3816252909      -0.0000006633     0.999996    0.00021541
  110      -16.3816259419      -0.0000006511     0.999996    0.00021349
  111      -16.3816265811      -0.0000006391     0.999996    0.00021160
  112      -16.3816272085      -0.0000006274     0.999996    0.00020972
  113      -16.3816278244      -0.0000006160     0.999996    0.00020787
  114      -16.3816284292      -0.0000006048     0.999996    0.00020603
  115      -16.3816290230      -0.0000005938     0.999996    0.00020421
  116      -16.3816296060      -0.0000005830     0.999996    0.00020242
  117      -16.3816301786      -0.0000005725     0.999996    0.00020064
  118      -16.3816307408      -0.0000005622     0.999996    0.00019888
  119      -16.3816312930      -0.0000005522     0.999996    0.00019714
  120      -16.3816318353      -0.0000005423     0.999996    0.00019541
  121      -16.3816323679      -0.0000005327     0.999996    0.00019371
  122      -16.3816328911      -0.0000005232     0.999996    0.00019202
  123      -16.3816334051      -0.0000005139     0.999996    0.00019036
  124      -16.3816339100      -0.0000005049     0.999996    0.00018871
  125      -16.3816344059      -0.0000004960     0.999996    0.00018707
  126      -16.3816348932      -0.0000004873     0.999996    0.00018546
  127      -16.3816353720      -0.0000004788     0.999996    0.00018386
  128      -16.3816358424      -0.0000004704     0.999997    0.00018228
  129      -16.3816363047      -0.0000004622     0.999997    0.00018071
  130      -16.3816367589      -0.0000004542     0.999997    0.00017916
  131      -16.3816372053      -0.0000004464     0.999997    0.00017763
  132      -16.3816376440      -0.0000004387     0.999997    0.00017611
  133      -16.3816380751      -0.0000004312     0.999997    0.00017461
  134      -16.3816384989      -0.0000004238     0.999997    0.00017313
  135      -16.3816389154      -0.0000004165     0.999997    0.00017166
  136      -16.3816393248      -0.0000004094     0.999997    0.00017020
  137      -16.3816397273      -0.0000004025     0.999997    0.00016877
  138      -16.3816401230      -0.0000003957     0.999997    0.00016734
  139      -16.3816405120      -0.0000003890     0.999997    0.00016594
  140      -16.3816408944      -0.0000003824     0.999997    0.00016454
  141      -16.3816412704      -0.0000003760     0.999997    0.00016316
  142      -16.3816416401      -0.0000003697     0.999997    0.00016180
  143      -16.3816420037      -0.0000003635     0.999997    0.00016045
  144      -16.3816423612      -0.0000003575     0.999997    0.00015911
  145      -16.3816427127      -0.0000003516     0.999997    0.00015779
  146      -16.3816430585      -0.0000003457     0.999997    0.00015648
  147      -16.3816433985      -0.0000003400     0.999997    0.00015519
  148      -16.3816437330      -0.0000003344     0.999997    0.00015390
  149      -16.3816440619      -0.0000003289     0.999997    0.00015264
  150      -16.3816443855      -0.0000003236     0.999997    0.00015138
  151      -16.3816447038      -0.0000003183     0.999997    0.00015014
  152      -16.3816450169      -0.0000003131     0.999997    0.00014891
  153      -16.3816453249      -0.0000003080     0.999997    0.00014769
  154      -16.3816456279      -0.0000003030     0.999997    0.00014649
  155      -16.3816459261      -0.0000002981     0.999997    0.00014530
  156      -16.3816462194      -0.0000002933     0.999997    0.00014412
  157      -16.3816465080      -0.0000002886     0.999997    0.00014295
  158      -16.3816467920      -0.0000002840     0.999997    0.00014180
  159      -16.3816470715      -0.0000002795     0.999997    0.00014065
  160      -16.3816473465      -0.0000002750     0.999997    0.00013952
  161      -16.3816476171      -0.0000002706     0.999997    0.00013840
  162      -16.3816478835      -0.0000002664     0.999997    0.00013729
  163      -16.3816481456      -0.0000002621     0.999997    0.00013619
  164      -16.3816484037      -0.0000002580     0.999997    0.00013511
  165      -16.3816486576      -0.0000002540     0.999997    0.00013403
  166      -16.3816489076      -0.0000002500     0.999997    0.00013297
  167      -16.3816491536      -0.0000002461     0.999997    0.00013191
  168      -16.3816493959      -0.0000002422     0.999997    0.00013087
  169      -16.3816496343      -0.0000002385     0.999997    0.00012984
  170      -16.3816498691      -0.0000002348     0.999997    0.00012881
  171      -16.3816501002      -0.0000002311     0.999997    0.00012780
  172      -16.3816503278      -0.0000002276     0.999997    0.00012680
  173      -16.3816505518      -0.0000002241     0.999997    0.00012581
  174      -16.3816507724      -0.0000002206     0.999997    0.00012482
  175      -16.3816509897      -0.0000002172     0.999997    0.00012385
  176      -16.3816512036      -0.0000002139     0.999997    0.00012289
  177      -16.3816514142      -0.0000002106     0.999997    0.00012194
  178      -16.3816516217      -0.0000002074     0.999997    0.00012099
  179      -16.3816518260      -0.0000002043     0.999997    0.00012006
  180      -16.3816520272      -0.0000002012     0.999997    0.00011913
  181      -16.3816522253      -0.0000001982     0.999997    0.00011822
  182      -16.3816524205      -0.0000001952     0.999997    0.00011731
  183      -16.3816526128      -0.0000001923     0.999997    0.00011641
  184      -16.3816528022      -0.0000001894     0.999997    0.00011552
  185      -16.3816529887      -0.0000001865     0.999997    0.00011464
  186      -16.3816531725      -0.0000001838     0.999997    0.00011377
  187      -16.3816533535      -0.0000001810     0.999997    0.00011290
  188      -16.3816535319      -0.0000001783     0.999997    0.00011205
  189      -16.3816537076      -0.0000001757     0.999997    0.00011120
  190      -16.3816538807      -0.0000001731     0.999997    0.00011036
  191      -16.3816540513      -0.0000001706     0.999997    0.00010953
  192      -16.3816542193      -0.0000001681     0.999997    0.00010871
  193      -16.3816543849      -0.0000001656     0.999997    0.00010790
  194      -16.3816545481      -0.0000001632     0.999997    0.00010709
  195      -16.3816547089      -0.0000001608     0.999997    0.00010629
  196      -16.3816548673      -0.0000001585     0.999997    0.00010550
  197      -16.3816550235      -0.0000001562     0.999997    0.00010471
  198      -16.3816551774      -0.0000001539     0.999997    0.00010394
  199      -16.3816553290      -0.0000001517     0.999998    0.00010317
  200      -16.3816554785      -0.0000001495     0.999998    0.00010241
  201      -16.3816556259      -0.0000001473     0.999998    0.00010165
  202      -16.3816557711      -0.0000001452     0.999998    0.00010091
  203      -16.3816559142      -0.0000001431     0.999998    0.00010017
  204      -16.3816560553      -0.0000001411     0.999998    0.00009943
  205      -16.3816561944      -0.0000001391     0.999998    0.00009871
  206      -16.3816563315      -0.0000001371     0.999998    0.00009799
  207      -16.3816564667      -0.0000001352     0.999998    0.00009727
  208      -16.3816565999      -0.0000001332     0.999998    0.00009657
  209      -16.3816567313      -0.0000001314     0.999998    0.00009587
  210      -16.3816568608      -0.0000001295     0.999998    0.00009517
  211      -16.3816569885      -0.0000001277     0.999998    0.00009449
  212      -16.3816571144      -0.0000001259     0.999998    0.00009381
  213      -16.3816572385      -0.0000001241     0.999998    0.00009313
  214      -16.3816573609      -0.0000001224     0.999998    0.00009247
  215      -16.3816574816      -0.0000001207     0.999998    0.00009180
  216      -16.3816576007      -0.0000001190     0.999998    0.00009115
  217      -16.3816577180      -0.0000001174     0.999998    0.00009050
  218      -16.3816578338      -0.0000001157     0.999998    0.00008986
  219      -16.3816579479      -0.0000001141     0.999998    0.00008922
  220      -16.3816580605      -0.0000001126     0.999998    0.00008859
  221      -16.3816581715      -0.0000001110     0.999998    0.00008796
  222      -16.3816582810      -0.0000001095     0.999998    0.00008734
  223      -16.3816583890      -0.0000001080     0.999998    0.00008673
  224      -16.3816584956      -0.0000001065     0.999998    0.00008612
  225      -16.3816586006      -0.0000001051     0.999998    0.00008551
  226      -16.3816587043      -0.0000001036     0.999998    0.00008492
  227      -16.3816588065      -0.0000001022     0.999998    0.00008432
  228      -16.3816589074      -0.0000001009     0.999998    0.00008373
  229      -16.3816590069      -0.0000000995     0.999998    0.00008315
  230      -16.3816591050      -0.0000000982     0.999998    0.00008258
  231      -16.3816592019      -0.0000000968     0.999998    0.00008200
  232      -16.3816592974      -0.0000000955     0.999998    0.00008144
  233      -16.3816593916      -0.0000000942     0.999998    0.00008088
  234      -16.3816594846      -0.0000000930     0.999998    0.00008032
  235      -16.3816595764      -0.0000000917     0.999998    0.00007977
  236      -16.3816596669      -0.0000000905     0.999998    0.00007922
  237      -16.3816597562      -0.0000000893     0.999998    0.00007868
  238      -16.3816598443      -0.0000000881     0.999998    0.00007814
  239      -16.3816599313      -0.0000000870     0.999998    0.00007761
  240      -16.3816600171      -0.0000000858     0.999998    0.00007708
  241      -16.3816601018      -0.0000000847     0.999998    0.00007656
  242      -16.3816601854      -0.0000000836     0.999998    0.00007604
  243      -16.3816602679      -0.0000000825     0.999998    0.00007552
  244      -16.3816603493      -0.0000000814     0.999998    0.00007501
  245      -16.3816604296      -0.0000000803     0.999998    0.00007451
  246      -16.3816605089      -0.0000000793     0.999998    0.00007401
  247      -16.3816605871      -0.0000000782     0.999998    0.00007351
  248      -16.3816606644      -0.0000000772     0.999998    0.00007302
  249      -16.3816607406      -0.0000000762     0.999998    0.00007253
  250      -16.3816608158      -0.0000000752     0.999998    0.00007205
  251      -16.3816608901      -0.0000000743     0.999998    0.00007157
  252      -16.3816609634      -0.0000000733     0.999998    0.00007109
  253      -16.3816610358      -0.0000000724     0.999998    0.00007062
  254      -16.3816611072      -0.0000000714     0.999998    0.00007015
  255      -16.3816611777      -0.0000000705     0.999998    0.00006969
  256      -16.3816612474      -0.0000000696     0.999998    0.00006923
  257      -16.3816613161      -0.0000000687     0.999998    0.00006877
  258      -16.3816613839      -0.0000000679     0.999998    0.00006832
  259      -16.3816614509      -0.0000000670     0.999998    0.00006787
  260      -16.3816615171      -0.0000000661     0.999998    0.00006743
  261      -16.3816615824      -0.0000000653     0.999998    0.00006699
  262      -16.3816616468      -0.0000000645     0.999998    0.00006655
  263      -16.3816617105      -0.0000000637     0.999998    0.00006612
  264      -16.3816617734      -0.0000000629     0.999998    0.00006569
  265      -16.3816618354      -0.0000000621     0.999998    0.00006526
  266      -16.3816618967      -0.0000000613     0.999998    0.00006484
  267      -16.3816619572      -0.0000000605     0.999998    0.00006442
  268      -16.3816620170      -0.0000000598     0.999998    0.00006401
  269      -16.3816620760      -0.0000000590     0.999998    0.00006360
  270      -16.3816621343      -0.0000000583     0.999998    0.00006319
  271      -16.3816621918      -0.0000000576     0.999998    0.00006278
  272      -16.3816622487      -0.0000000568     0.999998    0.00006238
  273      -16.3816623048      -0.0000000561     0.999998    0.00006198
  274      -16.3816623602      -0.0000000554     0.999998    0.00006159
  275      -16.3816624150      -0.0000000548     0.999998    0.00006119
  276      -16.3816624691      -0.0000000541     0.999998    0.00006080
  277      -16.3816625225      -0.0000000534     0.999998    0.00006042
  278      -16.3816625753      -0.0000000528     0.999998    0.00006004
  279      -16.3816626274      -0.0000000521     0.999998    0.00005966
  280      -16.3816626788      -0.0000000515     0.999998    0.00005928
  281      -16.3816627297      -0.0000000508     0.999998    0.00005891
  282      -16.3816627799      -0.0000000502     0.999998    0.00005854
  283      -16.3816628295      -0.0000000496     0.999998    0.00005817
  284      -16.3816628785      -0.0000000490     0.999998    0.00005780
  285      -16.3816629269      -0.0000000484     0.999998    0.00005744
  286      -16.3816629748      -0.0000000478     0.999998    0.00005708
  287      -16.3816630220      -0.0000000472     0.999998    0.00005673
  288      -16.3816630687      -0.0000000467     0.999998    0.00005637
  289      -16.3816631148      -0.0000000461     0.999998    0.00005602
  290      -16.3816631604      -0.0000000456     0.999998    0.00005568
  291      -16.3816632054      -0.0000000450     0.999998    0.00005533
  292      -16.3816632499      -0.0000000445     0.999998    0.00005499
  293      -16.3816632938      -0.0000000439     0.999998    0.00005465
  294      -16.3816633372      -0.0000000434     0.999998    0.00005431
  295      -16.3816633801      -0.0000000429     0.999998    0.00005398
  296      -16.3816634225      -0.0000000424     0.999998    0.00005365
  297      -16.3816634644      -0.0000000419     0.999998    0.00005332
  298      -16.3816635058      -0.0000000414     0.999998    0.00005299
  299      -16.3816635467      -0.0000000409     0.999998    0.00005267
  300      -16.3816635871      -0.0000000404     0.999998    0.00005235
  301      -16.3816636270      -0.0000000399     0.999998    0.00005203
  302      -16.3816636665      -0.0000000395     0.999998    0.00005172
  303      -16.3816637055      -0.0000000390     0.999998    0.00005140
  304      -16.3816637440      -0.0000000385     0.999998    0.00005109
  305      -16.3816637821      -0.0000000381     0.999998    0.00005078
  306      -16.3816638197      -0.0000000376     0.999998    0.00005047
  307      -16.3816638570      -0.0000000372     0.999998    0.00005017
  308      -16.3816638937      -0.0000000368     0.999998    0.00004987
  309      -16.3816639301      -0.0000000363     0.999998    0.00004957
  310      -16.3816639660      -0.0000000359     0.999998    0.00004927
  311      -16.3816640015      -0.0000000355     0.999998    0.00004898
  312      -16.3816640366      -0.0000000351     0.999998    0.00004868
  313      -16.3816640712      -0.0000000347     0.999998    0.00004839
  314      -16.3816641055      -0.0000000343     0.999998    0.00004811
  315      -16.3816641394      -0.0000000339     0.999998    0.00004782
  316      -16.3816641729      -0.0000000335     0.999998    0.00004754
  317      -16.3816642060      -0.0000000331     0.999998    0.00004725
  318      -16.3816642387      -0.0000000327     0.999998    0.00004697
  319      -16.3816642711      -0.0000000324     0.999998    0.00004670
  320      -16.3816643031      -0.0000000320     0.999998    0.00004642
  321      -16.3816643347      -0.0000000316     0.999998    0.00004615
  322      -16.3816643659      -0.0000000313     0.999998    0.00004588
  323      -16.3816643968      -0.0000000309     0.999998    0.00004561
  324      -16.3816644274      -0.0000000305     0.999998    0.00004534
  325      -16.3816644576      -0.0000000302     0.999998    0.00004507
  326      -16.3816644874      -0.0000000299     0.999998    0.00004481
  327      -16.3816645170      -0.0000000295     0.999998    0.00004455
  328      -16.3816645462      -0.0000000292     0.999998    0.00004429
  329      -16.3816645750      -0.0000000289     0.999998    0.00004403
  330      -16.3816646035      -0.0000000285     0.999998    0.00004378
  331      -16.3816646317      -0.0000000282     0.999998    0.00004352
  332      -16.3816646596      -0.0000000279     0.999998    0.00004327
  333      -16.3816646872      -0.0000000276     0.999998    0.00004302
  334      -16.3816647145      -0.0000000273     0.999998    0.00004277
  335      -16.3816647414      -0.0000000270     0.999998    0.00004252
  336      -16.3816647681      -0.0000000267     0.999998    0.00004228
  337      -16.3816647945      -0.0000000264     0.999998    0.00004204
  338      -16.3816648205      -0.0000000261     0.999998    0.00004180
  339      -16.3816648463      -0.0000000258     0.999998    0.00004156
  340      -16.3816648718      -0.0000000255     0.999998    0.00004132
  341      -16.3816648970      -0.0000000252     0.999998    0.00004108
  342      -16.3816649219      -0.0000000249     0.999998    0.00004085
  343      -16.3816649466      -0.0000000247     0.999998    0.00004062
  344      -16.3816649710      -0.0000000244     0.999998    0.00004038
  345      -16.3816649951      -0.0000000241     0.999998    0.00004015
  346      -16.3816650189      -0.0000000238     0.999998    0.00003993
  347      -16.3816650425      -0.0000000236     0.999998    0.00003970
  348      -16.3816650659      -0.0000000233     0.999998    0.00003948
  349      -16.3816650889      -0.0000000231     0.999998    0.00003925
  350      -16.3816651117      -0.0000000228     0.999998    0.00003903
  351      -16.3816651343      -0.0000000226     0.999998    0.00003881
  352      -16.3816651566      -0.0000000223     0.999998    0.00003859
  353      -16.3816651787      -0.0000000221     0.999998    0.00003838
  354      -16.3816652005      -0.0000000218     0.999998    0.00003816
  355      -16.3816652221      -0.0000000216     0.999998    0.00003795
  356      -16.3816652435      -0.0000000214     0.999998    0.00003774
  357      -16.3816652646      -0.0000000211     0.999998    0.00003753
  358      -16.3816652855      -0.0000000209     0.999998    0.00003732
  359      -16.3816653062      -0.0000000207     0.999998    0.00003711
  360      -16.3816653267      -0.0000000205     0.999998    0.00003690
  361      -16.3816653469      -0.0000000202     0.999998    0.00003670
  362      -16.3816653669      -0.0000000200     0.999998    0.00003649
  363      -16.3816653867      -0.0000000198     0.999998    0.00003629
  364      -16.3816654063      -0.0000000196     0.999998    0.00003609
  365      -16.3816654257      -0.0000000194     0.999998    0.00003589
  366      -16.3816654448      -0.0000000192     0.999998    0.00003570
  367      -16.3816654638      -0.0000000190     0.999998    0.00003550
  368      -16.3816654825      -0.0000000188     0.999998    0.00003530
  369      -16.3816655011      -0.0000000186     0.999998    0.00003511
  370      -16.3816655195      -0.0000000184     0.999998    0.00003492
  371      -16.3816655376      -0.0000000182     0.999998    0.00003473
  372      -16.3816655556      -0.0000000180     0.999998    0.00003454
  373      -16.3816655734      -0.0000000178     0.999998    0.00003435
  374      -16.3816655910      -0.0000000176     0.999998    0.00003416
  375      -16.3816656084      -0.0000000174     0.999998    0.00003397
  376      -16.3816656256      -0.0000000172     0.999998    0.00003379
  377      -16.3816656426      -0.0000000170     0.999998    0.00003361
  378      -16.3816656595      -0.0000000169     0.999998    0.00003342
  379      -16.3816656762      -0.0000000167     0.999998    0.00003324
  380      -16.3816656927      -0.0000000165     0.999998    0.00003306
  381      -16.3816657090      -0.0000000163     0.999998    0.00003288
  382      -16.3816657252      -0.0000000162     0.999998    0.00003271
  383      -16.3816657412      -0.0000000160     0.999998    0.00003253
  384      -16.3816657570      -0.0000000158     0.999998    0.00003236
  385      -16.3816657727      -0.0000000157     0.999998    0.00003218
  386      -16.3816657882      -0.0000000155     0.999998    0.00003201
  387      -16.3816658035      -0.0000000153     0.999998    0.00003184
  388      -16.3816658187      -0.0000000152     0.999998    0.00003167
  389      -16.3816658337      -0.0000000150     0.999998    0.00003150
  390      -16.3816658485      -0.0000000149     0.999998    0.00003133
  391      -16.3816658632      -0.0000000147     0.999998    0.00003116
  392      -16.3816658778      -0.0000000146     0.999998    0.00003100
  393      -16.3816658922      -0.0000000144     0.999998    0.00003083
  394      -16.3816659064      -0.0000000143     0.999998    0.00003067
  395      -16.3816659205      -0.0000000141     0.999998    0.00003051
  396      -16.3816659345      -0.0000000140     0.999998    0.00003034
  397      -16.3816659483      -0.0000000138     0.999998    0.00003018
  398      -16.3816659620      -0.0000000137     0.999998    0.00003002
  399      -16.3816659755      -0.0000000135     0.999998    0.00002986
  400      -16.3816659889      -0.0000000134     0.999998    0.00002971
  401      -16.3816660022      -0.0000000133     0.999998    0.00002955
  402      -16.3816660153      -0.0000000131     0.999998    0.00002940
  403      -16.3816660283      -0.0000000130     0.999998    0.00002924
  404      -16.3816660411      -0.0000000129     0.999998    0.00002909
  405      -16.3816660538      -0.0000000127     0.999998    0.00002894
  406      -16.3816660664      -0.0000000126     0.999998    0.00002878
  407      -16.3816660789      -0.0000000125     0.999998    0.00002863
  408      -16.3816660912      -0.0000000123     0.999998    0.00002848
  409      -16.3816661034      -0.0000000122     0.999998    0.00002834
  410      -16.3816661155      -0.0000000121     0.999998    0.00002819
  411      -16.3816661275      -0.0000000120     0.999998    0.00002804
  412      -16.3816661393      -0.0000000118     0.999998    0.00002790
  413      -16.3816661511      -0.0000000117     0.999998    0.00002775
  414      -16.3816661627      -0.0000000116     0.999998    0.00002761
  415      -16.3816661742      -0.0000000115     0.999998    0.00002746
  416      -16.3816661855      -0.0000000114     0.999998    0.00002732
  417      -16.3816661968      -0.0000000113     0.999998    0.00002718
  418      -16.3816662079      -0.0000000111     0.999998    0.00002704
  419      -16.3816662190      -0.0000000110     0.999998    0.00002690
  420      -16.3816662299      -0.0000000109     0.999998    0.00002676
  421      -16.3816662407      -0.0000000108     0.999998    0.00002662
  422      -16.3816662514      -0.0000000107     0.999998    0.00002649
  423      -16.3816662620      -0.0000000106     0.999998    0.00002635
  424      -16.3816662725      -0.0000000105     0.999998    0.00002622
  425      -16.3816662828      -0.0000000104     0.999998    0.00002608
  426      -16.3816662931      -0.0000000103     0.999998    0.00002595
  427      -16.3816663033      -0.0000000102     0.999998    0.00002582
  428      -16.3816663134      -0.0000000101     0.999998    0.00002569
  429      -16.3816663234      -0.0000000100     0.999998    0.00002555
  430      -16.3816663332      -0.0000000099     0.999998    0.00002542
  431      -16.3816663430      -0.0000000098     0.999998    0.00002529
  432      -16.3816663527      -0.0000000097     0.999998    0.00002517
  433      -16.3816663623      -0.0000000096     0.999998    0.00002504
  434      -16.3816663718      -0.0000000095     0.999998    0.00002491
  435      -16.3816663812      -0.0000000094     0.999998    0.00002479
  436      -16.3816663905      -0.0000000093     0.999998    0.00002466
  437      -16.3816663997      -0.0000000092     0.999998    0.00002454
  438      -16.3816664088      -0.0000000091     0.999998    0.00002441
  439      -16.3816664178      -0.0000000090     0.999998    0.00002429
  440      -16.3816664268      -0.0000000089     0.999998    0.00002417
  441      -16.3816664356      -0.0000000089     0.999998    0.00002405
  442      -16.3816664444      -0.0000000088     0.999998    0.00002392
  443      -16.3816664531      -0.0000000087     0.999998    0.00002380
  444      -16.3816664617      -0.0000000086     0.999998    0.00002368
  445      -16.3816664702      -0.0000000085     0.999998    0.00002357
  446      -16.3816664786      -0.0000000084     0.999998    0.00002345
  447      -16.3816664870      -0.0000000083     0.999998    0.00002333
  448      -16.3816664952      -0.0000000083     0.999998    0.00002321
  449      -16.3816665034      -0.0000000082     0.999998    0.00002310
  450      -16.3816665115      -0.0000000081     0.999998    0.00002298
  451      -16.3816665196      -0.0000000080     0.999998    0.00002287
  452      -16.3816665275      -0.0000000079     0.999998    0.00002276
  453      -16.3816665354      -0.0000000079     0.999998    0.00002264
  454      -16.3816665432      -0.0000000078     0.999998    0.00002253
  455      -16.3816665509      -0.0000000077     0.999998    0.00002242
  456      -16.3816665585      -0.0000000076     0.999998    0.00002231
  457      -16.3816665661      -0.0000000076     0.999998    0.00002220
  458      -16.3816665736      -0.0000000075     0.999998    0.00002209
  459      -16.3816665810      -0.0000000074     0.999998    0.00002198
  460      -16.3816665884      -0.0000000074     0.999998    0.00002187
  461      -16.3816665957      -0.0000000073     0.999998    0.00002176
  462      -16.3816666029      -0.0000000072     0.999998    0.00002166
  463      -16.3816666100      -0.0000000071     0.999998    0.00002155
  464      -16.3816666171      -0.0000000071     0.999998    0.00002144
  465      -16.3816666241      -0.0000000070     0.999998    0.00002134
  466      -16.3816666311      -0.0000000069     0.999998    0.00002123
  467      -16.3816666379      -0.0000000069     0.999998    0.00002113
  468      -16.3816666447      -0.0000000068     0.999998    0.00002103
  469      -16.3816666515      -0.0000000067     0.999998    0.00002092
  470      -16.3816666582      -0.0000000067     0.999998    0.00002082
  471      -16.3816666648      -0.0000000066     0.999998    0.00002072
  472      -16.3816666713      -0.0000000066     0.999998    0.00002062
  473      -16.3816666778      -0.0000000065     0.999998    0.00002052
  474      -16.3816666842      -0.0000000064     0.999998    0.00002042
  475      -16.3816666906      -0.0000000064     0.999998    0.00002032
  476      -16.3816666969      -0.0000000063     0.999998    0.00002022
  477      -16.3816667032      -0.0000000062     0.999998    0.00002012
  478      -16.3816667093      -0.0000000062     0.999998    0.00002003
  479      -16.3816667155      -0.0000000061     0.999998    0.00001993
  480      -16.3816667215      -0.0000000061     0.999998    0.00001983
  481      -16.3816667276      -0.0000000060     0.999998    0.00001974
  482      -16.3816667335      -0.0000000060     0.999998    0.00001964
  483      -16.3816667394      -0.0000000059     0.999998    0.00001955
  484      -16.3816667453      -0.0000000058     0.999998    0.00001945
  485      -16.3816667510      -0.0000000058     0.999998    0.00001936
  486      -16.3816667568      -0.0000000057     0.999998    0.00001927
  487      -16.3816667625      -0.0000000057     0.999998    0.00001917
  488      -16.3816667681      -0.0000000056     0.999998    0.00001908
  489      -16.3816667737      -0.0000000056     0.999998    0.00001899
  490      -16.3816667792      -0.0000000055     0.999998    0.00001890
  491      -16.3816667847      -0.0000000055     0.999998    0.00001881
  492      -16.3816667901      -0.0000000054     0.999998    0.00001872
  493      -16.3816667954      -0.0000000054     0.999998    0.00001863
  494      -16.3816668008      -0.0000000053     0.999998    0.00001854
  495      -16.3816668060      -0.0000000053     0.999998    0.00001845
  496      -16.3816668112      -0.0000000052     0.999998    0.00001836
  497      -16.3816668164      -0.0000000052     0.999998    0.00001828
  498      -16.3816668215      -0.0000000051     0.999998    0.00001819
  499      -16.3816668266      -0.0000000051     0.999998    0.00001810
  500      -16.3816668316      -0.0000000050     0.999998    0.00001802
  501      -16.3816668366      -0.0000000050     0.999998    0.00001793
  502      -16.3816668416      -0.0000000049     0.999998    0.00001785
  503      -16.3816668464      -0.0000000049     0.999998    0.00001776
  504      -16.3816668513      -0.0000000048     0.999998    0.00001768
  505      -16.3816668561      -0.0000000048     0.999998    0.00001759
  506      -16.3816668608      -0.0000000048     0.999998    0.00001751
  507      -16.3816668655      -0.0000000047     0.999998    0.00001743
  508      -16.3816668702      -0.0000000047     0.999998    0.00001735
  509      -16.3816668748      -0.0000000046     0.999998    0.00001727
  510      -16.3816668794      -0.0000000046     0.999998    0.00001718
  511      -16.3816668840      -0.0000000045     0.999998    0.00001710
  512      -16.3816668885      -0.0000000045     0.999998    0.00001702
  513      -16.3816668929      -0.0000000045     0.999998    0.00001694
  514      -16.3816668973      -0.0000000044     0.999998    0.00001686
  515      -16.3816669017      -0.0000000044     0.999998    0.00001678
  516      -16.3816669060      -0.0000000043     0.999998    0.00001671
  517      -16.3816669103      -0.0000000043     0.999998    0.00001663
  518      -16.3816669146      -0.0000000043     0.999999    0.00001655
  519      -16.3816669188      -0.0000000042     0.999999    0.00001647
  520      -16.3816669230      -0.0000000042     0.999999    0.00001640
  521      -16.3816669271      -0.0000000041     0.999999    0.00001632
  522      -16.3816669312      -0.0000000041     0.999999    0.00001624
  523      -16.3816669353      -0.0000000041     0.999999    0.00001617
  524      -16.3816669393      -0.0000000040     0.999999    0.00001609
  525      -16.3816669433      -0.0000000040     0.999999    0.00001602
  526      -16.3816669472      -0.0000000040     0.999999    0.00001594
  527      -16.3816669512      -0.0000000039     0.999999    0.00001587
  528      -16.3816669550      -0.0000000039     0.999999    0.00001580
  529      -16.3816669589      -0.0000000038     0.999999    0.00001572
  530      -16.3816669627      -0.0000000038     0.999999    0.00001565
  531      -16.3816669665      -0.0000000038     0.999999    0.00001558
  532      -16.3816669702      -0.0000000037     0.999999    0.00001551
  533      -16.3816669739      -0.0000000037     0.999999    0.00001543
  534      -16.3816669776      -0.0000000037     0.999999    0.00001536
  535      -16.3816669812      -0.0000000036     0.999999    0.00001529
  536      -16.3816669848      -0.0000000036     0.999999    0.00001522
  537      -16.3816669884      -0.0000000036     0.999999    0.00001515
  538      -16.3816669920      -0.0000000035     0.999999    0.00001508
  539      -16.3816669955      -0.0000000035     0.999999    0.00001501
  540      -16.3816669989      -0.0000000035     0.999999    0.00001494
  541      -16.3816670024      -0.0000000034     0.999999    0.00001487
  542      -16.3816670058      -0.0000000034     0.999999    0.00001481
  543      -16.3816670092      -0.0000000034     0.999999    0.00001474
  544      -16.3816670126      -0.0000000034     0.999999    0.00001467
  545      -16.3816670159      -0.0000000033     0.999999    0.00001460
  546      -16.3816670192      -0.0000000033     0.999999    0.00001454
  547      -16.3816670224      -0.0000000033     0.999999    0.00001447
  548      -16.3816670257      -0.0000000032     0.999999    0.00001440
  549      -16.3816670289      -0.0000000032     0.999999    0.00001434
  550      -16.3816670321      -0.0000000032     0.999999    0.00001427
  551      -16.3816670352      -0.0000000032     0.999999    0.00001421
  552      -16.3816670383      -0.0000000031     0.999999    0.00001414
  553      -16.3816670414      -0.0000000031     0.999999    0.00001408
  554      -16.3816670445      -0.0000000031     0.999999    0.00001402
  555      -16.3816670475      -0.0000000030     0.999999    0.00001395
  556      -16.3816670506      -0.0000000030     0.999999    0.00001389
  557      -16.3816670535      -0.0000000030     0.999999    0.00001383
  558      -16.3816670565      -0.0000000030     0.999999    0.00001376
  559      -16.3816670594      -0.0000000029     0.999999    0.00001370
  560      -16.3816670623      -0.0000000029     0.999999    0.00001364
  561      -16.3816670652      -0.0000000029     0.999999    0.00001358
  562      -16.3816670681      -0.0000000029     0.999999    0.00001352
  563      -16.3816670709      -0.0000000028     0.999999    0.00001345
  564      -16.3816670737      -0.0000000028     0.999999    0.00001339
  565      -16.3816670765      -0.0000000028     0.999999    0.00001333
  566      -16.3816670792      -0.0000000028     0.999999    0.00001327
  567      -16.3816670820      -0.0000000027     0.999999    0.00001321
  568      -16.3816670847      -0.0000000027     0.999999    0.00001315
  569      -16.3816670874      -0.0000000027     0.999999    0.00001309
  570      -16.3816670900      -0.0000000027     0.999999    0.00001304
  571      -16.3816670927      -0.0000000026     0.999999    0.00001298
  572      -16.3816670953      -0.0000000026     0.999999    0.00001292
  573      -16.3816670979      -0.0000000026     0.999999    0.00001286
  574      -16.3816671004      -0.0000000026     0.999999    0.00001280
  575      -16.3816671030      -0.0000000025     0.999999    0.00001275
  576      -16.3816671055      -0.0000000025     0.999999    0.00001269
  577      -16.3816671080      -0.0000000025     0.999999    0.00001263
  578      -16.3816671105      -0.0000000025     0.999999    0.00001258
  579      -16.3816671129      -0.0000000025     0.999999    0.00001252
  580      -16.3816671154      -0.0000000024     0.999999    0.00001246
  581      -16.3816671178      -0.0000000024     0.999999    0.00001241
  582      -16.3816671202      -0.0000000024     0.999999    0.00001235
  583      -16.3816671225      -0.0000000024     0.999999    0.00001230
  584      -16.3816671249      -0.0000000023     0.999999    0.00001224
  585      -16.3816671272      -0.0000000023     0.999999    0.00001219
  586      -16.3816671295      -0.0000000023     0.999999    0.00001213
  587      -16.3816671318      -0.0000000023     0.999999    0.00001208
  588      -16.3816671341      -0.0000000023     0.999999    0.00001203
  589      -16.3816671363      -0.0000000022     0.999999    0.00001197
  590      -16.3816671386      -0.0000000022     0.999999    0.00001192
  591      -16.3816671408      -0.0000000022     0.999999    0.00001187
  592      -16.3816671430      -0.0000000022     0.999999    0.00001182
  593      -16.3816671451      -0.0000000022     0.999999    0.00001176
  594      -16.3816671473      -0.0000000022     0.999999    0.00001171
  595      -16.3816671494      -0.0000000021     0.999999    0.00001166
  596      -16.3816671515      -0.0000000021     0.999999    0.00001161
  597      -16.3816671536      -0.0000000021     0.999999    0.00001156
  598      -16.3816671557      -0.0000000021     0.999999    0.00001151
  599      -16.3816671578      -0.0000000021     0.999999    0.00001145
  600      -16.3816671598      -0.0000000020     0.999999    0.00001140
  601      -16.3816671618      -0.0000000020     0.999999    0.00001135
  602      -16.3816671638      -0.0000000020     0.999999    0.00001130
  603      -16.3816671658      -0.0000000020     0.999999    0.00001125
  604      -16.3816671678      -0.0000000020     0.999999    0.00001121
  605      -16.3816671698      -0.0000000020     0.999999    0.00001116
  606      -16.3816671717      -0.0000000019     0.999999    0.00001111
  607      -16.3816671736      -0.0000000019     0.999999    0.00001106
  608      -16.3816671755      -0.0000000019     0.999999    0.00001101
  609      -16.3816671774      -0.0000000019     0.999999    0.00001096
  610      -16.3816671793      -0.0000000019     0.999999    0.00001091
  611      -16.3816671811      -0.0000000019     0.999999    0.00001087
  612      -16.3816671830      -0.0000000018     0.999999    0.00001082
  613      -16.3816671848      -0.0000000018     0.999999    0.00001077
  614      -16.3816671866      -0.0000000018     0.999999    0.00001072
  615      -16.3816671884      -0.0000000018     0.999999    0.00001068
  616      -16.3816671902      -0.0000000018     0.999999    0.00001063
  617      -16.3816671919      -0.0000000018     0.999999    0.00001058
  618      -16.3816671937      -0.0000000017     0.999999    0.00001054
  619      -16.3816671954      -0.0000000017     0.999999    0.00001049
  620      -16.3816671971      -0.0000000017     0.999999    0.00001045
  621      -16.3816671988      -0.0000000017     0.999999    0.00001040
  622      -16.3816672005      -0.0000000017     0.999999    0.00001036
  623      -16.3816672022      -0.0000000017     0.999999    0.00001031
  624      -16.3816672039      -0.0000000017     0.999999    0.00001027
  625      -16.3816672055      -0.0000000016     0.999999    0.00001022
  626      -16.3816672071      -0.0000000016     0.999999    0.00001018
  627      -16.3816672088      -0.0000000016     0.999999    0.00001013
  628      -16.3816672104      -0.0000000016     0.999999    0.00001009
  629      -16.3816672119      -0.0000000016     0.999999    0.00001005
  630      -16.3816672135      -0.0000000016     0.999999    0.00001000
  631      -16.3816672151      -0.0000000016     0.999999    0.00000996
  632      -16.3816672166      -0.0000000015     0.999999    0.00000992
  633      -16.3816672182      -0.0000000015     0.999999    0.00000987
  634      -16.3816672197      -0.0000000015     0.999999    0.00000983
  635      -16.3816672212      -0.0000000015     0.999999    0.00000979
  636      -16.3816672227      -0.0000000015     0.999999    0.00000975
  637      -16.3816672242      -0.0000000015     0.999999    0.00000970
  638      -16.3816672257      -0.0000000015     0.999999    0.00000966
  639      -16.3816672271      -0.0000000015     0.999999    0.00000962
  640      -16.3816672286      -0.0000000014     0.999999    0.00000958
  641      -16.3816672300      -0.0000000014     0.999999    0.00000954
  642      -16.3816672314      -0.0000000014     0.999999    0.00000950
  643      -16.3816672328      -0.0000000014     0.999999    0.00000946
  644      -16.3816672342      -0.0000000014     0.999999    0.00000942
  645      -16.3816672356      -0.0000000014     0.999999    0.00000937
  646      -16.3816672370      -0.0000000014     0.999999    0.00000933
  647      -16.3816672384      -0.0000000014     0.999999    0.00000929
  648      -16.3816672397      -0.0000000014     0.999999    0.00000925
  649      -16.3816672410      -0.0000000013     0.999999    0.00000921
  650      -16.3816672424      -0.0000000013     0.999999    0.00000918
  651      -16.3816672437      -0.0000000013     0.999999    0.00000914
  652      -16.3816672450      -0.0000000013     0.999999    0.00000910
  653      -16.3816672463      -0.0000000013     0.999999    0.00000906
  654      -16.3816672476      -0.0000000013     0.999999    0.00000902
  655      -16.3816672489      -0.0000000013     0.999999    0.00000898
  656      -16.3816672501      -0.0000000013     0.999999    0.00000894
  657      -16.3816672514      -0.0000000013     0.999999    0.00000890
  658      -16.3816672526      -0.0000000012     0.999999    0.00000887
  659      -16.3816672538      -0.0000000012     0.999999    0.00000883
  660      -16.3816672551      -0.0000000012     0.999999    0.00000879
  661      -16.3816672563      -0.0000000012     0.999999    0.00000875
  662      -16.3816672575      -0.0000000012     0.999999    0.00000872
  663      -16.3816672587      -0.0000000012     0.999999    0.00000868
  664      -16.3816672598      -0.0000000012     0.999999    0.00000864
  665      -16.3816672610      -0.0000000012     0.999999    0.00000861
  666      -16.3816672622      -0.0000000012     0.999999    0.00000857
  667      -16.3816672633      -0.0000000012     0.999999    0.00000853
  668      -16.3816672645      -0.0000000011     0.999999    0.00000850
  669      -16.3816672656      -0.0000000011     0.999999    0.00000846
  670      -16.3816672667      -0.0000000011     0.999999    0.00000842
  671      -16.3816672678      -0.0000000011     0.999999    0.00000839
  672      -16.3816672689      -0.0000000011     0.999999    0.00000835
  673      -16.3816672700      -0.0000000011     0.999999    0.00000832
  674      -16.3816672711      -0.0000000011     0.999999    0.00000828
  675      -16.3816672722      -0.0000000011     0.999999    0.00000825
  676      -16.3816672733      -0.0000000011     0.999999    0.00000821
  677      -16.3816672743      -0.0000000011     0.999999    0.00000818
  678      -16.3816672754      -0.0000000010     0.999999    0.00000814
  679      -16.3816672764      -0.0000000010     0.999999    0.00000811
  680      -16.3816672774      -0.0000000010     0.999999    0.00000808
  681      -16.3816672785      -0.0000000010     0.999999    0.00000804
  682      -16.3816672795      -0.0000000010     0.999999    0.00000801
  683      -16.3816672805      -0.0000000010     0.999999    0.00000797
  684      -16.3816672815      -0.0000000010     0.999999    0.00000794
  685      -16.3816672825      -0.0000000010     0.999999    0.00000791
  686      -16.3816672835      -0.0000000010     0.999999    0.00000787
  687      -16.3816672844      -0.0000000010     0.999999    0.00000784
  688      -16.3816672854      -0.0000000010     0.999999    0.00000781
  689      -16.3816672864      -0.0000000010     0.999999    0.00000777
  690      -16.3816672873      -0.0000000009     0.999999    0.00000774
  691      -16.3816672882      -0.0000000009     0.999999    0.00000771
  692      -16.3816672892      -0.0000000009     0.999999    0.00000768
  693      -16.3816672901      -0.0000000009     0.999999    0.00000765
  694      -16.3816672910      -0.0000000009     0.999999    0.00000761
  695      -16.3816672919      -0.0000000009     0.999999    0.00000758
  696      -16.3816672928      -0.0000000009     0.999999    0.00000755
  697      -16.3816672937      -0.0000000009     0.999999    0.00000752
  698      -16.3816672946      -0.0000000009     0.999999    0.00000749
  699      -16.3816672955      -0.0000000009     0.999999    0.00000746
  700      -16.3816672964      -0.0000000009     0.999999    0.00000742
  701      -16.3816672972      -0.0000000009     0.999999    0.00000739
  702      -16.3816672981      -0.0000000009     0.999999    0.00000736
  703      -16.3816672990      -0.0000000009     0.999999    0.00000733
  704      -16.3816672998      -0.0000000008     0.999999    0.00000730
  705      -16.3816673006      -0.0000000008     0.999999    0.00000727
  706      -16.3816673015      -0.0000000008     0.999999    0.00000724
  707      -16.3816673023      -0.0000000008     0.999999    0.00000721
  708      -16.3816673031      -0.0000000008     0.999999    0.00000718
  709      -16.3816673039      -0.0000000008     0.999999    0.00000715
  710      -16.3816673047      -0.0000000008     0.999999    0.00000712
  711      -16.3816673055      -0.0000000008     0.999999    0.00000709
  712      -16.3816673063      -0.0000000008     0.999999    0.00000706
  713      -16.3816673071      -0.0000000008     0.999999    0.00000703
  714      -16.3816673079      -0.0000000008     0.999999    0.00000700
  715      -16.3816673087      -0.0000000008     0.999999    0.00000697
  716      -16.3816673094      -0.0000000008     0.999999    0.00000694
  717      -16.3816673102      -0.0000000008     0.999999    0.00000692
  718      -16.3816673109      -0.0000000008     0.999999    0.00000689
  719      -16.3816673117      -0.0000000007     0.999999    0.00000686
  720      -16.3816673124      -0.0000000007     0.999999    0.00000683
  721      -16.3816673132      -0.0000000007     0.999999    0.00000680
  722      -16.3816673139      -0.0000000007     0.999999    0.00000677
  723      -16.3816673146      -0.0000000007     0.999999    0.00000675
  724      -16.3816673153      -0.0000000007     0.999999    0.00000672
  725      -16.3816673160      -0.0000000007     0.999999    0.00000669
  726      -16.3816673167      -0.0000000007     0.999999    0.00000666
  727      -16.3816673174      -0.0000000007     0.999999    0.00000663
  728      -16.3816673181      -0.0000000007     0.999999    0.00000661
  729      -16.3816673188      -0.0000000007     0.999999    0.00000658
  730      -16.3816673195      -0.0000000007     0.999999    0.00000655
  731      -16.3816673202      -0.0000000007     0.999999    0.00000653
  732      -16.3816673208      -0.0000000007     0.999999    0.00000650
  733      -16.3816673215      -0.0000000007     0.999999    0.00000647
  734      -16.3816673222      -0.0000000007     0.999999    0.00000645
  735      -16.3816673228      -0.0000000007     0.999999    0.00000642
  736      -16.3816673235      -0.0000000006     0.999999    0.00000639
  737      -16.3816673241      -0.0000000006     0.999999    0.00000637
  738      -16.3816673248      -0.0000000006     0.999999    0.00000634
  739      -16.3816673254      -0.0000000006     0.999999    0.00000631
  740      -16.3816673260      -0.0000000006     0.999999    0.00000629
  741      -16.3816673266      -0.0000000006     0.999999    0.00000626
  742      -16.3816673273      -0.0000000006     0.999999    0.00000624
  743      -16.3816673279      -0.0000000006     0.999999    0.00000621
  744      -16.3816673285      -0.0000000006     0.999999    0.00000619
  745      -16.3816673291      -0.0000000006     0.999999    0.00000616
  746      -16.3816673297      -0.0000000006     0.999999    0.00000613
  747      -16.3816673303      -0.0000000006     0.999999    0.00000611
  748      -16.3816673309      -0.0000000006     0.999999    0.00000608
  749      -16.3816673315      -0.0000000006     0.999999    0.00000606
  750      -16.3816673320      -0.0000000006     0.999999    0.00000603
  751      -16.3816673326      -0.0000000006     0.999999    0.00000601
  752      -16.3816673332      -0.0000000006     0.999999    0.00000599
  753      -16.3816673337      -0.0000000006     0.999999    0.00000596
  754      -16.3816673343      -0.0000000006     0.999999    0.00000594
  755      -16.3816673349      -0.0000000006     0.999999    0.00000591
  756      -16.3816673354      -0.0000000006     0.999999    0.00000589
  757      -16.3816673360      -0.0000000005     0.999999    0.00000586
  758      -16.3816673365      -0.0000000005     0.999999    0.00000584
  759      -16.3816673370      -0.0000000005     0.999999    0.00000582
  760      -16.3816673376      -0.0000000005     0.999999    0.00000579
  761      -16.3816673381      -0.0000000005     0.999999    0.00000577
  762      -16.3816673386      -0.0000000005     0.999999    0.00000575
  763      -16.3816673392      -0.0000000005     0.999999    0.00000572
  764      -16.3816673397      -0.0000000005     0.999999    0.00000570
  765      -16.3816673402      -0.0000000005     0.999999    0.00000568
  766      -16.3816673407      -0.0000000005     0.999999    0.00000565
  767      -16.3816673412      -0.0000000005     0.999999    0.00000563
  768      -16.3816673417      -0.0000000005     0.999999    0.00000561
  769      -16.3816673422      -0.0000000005     0.999999    0.00000558
  770      -16.3816673427      -0.0000000005     0.999999    0.00000556
  771      -16.3816673432      -0.0000000005     0.999999    0.00000554
  772      -16.3816673437      -0.0000000005     0.999999    0.00000552
  773      -16.3816673441      -0.0000000005     0.999999    0.00000549
  774      -16.3816673446      -0.0000000005     0.999999    0.00000547
  775      -16.3816673451      -0.0000000005     0.999999    0.00000545
  776      -16.3816673456      -0.0000000005     0.999999    0.00000543
  777      -16.3816673460      -0.0000000005     0.999999    0.00000540
  778      -16.3816673465      -0.0000000005     0.999999    0.00000538
  779      -16.3816673469      -0.0000000005     0.999999    0.00000536
  780      -16.3816673474      -0.0000000005     0.999999    0.00000534
  781      -16.3816673478      -0.0000000005     0.999999    0.00000532
  782      -16.3816673483      -0.0000000004     0.999999    0.00000530
  783      -16.3816673487      -0.0000000004     0.999999    0.00000527
  784      -16.3816673492      -0.0000000004     0.999999    0.00000525
  785      -16.3816673496      -0.0000000004     0.999999    0.00000523
  786      -16.3816673500      -0.0000000004     0.999999    0.00000521
  787      -16.3816673505      -0.0000000004     0.999999    0.00000519
  788      -16.3816673509      -0.0000000004     0.999999    0.00000517
  789      -16.3816673513      -0.0000000004     0.999999    0.00000515
  790      -16.3816673517      -0.0000000004     0.999999    0.00000513
  791      -16.3816673522      -0.0000000004     0.999999    0.00000511
  792      -16.3816673526      -0.0000000004     0.999999    0.00000509
  793      -16.3816673530      -0.0000000004     0.999999    0.00000506
  794      -16.3816673534      -0.0000000004     0.999999    0.00000504
  795      -16.3816673538      -0.0000000004     0.999999    0.00000502
  796      -16.3816673542      -0.0000000004     0.999999    0.00000500
  797      -16.3816673546      -0.0000000004     0.999999    0.00000498
  798      -16.3816673550      -0.0000000004     0.999999    0.00000496
  799      -16.3816673554      -0.0000000004     0.999999    0.00000494
  800      -16.3816673558      -0.0000000004     0.999999    0.00000492
  801      -16.3816673561      -0.0000000004     0.999999    0.00000490
  802      -16.3816673565      -0.0000000004     0.999999    0.00000488
  803      -16.3816673569      -0.0000000004     0.999999    0.00000486
  804      -16.3816673573      -0.0000000004     0.999999    0.00000484
  805      -16.3816673576      -0.0000000004     0.999999    0.00000483
  806      -16.3816673580      -0.0000000004     0.999999    0.00000481
  807      -16.3816673584      -0.0000000004     0.999999    0.00000479
  808      -16.3816673587      -0.0000000004     0.999999    0.00000477
  809      -16.3816673591      -0.0000000004     0.999999    0.00000475
  810      -16.3816673595      -0.0000000004     0.999999    0.00000473
  811      -16.3816673598      -0.0000000004     0.999999    0.00000471
  812      -16.3816673602      -0.0000000004     0.999999    0.00000469
  813      -16.3816673605      -0.0000000003     0.999999    0.00000467
  814      -16.3816673609      -0.0000000003     0.999999    0.00000465
  815      -16.3816673612      -0.0000000003     0.999999    0.00000463
  816      -16.3816673615      -0.0000000003     0.999999    0.00000462
  817      -16.3816673619      -0.0000000003     0.999999    0.00000460
  818      -16.3816673622      -0.0000000003     0.999999    0.00000458
  819      -16.3816673625      -0.0000000003     0.999999    0.00000456
  820      -16.3816673629      -0.0000000003     0.999999    0.00000454
  821      -16.3816673632      -0.0000000003     0.999999    0.00000452
  822      -16.3816673635      -0.0000000003     0.999999    0.00000451
  823      -16.3816673638      -0.0000000003     0.999999    0.00000449
  824      -16.3816673642      -0.0000000003     0.999999    0.00000447
  825      -16.3816673645      -0.0000000003     0.999999    0.00000445
  826      -16.3816673648      -0.0000000003     0.999999    0.00000443
  827      -16.3816673651      -0.0000000003     0.999999    0.00000442
  828      -16.3816673654      -0.0000000003     0.999999    0.00000440
  829      -16.3816673657      -0.0000000003     0.999999    0.00000438
  830      -16.3816673660      -0.0000000003     0.999999    0.00000436
  831      -16.3816673663      -0.0000000003     0.999999    0.00000435
  832      -16.3816673666      -0.0000000003     0.999999    0.00000433
  833      -16.3816673669      -0.0000000003     0.999999    0.00000431
  834      -16.3816673672      -0.0000000003     0.999999    0.00000430
  835      -16.3816673675      -0.0000000003     0.999999    0.00000428
  836      -16.3816673678      -0.0000000003     0.999999    0.00000426
  837      -16.3816673681      -0.0000000003     0.999999    0.00000424
  838      -16.3816673684      -0.0000000003     0.999999    0.00000423
  839      -16.3816673687      -0.0000000003     0.999999    0.00000421
  840      -16.3816673689      -0.0000000003     0.999999    0.00000419
  841      -16.3816673692      -0.0000000003     0.999999    0.00000418
  842      -16.3816673695      -0.0000000003     0.999999    0.00000416
  843      -16.3816673698      -0.0000000003     0.999999    0.00000414
  844      -16.3816673700      -0.0000000003     0.999999    0.00000413
  845      -16.3816673703      -0.0000000003     0.999999    0.00000411
  846      -16.3816673706      -0.0000000003     0.999999    0.00000409
  847      -16.3816673709      -0.0000000003     0.999999    0.00000408
  848      -16.3816673711      -0.0000000003     0.999999    0.00000406
  849      -16.3816673714      -0.0000000003     0.999999    0.00000405
  850      -16.3816673716      -0.0000000003     0.999999    0.00000403
  851      -16.3816673719      -0.0000000003     0.999999    0.00000401
  852      -16.3816673721      -0.0000000003     0.999999    0.00000400
  853      -16.3816673724      -0.0000000003     0.999999    0.00000398
  854      -16.3816673727      -0.0000000003     0.999999    0.00000397
  855      -16.3816673729      -0.0000000002     0.999999    0.00000395
  856      -16.3816673732      -0.0000000002     0.999999    0.00000393
  857      -16.3816673734      -0.0000000002     0.999999    0.00000392
  858      -16.3816673736      -0.0000000002     0.999999    0.00000390
  859      -16.3816673739      -0.0000000002     0.999999    0.00000389
  860      -16.3816673741      -0.0000000002     0.999999    0.00000387
  861      -16.3816673744      -0.0000000002     0.999999    0.00000386
  862      -16.3816673746      -0.0000000002     0.999999    0.00000384
  863      -16.3816673748      -0.0000000002     0.999999    0.00000383
  864      -16.3816673751      -0.0000000002     0.999999    0.00000381
  865      -16.3816673753      -0.0000000002     0.999999    0.00000380
  866      -16.3816673755      -0.0000000002     0.999999    0.00000378
  867      -16.3816673758      -0.0000000002     0.999999    0.00000377
  868      -16.3816673760      -0.0000000002     0.999999    0.00000375
  869      -16.3816673762      -0.0000000002     0.999999    0.00000374
  870      -16.3816673764      -0.0000000002     0.999999    0.00000372
  871      -16.3816673766      -0.0000000002     0.999999    0.00000371
  872      -16.3816673769      -0.0000000002     0.999999    0.00000369
  873      -16.3816673771      -0.0000000002     0.999999    0.00000368
  874      -16.3816673773      -0.0000000002     0.999999    0.00000366
  875      -16.3816673775      -0.0000000002     0.999999    0.00000365
  876      -16.3816673777      -0.0000000002     0.999999    0.00000363
  877      -16.3816673779      -0.0000000002     0.999999    0.00000362
  878      -16.3816673781      -0.0000000002     0.999999    0.00000361
  879      -16.3816673783      -0.0000000002     0.999999    0.00000359
  880      -16.3816673785      -0.0000000002     0.999999    0.00000358
  881      -16.3816673787      -0.0000000002     0.999999    0.00000356
  882      -16.3816673790      -0.0000000002     0.999999    0.00000355
  883      -16.3816673792      -0.0000000002     0.999999    0.00000354
  884      -16.3816673793      -0.0000000002     0.999999    0.00000352
  885      -16.3816673795      -0.0000000002     0.999999    0.00000351
  886      -16.3816673797      -0.0000000002     0.999999    0.00000349
  887      -16.3816673799      -0.0000000002     0.999999    0.00000348
  888      -16.3816673801      -0.0000000002     0.999999    0.00000347
  889      -16.3816673803      -0.0000000002     0.999999    0.00000345
  890      -16.3816673805      -0.0000000002     0.999999    0.00000344
  891      -16.3816673807      -0.0000000002     0.999999    0.00000343
  892      -16.3816673809      -0.0000000002     0.999999    0.00000341
  893      -16.3816673811      -0.0000000002     0.999999    0.00000340
  894      -16.3816673813      -0.0000000002     0.999999    0.00000339
  895      -16.3816673814      -0.0000000002     0.999999    0.00000337
  896      -16.3816673816      -0.0000000002     0.999999    0.00000336
  897      -16.3816673818      -0.0000000002     0.999999    0.00000335
  898      -16.3816673820      -0.0000000002     0.999999    0.00000333
  899      -16.3816673821      -0.0000000002     0.999999    0.00000332
  900      -16.3816673823      -0.0000000002     0.999999    0.00000331
  901      -16.3816673825      -0.0000000002     0.999999    0.00000329
  902      -16.3816673827      -0.0000000002     0.999999    0.00000328
  903      -16.3816673828      -0.0000000002     0.999999    0.00000327
  904      -16.3816673830      -0.0000000002     0.999999    0.00000325
  905      -16.3816673832      -0.0000000002     0.999999    0.00000324
  906      -16.3816673833      -0.0000000002     0.999999    0.00000323
  907      -16.3816673835      -0.0000000002     0.999999    0.00000322
  908      -16.3816673837      -0.0000000002     0.999999    0.00000320
  909      -16.3816673838      -0.0000000002     0.999999    0.00000319
  910      -16.3816673840      -0.0000000002     0.999999    0.00000318
  911      -16.3816673842      -0.0000000002     0.999999    0.00000317
  912      -16.3816673843      -0.0000000002     0.999999    0.00000315
  913      -16.3816673845      -0.0000000002     0.999999    0.00000314
  914      -16.3816673846      -0.0000000002     0.999999    0.00000313
  915      -16.3816673848      -0.0000000002     0.999999    0.00000312
  916      -16.3816673849      -0.0000000002     0.999999    0.00000311
  917      -16.3816673851      -0.0000000002     0.999999    0.00000309
  918      -16.3816673853      -0.0000000002     0.999999    0.00000308
  919      -16.3816673854      -0.0000000002     0.999999    0.00000307
  920      -16.3816673856      -0.0000000001     0.999999    0.00000306
  921      -16.3816673857      -0.0000000001     0.999999    0.00000304
  922      -16.3816673859      -0.0000000001     0.999999    0.00000303
  923      -16.3816673860      -0.0000000001     0.999999    0.00000302
  924      -16.3816673861      -0.0000000001     0.999999    0.00000301
  925      -16.3816673863      -0.0000000001     0.999999    0.00000300
  926      -16.3816673864      -0.0000000001     0.999999    0.00000299
  927      -16.3816673866      -0.0000000001     0.999999    0.00000297
  928      -16.3816673867      -0.0000000001     0.999999    0.00000296
  929      -16.3816673869      -0.0000000001     0.999999    0.00000295
  930      -16.3816673870      -0.0000000001     0.999999    0.00000294
  931      -16.3816673871      -0.0000000001     0.999999    0.00000293
  932      -16.3816673873      -0.0000000001     0.999999    0.00000292
  933      -16.3816673874      -0.0000000001     0.999999    0.00000291
  934      -16.3816673875      -0.0000000001     0.999999    0.00000289
  935      -16.3816673877      -0.0000000001     0.999999    0.00000288
  936      -16.3816673878      -0.0000000001     0.999999    0.00000287
  937      -16.3816673879      -0.0000000001     0.999999    0.00000286
  938      -16.3816673881      -0.0000000001     0.999999    0.00000285
  939      -16.3816673882      -0.0000000001     0.999999    0.00000284
  940      -16.3816673883      -0.0000000001     0.999999    0.00000283
  941      -16.3816673884      -0.0000000001     0.999999    0.00000282
  942      -16.3816673886      -0.0000000001     0.999999    0.00000280
  943      -16.3816673887      -0.0000000001     0.999999    0.00000279
  944      -16.3816673888      -0.0000000001     0.999999    0.00000278
  945      -16.3816673889      -0.0000000001     0.999999    0.00000277
  946      -16.3816673891      -0.0000000001     0.999999    0.00000276
  947      -16.3816673892      -0.0000000001     0.999999    0.00000275
  948      -16.3816673893      -0.0000000001     0.999999    0.00000274
  949      -16.3816673894      -0.0000000001     0.999999    0.00000273
  950      -16.3816673895      -0.0000000001     0.999999    0.00000272
  951      -16.3816673897      -0.0000000001     0.999999    0.00000271
  952      -16.3816673898      -0.0000000001     0.999999    0.00000270
  953      -16.3816673899      -0.0000000001     0.999999    0.00000269
  954      -16.3816673900      -0.0000000001     0.999999    0.00000268
  955      -16.3816673901      -0.0000000001     0.999999    0.00000267
  956      -16.3816673902      -0.0000000001     0.999999    0.00000266
  957      -16.3816673904      -0.0000000001     0.999999    0.00000265
  958      -16.3816673905      -0.0000000001     0.999999    0.00000264
  959      -16.3816673906      -0.0000000001     0.999999    0.00000263
  960      -16.3816673907      -0.0000000001     0.999999    0.00000261
  961      -16.3816673908      -0.0000000001     0.999999    0.00000260
  962      -16.3816673909      -0.0000000001     0.999999    0.00000259
  963      -16.3816673910      -0.0000000001     0.999999    0.00000258
  964      -16.3816673911      -0.0000000001     0.999999    0.00000257
  965      -16.3816673912      -0.0000000001     0.999999    0.00000256
  966      -16.3816673913      -0.0000000001     0.999999    0.00000255
  967      -16.3816673914      -0.0000000001     0.999999    0.00000254
  968      -16.3816673915      -0.0000000001     0.999999    0.00000253
  969      -16.3816673916      -0.0000000001     0.999999    0.00000253
  970      -16.3816673917      -0.0000000001     0.999999    0.00000252
  971      -16.3816673918      -0.0000000001     0.999999    0.00000251
  972      -16.3816673919      -0.0000000001     0.999999    0.00000250
  973      -16.3816673920      -0.0000000001     0.999999    0.00000249
  974      -16.3816673921      -0.0000000001     0.999999    0.00000248
  975      -16.3816673922      -0.0000000001     0.999999    0.00000247
  976      -16.3816673923      -0.0000000001     0.999999    0.00000246
  977      -16.3816673924      -0.0000000001     0.999999    0.00000245
  978      -16.3816673925      -0.0000000001     0.999999    0.00000244
  979      -16.3816673926      -0.0000000001     0.999999    0.00000243
  980      -16.3816673927      -0.0000000001     0.999999    0.00000242
  981      -16.3816673928      -0.0000000001     0.999999    0.00000241
  982      -16.3816673929      -0.0000000001     0.999999    0.00000240
  983      -16.3816673930      -0.0000000001     0.999999    0.00000239
  984      -16.3816673931      -0.0000000001     0.999999    0.00000238
  985      -16.3816673932      -0.0000000001     0.999999    0.00000237
  986      -16.3816673933      -0.0000000001     0.999999    0.00000236
  987      -16.3816673934      -0.0000000001     0.999999    0.00000235
  988      -16.3816673934      -0.0000000001     0.999999    0.00000235
  989      -16.3816673935      -0.0000000001     0.999999    0.00000234
  990      -16.3816673936      -0.0000000001     0.999999    0.00000233
  991      -16.3816673937      -0.0000000001     0.999999    0.00000232
  992      -16.3816673938      -0.0000000001     0.999999    0.00000231
  993      -16.3816673939      -0.0000000001     0.999999    0.00000230
  994      -16.3816673940      -0.0000000001     0.999999    0.00000229
  995      -16.3816673940      -0.0000000001     0.999999    0.00000228
  996      -16.3816673941      -0.0000000001     0.999999    0.00000227
  997      -16.3816673942      -0.0000000001     0.999999    0.00000227
  998      -16.3816673943      -0.0000000001     0.999999    0.00000226
  999      -16.3816673944      -0.0000000001     0.999999    0.00000225
 1000      -16.3816673944      -0.0000000001     0.999999    0.00000224

Total Energy:                      -16.3816673944 H         -445.7679 eV
Extrapolated to 0:                 -16.3463527668 H         -444.8069 eV

----------------------------------------------------------------------------------
 Solving CP-REKS equation for  1 state vector...
----------------------------------------------------------------------------------
  CG solver: Constructing Y initial guess
  CG solver: Iteration    1    eps =    0.038114264323
  CG solver: Iteration    2    eps =    0.046871684761
  CG solver: Iteration    3    eps =    0.042781543901
  CG solver: Iteration    4    eps =    0.133296002671
  CG solver: Iteration    5    eps =    0.263209628619
  CG solver: Iteration    6    eps =    0.094608048819
  CG solver: Iteration    7    eps =    0.108891109222
  CG solver: Iteration    8    eps =    0.030207827841
  CG solver: Iteration    9    eps =    0.003492838565
  CG solver: Iteration   10    eps =    0.000906164029
  CG solver: Iteration   11    eps =    0.000346994372
  CG solver: Iteration   12    eps =    0.000056304596
  CG solver: Iteration   13    eps =    0.000008885883
  CG solver: Iteration   14    eps =    0.000001493678
  CG solver: Iteration   15    eps =    0.000000263530
  CG solver: Iteration   16    eps =    0.000000018848
  CG solver: Iteration   17    eps =    0.000000000689
  Convergence reached in CG solver after   17 iterations
  CG solver: Calculating converged R, Z, Q2 matrix
----------------------------------------------------------------------------------

----------------------------------------------------------------------------------
 Solving CP-REKS equation for SI between  1 and  2 state vectors...
----------------------------------------------------------------------------------
  CG solver: Constructing Y initial guess
  CG solver: Iteration    1    eps =    0.046219808583
  CG solver: Iteration    2    eps =    0.002808392701
  CG solver: Iteration    3    eps =    0.001848589282
  CG solver: Iteration    4    eps =    0.005371057198
  CG solver: Iteration    5    eps =    0.002860583783
  CG solver: Iteration    6    eps =    0.013877054722
  CG solver: Iteration    7    eps =    0.023014241910
  CG solver: Iteration    8    eps =    0.003646968191
  CG solver: Iteration    9    eps =    0.001080430892
  CG solver: Iteration   10    eps =    0.000765816366
  CG solver: Iteration   11    eps =    0.000059979170
  CG solver: Iteration   12    eps =    0.000010509956
  CG solver: Iteration   13    eps =    0.000001351101
  CG solver: Iteration   14    eps =    0.000000076617
  CG solver: Iteration   15    eps =    0.000000004908
  Convergence reached in CG solver after   15 iterations
  CG solver: Calculating converged R, Z, Q2 matrix
----------------------------------------------------------------------------------

--------------------------------------------------
 Gradient Information
--------------------------------------------------
           1 st state (SSR)
     0.00000000     0.00000000     0.00000000
     0.00000000     0.00000000     0.00000000
     0.00000000     0.00000000     0.00000000
     0.00000000     0.00000000     0.00000000
     0.00000000     0.00000000     0.00000000
     0.00000000     0.00000000     0.00000000
     0.00000000     0.00000000     0.00000000
     0.00000000     0.00000000     0.00000000
     0.00000000     0.00000000     0.00000000
     0.00000000     0.00000000     0.00000000
     0.00000000     0.00000000     0.00000000
     0.00000000     0.00000000     0.00000000
     0.00000000     0.00000000     0.00000000
     0.00000000     0.00000000     0.00000000

           2 st state (SSR)
     0.00000000     0.00000000     0.00000000
     0.00000000     0.00000000     0.00000000
     0.00000000     0.00000000     0.00000000
     0.00000000     0.00000000     0.00000000
     0.00000000     0.00000000     0.00000000
     0.00000000     0.00000000     0.00000000
     0.00000000     0.00000000     0.00000000
     0.00000000     0.00000000     0.00000000
     0.00000000     0.00000000     0.00000000
     0.00000000     0.00000000     0.00000000
     0.00000000     0.00000000     0.00000000
     0.00000000     0.00000000     0.00000000
     0.00000000     0.00000000     0.00000000
     0.00000000     0.00000000     0.00000000
--------------------------------------------------
 Coupling Information
--------------------------------------------------
 between  1 and  2 states
--------------------------------------------------
 g vector - difference gradient
     1.09038699     0.64631076    -0.08056746
    -1.27795652    -0.50563699    -0.62923060
    -0.51078542    -0.01777921     0.37976119
     0.37302122    -0.24961784    -0.27525494
    -0.60574083     0.34254168     0.86400692
     1.88959047    -0.85010829    -0.37558373
    -0.58536500     0.95379509    -0.14124012
    -0.13408501     0.05007770    -0.17287274
    -0.10824617    -0.09273474     0.42684321
    -0.05935792    -0.28162895     0.01131145
     0.06342100    -0.00671849     0.15700231
    -0.15012990     0.02496406    -0.17671882
     0.01298268     0.04123801     0.18313957
     0.00226441    -0.05470279    -0.17059624

 h vector - derivative coupling
    -0.23275889    -0.14980754    -0.00996356
     0.30447207     0.06487843     0.20060653
     0.15741607    -0.01026758    -0.11970852
    -0.13955875     0.08107317     0.11025662
     0.12173564    -0.05871131    -0.17923641
    -0.42527083     0.23633633     0.00665845
     0.15641299    -0.18411777     0.01010490
     0.01466341    -0.02680347    -0.03041907
    -0.00220682    -0.00501725    -0.03330328
    -0.01461782     0.02878712     0.07030525
     0.00049155     0.00351111     0.00079510
     0.05588818     0.01526211    -0.02732763
    -0.00239389     0.00584196    -0.01802747
     0.00572710    -0.00096532     0.01925910

 G vector - GDV
     0.00000000     0.00000000     0.00000000
     0.00000000     0.00000000     0.00000000
     0.00000000     0.00000000     0.00000000
     0.00000000     0.00000000     0.00000000
     0.00000000     0.00000000     0.00000000
     0.00000000     0.00000000     0.00000000
     0.00000000     0.00000000     0.00000000
     0.00000000     0.00000000     0.00000000
     0.00000000     0.00000000     0.00000000
     0.00000000     0.00000000     0.00000000
     0.00000000     0.00000000     0.00000000
     0.00000000     0.00000000     0.00000000
     0.00000000     0.00000000     0.00000000
     0.00000000     0.00000000     0.00000000

 H vector - DCV - non-adiabatic coupling
     0.00000000     0.00000000     0.00000000
     0.00000000     0.00000000     0.00000000
     0.00000000     0.00000000     0.00000000
     0.00000000     0.00000000     0.00000000
     0.00000000     0.00000000     0.00000000
     0.00000000     0.00000000     0.00000000
     0.00000000     0.00000000     0.00000000
     0.00000000     0.00000000     0.00000000
     0.00000000     0.00000000     0.00000000
     0.00000000     0.00000000     0.00000000
     0.00000000     0.00000000     0.00000000
     0.00000000     0.00000000     0.00000000
     0.00000000     0.00000000     0.00000000
     0.00000000     0.00000000     0.00000000
--------------------------------------------------

WARNING!
-> SCC is NOT converged, maximal SCC iterations exceeded

--------------------------------------------------------------------------------
DFTB+ running times                          cpu [s]             wall clock [s]
--------------------------------------------------------------------------------
SCC                                    +     1.51  ( 79.1%)      1.51  ( 79.0%)
      Sparse to dense                        0.07  (  3.6%)      0.08  (  4.0%)
      Dense to sparse                        0.24  ( 12.7%)      0.23  ( 11.9%)
      Range separated Hamiltonian            0.12  (  6.5%)      0.13  (  6.6%)
  Density matrix creation                    0.15  (  7.9%)      0.16  (  8.2%)
  Force calculation                          0.40  ( 20.7%)      0.40  ( 20.7%)
--------------------------------------------------------------------------------
Missing                                +     0.40  ( 20.9%)      0.40  ( 21.0%)
Total                                  =     1.91  (100.0%)      1.92  (100.0%)
--------------------------------------------------------------------------------
