     6
  Step:     0            Position(A)                                  Velocity(au)
C        -0.04454144     0.01935510     0.02687334    -0.00003452    -0.00008939     0.00034330
N        -0.03639339    -0.06744239     1.29471253    -0.00016965    -0.00006482    -0.00032637
H         0.95465725     0.02421592    -0.52306567     0.00037320     0.00045195    -0.00016685
H         0.82000559    -0.08312647     1.81588465     0.00147491     0.00057885     0.00077082
H        -0.97651583     0.03309449     1.83710214     0.00071106     0.00050103     0.00016905
H        -0.97459112     0.06260533    -0.54988499     0.00020973     0.00043405    -0.00032845
     6
  Step:     1            Position(A)                                  Velocity(au)
C        -0.04468448     0.01886968     0.02836675    -0.00001757    -0.00008798     0.00020173
N        -0.03739559    -0.06783579     1.29324276    -0.00019462    -0.00007909    -0.00020935
H         0.95652825     0.02680469    -0.52379928     0.00031007     0.00049406    -0.00009921
H         0.82852348    -0.07980448     1.82034290     0.00161506     0.00063584     0.00084316
H        -0.97214053     0.03591575     1.83779360     0.00088260     0.00053072     0.00008493
H        -0.97372375     0.06512414    -0.55167220     0.00010613     0.00048672    -0.00032358
     6
  Step:     2            Position(A)                                  Velocity(au)
C        -0.04473363     0.01839270     0.02908015    -0.00000039    -0.00008635     0.00005837
N        -0.03852236    -0.06830758     1.29242242    -0.00021500    -0.00009346    -0.00008926
H         0.95804920     0.02962056    -0.52415091     0.00024498     0.00053512    -0.00002817
H         0.83767325    -0.07617080     1.82510821     0.00170539     0.00069261     0.00088372
H        -0.96686083     0.03890015     1.83803124     0.00103977     0.00056092     0.00000481
H        -0.97343011     0.06792974    -0.55342473     0.00000226     0.00053901    -0.00031555
     6
  Step:     3            Position(A)                                  Velocity(au)
C        -0.04468873     0.01792494     0.02900536     0.00001664    -0.00008465    -0.00008593
N        -0.03974790    -0.06885836     1.29226621    -0.00023055    -0.00010793     0.00003290
H         0.95920852     0.03265940    -0.52410748     0.00017785     0.00057563     0.00004434
H         0.84718212    -0.07222664     1.83001165     0.00174644     0.00074905     0.00089451
H        -0.96076444     0.04205281     1.83784618     0.00117894     0.00059246    -0.00006796
H        -0.97369906     0.07102149    -0.55512468    -0.00009774     0.00059136    -0.00030415
     6
  Step:     4            Position(A)                                  Velocity(au)
C        -0.04455150     0.01746632     0.02813978     0.00003319    -0.00008302    -0.00022995
N        -0.04104531    -0.06948868     1.29278247    -0.00024106    -0.00012244     0.00015578
H         0.95999543     0.03591980    -0.52366565     0.00010898     0.00061585     0.00011658
H         0.85678503    -0.06797373     1.83489710     0.00173993     0.00080479     0.00087796
H        -0.95395941     0.04538362     1.83728756     0.00129599     0.00062604    -0.00013004
H        -0.97449965     0.07440119    -0.55675313    -0.00019056     0.00064396    -0.00028920
     6
  Step:     5            Position(A)                                  Velocity(au)
C        -0.04432536     0.01701611     0.02648801     0.00004895    -0.00008153    -0.00037211
N        -0.04238683    -0.07019872     1.29397161    -0.00024634    -0.00013686     0.00027772
H         0.96040150     0.03940126    -0.52283120     0.00003894     0.00065566     0.00018684
H         0.86622963    -0.06341640     1.83962300     0.00168832     0.00085899     0.00083679
H        -0.94657687     0.04890621     1.83642256     0.00138636     0.00066208    -0.00017813
H        -0.97578515     0.07807110    -0.55829067    -0.00027355     0.00069654    -0.00027069
     6
  Step:     6            Position(A)                                  Velocity(au)
C        -0.04401534     0.01657324     0.02406356     0.00006359    -0.00008021    -0.00051046
N        -0.04374380    -0.07098786     1.29582469    -0.00024624    -0.00015099     0.00039673
H         0.96042204     0.04310209    -0.52161897    -0.00003132     0.00069455     0.00025334
H         0.87527926    -0.05856414     1.84406351     0.00159479     0.00091037     0.00077399
H        -0.93877297     0.05263621     1.83533626     0.00144528     0.00070069    -0.00020903
H        -0.97749617     0.08203127    -0.55971833    -0.00034459     0.00074834    -0.00024878
     6
  Step:     7            Position(A)                                  Velocity(au)
C        -0.04362807     0.01613661     0.02089083     0.00007682    -0.00007903    -0.00064261
N        -0.04508689    -0.07185434     1.29832177    -0.00024066    -0.00016455     0.00051050
H         0.96005806     0.04701708    -0.52005332    -0.00010046     0.00073158     0.00031423
H         0.88371660    -0.05343416     1.84810983     0.00146324     0.00095719     0.00069281
H        -0.93072936     0.05658928     1.83413049     0.00146818     0.00074155    -0.00021994
H        -0.97956358     0.08627670    -0.56101853    -0.00040211     0.00079808    -0.00022383
     6
  Step:     8            Position(A)                                  Velocity(au)
C        -0.04317175     0.01570538     0.01700722     0.00008833    -0.00007794    -0.00076585
N        -0.04638639    -0.07279476     1.30143038    -0.00022957    -0.00017719     0.00061648
H         0.95931891     0.05113540    -0.51816856    -0.00016657     0.00076551     0.00036757
H         0.89134670    -0.04805353     1.85167100     0.00129820     0.00099745     0.00059661
H        -0.92265132     0.06077890     1.83292118     0.00145120     0.00078398    -0.00020872
H        -0.98191161     0.09079480    -0.56217610    -0.00044515     0.00084412    -0.00019636
     6
  Step:     9            Position(A)                                  Velocity(au)
C        -0.04265622     0.01527910     0.01246501     0.00009782    -0.00007685    -0.00087720
N        -0.04761264    -0.07380381     1.30510421    -0.00021311    -0.00018854     0.00071196
H         0.95822544     0.05543916    -0.51600939    -0.00022723     0.00079494     0.00041143
H         0.89799927    -0.04246025     1.85467374     0.00110485     0.00102912     0.00048889
H        -0.91476338     0.06521452     1.83183418     0.00139170     0.00082702    -0.00017422
H        -0.98446114     0.09556360    -0.56317886    -0.00047341     0.00088459    -0.00016699
     6
  Step:    10            Position(A)                                  Velocity(au)
C        -0.04209290     0.01485778     0.00733250     0.00010500    -0.00007569    -0.00097372
N        -0.04873683    -0.07487415     1.30928264    -0.00019161    -0.00019821     0.00079435
H         0.95681280     0.05990293    -0.51363088    -0.00027963     0.00081858     0.00044403
H         0.90353223    -0.03670320     1.85706302     0.00088934     0.00105042     0.00037334
H        -0.90730214     0.06990023     1.83099966     0.00128899     0.00086957    -0.00011662
H        -0.98713288     0.10055107    -0.56401788    -0.00048721     0.00091775    -0.00013646
     6
  Step:    11            Position(A)                                  Velocity(au)
C        -0.04149466     0.01444182     0.00169355     0.00010967    -0.00007441    -0.00105288
N        -0.04973226    -0.07599649     1.31389148    -0.00016568    -0.00020592     0.00086150
H         0.95513214     0.06449437    -0.51109750    -0.00032094     0.00083540     0.00046392
H         0.90783727    -0.03084040     1.85880365     0.00065883     0.00106010     0.00025395
H        -0.90050432     0.07483382     1.83054415     0.00114509     0.00091046    -0.00003766
H        -0.98985073     0.10571593    -0.56468844    -0.00048755     0.00094221    -0.00010567
     6
  Step:    12            Position(A)                                  Velocity(au)
C        -0.04087549     0.01403186    -0.00435476     0.00011172    -0.00007300    -0.00111298
N        -0.05057586    -0.07715995     1.31884547    -0.00013622    -0.00021148     0.00091201
H         0.95325026     0.06917608    -0.50848120    -0.00034869     0.00084497     0.00047026
H         0.91084539    -0.02493582     1.85988188     0.00042129     0.00105781     0.00013488
H        -0.89459140     0.08000653     1.83058160     0.00096506     0.00094867     0.00005923
H        -0.99254477     0.11100980    -0.56519081    -0.00047598     0.00095721    -0.00007557
     6
  Step:    13            Position(A)                                  Velocity(au)
C        -0.04024994     0.01362852    -0.01070675     0.00011117    -0.00007151    -0.00115359
N        -0.05124990    -0.07835274     1.32405259    -0.00010441    -0.00021489     0.00094564
H         0.95124716     0.07390859    -0.50585814    -0.00036117     0.00084757     0.00046293
H         0.91253112    -0.01905477     1.86030640     0.00018497     0.00104426     0.00002020
H        -0.88975211     0.08540338     1.83120411     0.00075704     0.00098348     0.00016924
H        -0.99515391     0.11638071    -0.56553044    -0.00045458     0.00096291    -0.00004712
     6
  Step:    14            Position(A)                                  Velocity(au)
C        -0.03963232     0.01323221    -0.01725518     0.00010822    -0.00007003    -0.00117589
N        -0.05174345    -0.07956303     1.32942043    -0.00007160    -0.00021635     0.00096357
H         0.94921132     0.07865430    -0.50330430    -0.00035773     0.00084433     0.00044274
H         0.91291391    -0.01325805     1.86010781    -0.00004240     0.00102132    -0.00008648
H        -0.88612557     0.09100461     1.83247421     0.00053141     0.00101470     0.00028670
H        -0.99762823     0.12177786    -0.56571778    -0.00042577     0.00096048    -0.00002113
     6
  Step:    15            Position(A)                                  Velocity(au)
C        -0.03903575     0.01284282    -0.02390014     0.00010322    -0.00006870    -0.00118264
N        -0.05205327    -0.08078013     1.33486378    -0.00003914    -0.00021627     0.00096830
H         0.94723340     0.08338197    -0.50089058    -0.00033885     0.00083718     0.00041126
H         0.91205534    -0.00759563     1.85933611    -0.00025449     0.00099189    -0.00018241
H        -0.88378968     0.09678830     1.83442085     0.00029941     0.00104279     0.00040596
H        -0.99993097     0.12715720    -0.56576753    -0.00039218     0.00095205     0.00000181
     6
  Step:    16            Position(A)                                  Velocity(au)
C        -0.03847129     0.01245952    -0.03055751     0.00009663    -0.00006767    -0.00117768
N        -0.05218367    -0.08199562     1.34031182    -0.00000819    -0.00021521     0.00096322
H         0.94539997     0.08807085    -0.49867848    -0.00030581     0.00082847     0.00037047
H         0.91005144    -0.00210127     1.85805605    -0.00044691     0.00095944    -0.00026590
H        -0.88275779     0.10273384     1.83704038     0.00007147     0.00106869     0.00052216
H        -1.00203944     0.13248651    -0.56569747    -0.00035634     0.00094038     0.00002136
     6
  Step:    17            Position(A)                                  Velocity(au)
C        -0.03794746     0.01208064    -0.03716437     0.00014251    -0.00010760    -0.00186816
N        -0.05214549    -0.08320405     1.34571251     0.00003264    -0.00034271     0.00152633
H         0.94378904     0.09271305    -0.49671803    -0.00041743     0.00131576     0.00051687
H         0.90702181     0.00321049     1.85634130    -0.00098980     0.00148695    -0.00053910
H        -0.88298473     0.10882499     1.84030192    -0.00023082     0.00175344     0.00101281
H        -1.00394438     0.13774870    -0.56552700    -0.00051368     0.00148843     0.00006004
     6
  Step:    18            Position(A)                                  Velocity(au)
C        -0.03718039     0.01147739    -0.04727271     0.00012711    -0.00010547    -0.00169222
N        -0.05188853    -0.08508291     1.35399952     0.00005551    -0.00031936     0.00139223
H         0.94184971     0.09999790    -0.49432046    -0.00025930     0.00125393     0.00032818
H         0.90110835     0.01128203     1.85320883    -0.00107489     0.00135948    -0.00055412
H        -0.88487002     0.11858439     1.84631045    -0.00041838     0.00168483     0.00109409
H        -1.00691736     0.14593030    -0.56550855    -0.00053351     0.00139638    -0.00005048
     6
  Step:    19            Position(A)                                  Velocity(au)
C        -0.03650322     0.01088234    -0.05639103     0.00011096    -0.00010453    -0.00152006
N        -0.05151478    -0.08683251     1.36153072     0.00007358    -0.00029707     0.00126061
H         0.94084290     0.10695989    -0.49298926    -0.00009213     0.00120121     0.00014301
H         0.89480912     0.01865656     1.85004555    -0.00112530     0.00124124    -0.00055019
H        -0.88773828     0.12796761     1.85273270    -0.00057435     0.00161918     0.00115663
H        -1.01000601     0.15361413    -0.56610056    -0.00055286     0.00131215    -0.00015423
     6
  Step:    20            Position(A)                                  Velocity(au)
C        -0.03591945     0.01028950    -0.06454642     0.00009486    -0.00010508    -0.00136074
N        -0.05105243    -0.08845878     1.36832488     0.00008706    -0.00027728     0.00113901
H         0.94080274     0.11364826    -0.49269536     0.00007823     0.00116283    -0.00003560
H         0.88832066     0.02538726     1.84695656    -0.00114752     0.00113856    -0.00053112
H        -0.89139678     0.13698450     1.85945424    -0.00069872     0.00156260     0.00120463
H        -1.01319994     0.16084135    -0.56726115    -0.00057225     0.00124127    -0.00025143
     6
  Step:    21            Position(A)                                  Velocity(au)
C        -0.03542800     0.00969134    -0.07181438     0.00007906    -0.00010698    -0.00121523
N        -0.05052793    -0.08997538     1.37444091     0.00009614    -0.00026001     0.00102830
H         0.94172965     0.12014008    -0.49339276     0.00024769     0.00113857    -0.00020675
H         0.88180253     0.03156166     1.84402556    -0.00114371     0.00105171    -0.00049825
H        -0.89565791     0.14567895     1.86638669    -0.00079161     0.00151432     0.00123872
H        -1.01649223     0.16768337    -0.56895039    -0.00059039     0.00118331    -0.00034265
     6
  Step:    22            Position(A)                                  Velocity(au)
C        -0.03502632     0.00908096    -0.07827482     0.00006359    -0.00010990    -0.00108118
N        -0.04996636    -0.09139610     1.37994157     0.00010083    -0.00024466     0.00092651
H         0.94360090     0.12651067    -0.49503097     0.00041200     0.00112552    -0.00036946
H         0.87540017     0.03726840     1.84132788    -0.00111355     0.00097835    -0.00045172
H        -0.90033964     0.15409182     1.87344810    -0.00085252     0.00147045     0.00125730
H        -1.01986953     0.17420923    -0.57113211    -0.00060489     0.00113515    -0.00042789
     6
  Step:    23            Position(A)                                  Velocity(au)
C        -0.03471165     0.00845328    -0.08399395     0.00004852    -0.00011347    -0.00095608
N        -0.04939202    -0.09273151     1.38487815     0.00010121    -0.00023061     0.00083148
H         0.94637087     0.13281913    -0.49755471     0.00056644     0.00112032    -0.00052209
H         0.86925822     0.04258293     1.83893692    -0.00105662     0.00091599    -0.00039172
H        -0.90526158     0.16224369     1.88055032    -0.00088111     0.00142695     0.00125857
H        -1.02330633     0.18047091    -0.57377066    -0.00061330     0.00109344    -0.00050666
     6
  Step:    24            Position(A)                                  Velocity(au)
C        -0.03448086     0.00780523    -0.08902355     0.00003398    -0.00011737    -0.00083827
N        -0.04882848    -0.09398869     1.38928952     0.00009745    -0.00021739     0.00074173
H         0.94996908     0.13910596    -0.50090062     0.00070630     0.00112017    -0.00066275
H         0.86352111     0.04756650     1.83692398    -0.00097360     0.00086273    -0.00031903
H        -0.91024560     0.17013435     1.88759767    -0.00087808     0.00138099     0.00124168
H        -1.02676461     0.18650225    -0.57682825    -0.00061369     0.00105563    -0.00057836
     6
  Step:    25            Position(A)                                  Velocity(au)
C        -0.03433014     0.00713546    -0.09340583     0.00002015    -0.00012135    -0.00072690
N        -0.04829788    -0.09517231     1.39320607     0.00008989    -0.00020475     0.00065645
H         0.95430106     0.14539609    -0.50499594     0.00082755     0.00112292    -0.00078974
H         0.85832687     0.05226944     1.83535499    -0.00086671     0.00081724    -0.00023512
H        -0.91512045     0.17774909     1.89449162    -0.00084530     0.00133104     0.00120694
H        -1.03019672     0.19232322    -0.58026430    -0.00060478     0.00102002    -0.00064254
     6
  Step:    26            Position(A)                                  Velocity(au)
C        -0.03425480     0.00644396    -0.09717787     0.00000721    -0.00012522    -0.00062160
N        -0.04782012    -0.09628556     1.39665351     0.00007902    -0.00019254     0.00057528
H         0.95925248     0.15170279    -0.50975984     0.00092715     0.00112705    -0.00090184
H         0.85379845     0.05673424     1.83428639    -0.00073954     0.00077853    -0.00014211
H        -0.91972806     0.18506588     1.90113696    -0.00078566     0.00127661     0.00115560
H        -1.03354903     0.19794475    -0.58403624    -0.00058593     0.00098560    -0.00069903
     6
  Step:    27            Position(A)                                  Velocity(au)
C        -0.03424927     0.00573163    -0.10037429    -0.00000469    -0.00012888    -0.00052218
N        -0.04741206    -0.09733084     1.39965534     0.00006542    -0.00018070     0.00049808
H         0.96469493     0.15803103    -0.51510612     0.00100316     0.00113146    -0.00099843
H         0.85003618     0.06099722     1.83376187    -0.00059674     0.00074570    -0.00004251
H        -0.92392812     0.19206065     1.90744655    -0.00070268     0.00121784     0.00108954
H        -1.03676536     0.20337243    -0.58810083    -0.00055701     0.00095181    -0.00074786
     6
  Step:    28            Position(A)                                  Velocity(au)
C        -0.03430731     0.00500000    -0.10302843    -0.00001544    -0.00013223    -0.00042850
N        -0.04708711    -0.09831020     1.40223412     0.00004976    -0.00016920     0.00042478
H         0.97049202     0.16437990    -0.52094644     0.00105473     0.00113535    -0.00107943
H         0.84711249     0.06508922     1.83381012    -0.00044362     0.00071785     0.00006088
H        -0.92760104     0.19871081     1.91334435    -0.00060023     0.00115528     0.00101096
H        -1.03978981     0.20860899    -0.59241538    -0.00051827     0.00091836    -0.00078926
     6
  Step:    29            Position(A)                                  Velocity(au)
C        -0.03442220     0.00425096    -0.10517257    -0.00002499    -0.00013523    -0.00034039
N        -0.04685491    -0.09922545     1.40441194     0.00003269    -0.00015799     0.00035532
H         0.97650547     0.17074438    -0.52719326     0.00108193     0.00113812    -0.00114520
H         0.84506868     0.06903549     1.83444363    -0.00028584     0.00069397     0.00016515
H        -0.93064938     0.20499717     1.91876699    -0.00048226     0.00108964     0.00092217
H        -1.04256883     0.21365596    -0.59693881    -0.00047028     0.00088514    -0.00082360
     6
  Step:    30            Position(A)                                  Velocity(au)
C        -0.03458701     0.00348662    -0.10683772    -0.00003332    -0.00013786    -0.00025759
N        -0.04672127    -0.10007822     1.40621041     0.00001489    -0.00014705     0.00028959
H         0.98259976     0.17711649    -0.53376218     0.00108553     0.00113933    -0.00119642
H         0.84391373     0.07285534     1.83565833    -0.00012908     0.00067298     0.00026740
H        -0.93299796     0.21090487     1.92366423    -0.00035261     0.00102172     0.00082545
H        -1.04505263     0.21851446    -0.60163216    -0.00041375     0.00085213    -0.00085127
     6
  Step:    31            Position(A)                                  Velocity(au)
C        -0.03479481     0.00270918    -0.10805327    -0.00004043    -0.00014011    -0.00017977
N        -0.04668837    -0.10086995     1.40765056    -0.00000302    -0.00013633     0.00022747
H         0.98864551     0.18348608    -0.54057341     0.00106682     0.00113863    -0.00123398
H         0.84362507     0.07656177     1.83743409     0.00002122     0.00065374     0.00036485
H        -0.93459276     0.21642357     1.92799841    -0.00021487     0.00095227     0.00072292
H        -1.04719596     0.22318573    -0.60645899    -0.00034948     0.00081934    -0.00087270
     6
  Step:    32            Position(A)                                  Velocity(au)
C        -0.03503883     0.00192085    -0.10884680    -0.00004637    -0.00014196    -0.00010661
N        -0.04675498    -0.10160181     1.40875261    -0.00002047    -0.00012579     0.00016882
H         0.99452222     0.18984146    -0.54755274     0.00102744     0.00113574    -0.00125884
H         0.84415085     0.08016131     1.83973578     0.00016014     0.00063507     0.00045496
H        -0.93539923     0.22154717     1.93174342    -0.00007232     0.00088200     0.00061652
H        -1.04895835     0.22767115    -0.61138521    -0.00027833     0.00078677    -0.00088827
     6
  Step:    33            Position(A)                                  Velocity(au)
C        -0.03531263     0.00112379    -0.10924383    -0.00005119    -0.00014343    -0.00003773
N        -0.04691692    -0.10227472     1.40953589    -0.00003695    -0.00011537     0.00011345
H         1.00011975     0.19616982    -0.55463197     0.00096928     0.00113047    -0.00127205
H         0.84541345     0.08365410     1.84251499     0.00028342     0.00061585     0.00053550
H        -0.93540043     0.22627357     1.93488356     0.00007204     0.00081156     0.00050797
H        -1.05030428     0.23197229    -0.61637902    -0.00020115     0.00075445    -0.00089834
     6
  Step:    34            Position(A)                                  Velocity(au)
C        -0.03561017     0.00032013    -0.10926787    -0.00005498    -0.00014453     0.00002720
N        -0.04716740    -0.10288932     1.41001869    -0.00005206    -0.00010503     0.00006118
H         1.00533942     0.20245762    -0.56174888     0.00089431     0.00112269    -0.00127457
H         0.84731387     0.08703425     1.84571199     0.00038765     0.00059505     0.00060461
H        -0.93459523     0.23060425     1.93741237     0.00021550     0.00074158     0.00039885
H        -1.05120321     0.23609084    -0.62141072    -0.00011884     0.00072235    -0.00090324
     6
  Step:    35            Position(A)                                  Velocity(au)
C        -0.03592582    -0.00048810    -0.10894048    -0.00005780    -0.00014526     0.00008850
N        -0.04749752    -0.10344604     1.41021823    -0.00006543    -0.00009473     0.00001184
H         1.01009370     0.20869081    -0.56884681     0.00080447     0.00111229    -0.00126731
H         0.84973673     0.09029052     1.84925807     0.00047028     0.00057178     0.00066088
H        -0.93299700     0.23454417     1.93933184     0.00035553     0.00067268     0.00029064
H        -1.05162961     0.24002847    -0.62645255    -0.00003227     0.00069048    -0.00090328
     6
  Step:    36            Position(A)                                  Velocity(au)
C        -0.03625438    -0.00129890    -0.10828148    -0.00005972    -0.00014563     0.00014644
N        -0.04789669    -0.10394512     1.41015064    -0.00007680    -0.00008445    -0.00003476
H         1.01430592     0.21485504    -0.57587412     0.00070169     0.00109923    -0.00125112
H         0.85255551     0.09340721     1.85307801     0.00052971     0.00054532     0.00070328
H        -0.93063256     0.23810177     1.94065175     0.00048975     0.00060547     0.00018469
H        -1.05156284     0.24378682    -0.63147848     0.00005768     0.00065881    -0.00089873
     6
  Step:    37            Position(A)                                  Velocity(au)
C        -0.03659106    -0.00211039    -0.10730920    -0.00006081    -0.00014566     0.00020125
N        -0.04835303    -0.10438674     1.40983097    -0.00008596    -0.00007419    -0.00007880
H         1.01791026     0.22093594    -0.58278387     0.00058786     0.00108351    -0.00122677
H         0.85563749     0.09636517     1.85709244     0.00056520     0.00051513     0.00073127
H        -0.92754131     0.24128895     1.94138922     0.00061594     0.00054061     0.00008232
H        -1.05098707     0.24736743    -0.63646409     0.00015013     0.00062733    -0.00088985
     6
  Step:    38            Position(A)                                  Velocity(au)
C        -0.03693149    -0.00292073    -0.10604068    -0.00006116    -0.00014536     0.00025313
N        -0.04885375    -0.10477113     1.40927321    -0.00009277    -0.00006396    -0.00012045
H         1.02085140     0.22691929    -0.58953345     0.00046488     0.00106518    -0.00119501
H         0.85884861     0.09914286     1.86122020     0.00057685     0.00048089     0.00074467
H        -0.92377442     0.24412114     1.94156831     0.00073201     0.00047875    -0.00001523
H        -1.04989123     0.25077172    -0.64138642     0.00024421     0.00059602    -0.00087690
     6
  Step:    39            Position(A)                                  Velocity(au)
C        -0.03727176    -0.00372819    -0.10449193    -0.00006083    -0.00014474     0.00030221
N        -0.04938553    -0.10509859     1.40849039    -0.00009717    -0.00005379    -0.00015986
H         1.02308428     0.23279128    -0.59608427     0.00033453     0.00104431    -0.00115653
H         0.86205782     0.10171748     1.86538051     0.00056553     0.00044248     0.00074371
H        -0.91939414     0.24661735     1.94121973     0.00083599     0.00042054    -0.00010676
H        -1.04826899     0.25400104    -0.64622396     0.00033906     0.00056487    -0.00086013
     6
  Step:    40            Position(A)                                  Velocity(au)
C        -0.03760832    -0.00453111    -0.10267817    -0.00005989    -0.00014381     0.00034861
N        -0.04993485    -0.10536965     1.40749458    -0.00009913    -0.00004374    -0.00019718
H         1.02457356     0.23853864    -0.60240148     0.00019857     0.00102101    -0.00111197
H         0.86514094     0.10406602     1.86949501     0.00053270     0.00039992     0.00072895
H        -0.91447291     0.24880018     1.94038044     0.00092607     0.00036664    -0.00019115
H        -1.04611867     0.25705669    -0.65095660     0.00043382     0.00053390    -0.00083979
     6
  Step:    41            Position(A)                                  Velocity(au)
C        -0.03793797    -0.00532794    -0.10061411    -0.00005840    -0.00014260     0.00039238
N        -0.05048819    -0.10558512     1.40629703    -0.00009868    -0.00003385    -0.00023254
H         1.02529312     0.24414873    -0.60845362     0.00005864     0.00099541    -0.00106194
H         0.86798346     0.10616614     1.87348923     0.00048031     0.00035343     0.00070122
H        -0.90909269     0.25069579     1.93909345     0.00100060     0.00031771    -0.00026731
H        -1.04344330     0.25994002    -0.65556563     0.00052761     0.00050312    -0.00081614
     6
  Step:    42            Position(A)                                  Velocity(au)
C        -0.03825786    -0.00611718    -0.09831408    -0.00005642    -0.00014113     0.00043357
N        -0.05103233    -0.10574614     1.40490824    -0.00009588    -0.00002420    -0.00026606
H         1.02522573     0.24960970    -0.61421253    -0.00008366     0.00096767    -0.00100703
H         0.87048297     0.10799693     1.87729402     0.00041071     0.00030334     0.00066157
H        -0.90334407     0.25233382     1.93740744     0.00105811     0.00027437    -0.00033424
H        -1.04025051     0.26265247    -0.66003380     0.00061959     0.00047257    -0.00078944
     6
  Step:    43            Position(A)                                  Velocity(au)
C        -0.03856546    -0.00689748    -0.09579225    -0.00005401    -0.00013940     0.00047217
N        -0.05155453    -0.10585425     1.40333808    -0.00009085    -0.00001486    -0.00029783
H         1.02436273     0.25491061    -0.61965323    -0.00022680     0.00093797    -0.00094781
H         0.87255114     0.10953970     1.88084680     0.00032658     0.00025010     0.00061128
H        -0.89732502     0.25374714     1.93537618     0.00109739     0.00023716    -0.00039110
H        -1.03655256     0.26519567    -0.66434532     0.00070892     0.00044230    -0.00075997
     6
  Step:    44            Position(A)                                  Velocity(au)
C        -0.03885849    -0.00766755    -0.09306282    -0.00005120    -0.00013744     0.00050816
N        -0.05204277    -0.10591136     1.40159588    -0.00008374    -0.00000589    -0.00032792
H         1.02270340     0.26004148    -0.62475373    -0.00036932     0.00090650    -0.00088483
H         0.87411509     0.11077846     1.88409241     0.00023081     0.00019426     0.00055176
H        -0.89113931     0.25497141     1.93305779     0.00111756     0.00020654    -0.00043717
H        -1.03236622     0.26757151    -0.66848595     0.00079475     0.00041236    -0.00072803
     6