    14
  Step:     0            Position(A)                                  Velocity(au)
C        -5.98395202    -0.71866565    -0.24145708    -0.00003476    -0.00008836     0.00001757
C        -4.76234217    -0.75937371     0.21834131    -0.00010886    -0.00017746    -0.00000438
H        -6.44816796     0.14554176    -0.71688044    -0.00002325     0.00128120    -0.00058055
H        -6.62633791    -1.54003796    -0.01330427    -0.00043467     0.00062994     0.00052603
H        -4.35493859    -1.65861888     0.69367508    -0.00013433    -0.00008923    -0.00003079
C        -3.87277468     0.36448174    -0.01778591     0.00021397    -0.00009866     0.00003624
C        -2.51743384     0.53602091     0.33169236    -0.00002586     0.00014802     0.00014686
H        -4.42779189     1.18480244    -0.56094591     0.00038544     0.00050610    -0.00101455
H        -1.96490523    -0.34493338     0.84716388     0.00030796    -0.00068010    -0.00004625
C        -1.85059311     1.68147728    -0.06394796     0.00018882     0.00024840    -0.00017085
H        -2.37597471     2.57915437    -0.49306103    -0.00071038    -0.00149525     0.00046314
N        -0.54050483     1.82259215     0.14956223    -0.00011209     0.00008705     0.00011299
H        -0.05163386     2.68171368    -0.22126861    -0.00045268    -0.00133331     0.00065106
H         0.03874532     1.11125900     0.69695622    -0.00016050    -0.00040970    -0.00184153
    14
  Step:     1            Position(A)                                  Velocity(au)
C        -5.98489332    -0.71962100    -0.24139491    -0.00013812    -0.00008215    -0.00000789
C        -4.76280986    -0.76121745     0.21843618     0.00002305    -0.00015896     0.00002119
H        -6.44811984     0.15957720    -0.72336827     0.00005079     0.00124312    -0.00058424
H        -6.63200145    -1.53389245    -0.00779324    -0.00060447     0.00048942     0.00048221
H        -4.35657496    -1.65943504     0.69346980    -0.00016291    -0.00006379    -0.00000368
C        -3.87098650     0.36333349    -0.01749443     0.00011246    -0.00011009     0.00001604
C        -2.51741703     0.53748873     0.33342037     0.00002978     0.00011966     0.00016915
H        -4.42239394     1.18981023    -0.57145195     0.00060633     0.00039091    -0.00089396
H        -1.96242614    -0.35048396     0.84563897     0.00014061    -0.00032433    -0.00023492
C        -1.84865605     1.68427912    -0.06582143     0.00016440     0.00025918    -0.00016989
H        -2.38323114     2.56147548    -0.48777132    -0.00062577    -0.00169446     0.00048654
N        -0.54139154     1.82361126     0.15084686    -0.00005300     0.00009685     0.00012218
H        -0.05729669     2.66538945    -0.21323188    -0.00054693    -0.00158572     0.00078965
H         0.03556136     1.10843662     0.67537810    -0.00040382    -0.00013048    -0.00208042
    14
  Step:     2            Position(A)                                  Velocity(au)
C        -5.98697367    -0.72046284    -0.24162960    -0.00024110    -0.00006877    -0.00003561
C        -4.76183796    -0.76285126     0.21880481     0.00015202    -0.00013908     0.00004493
H        -6.44705676     0.17273748    -0.72966175     0.00015687     0.00112864    -0.00054915
H        -6.63956195    -1.52933101    -0.00275499    -0.00077636     0.00034649     0.00043837
H        -4.35850265    -1.66001436     0.69359466    -0.00018587    -0.00004716     0.00003035
C        -3.87031431     0.36207331    -0.01743494     0.00001112    -0.00011946    -0.00000568
C        -2.51678240     0.53863869     0.33539273     0.00008636     0.00009079     0.00019095
H        -4.41452722     1.19335434    -0.58050299     0.00083076     0.00024477    -0.00075308
H        -1.96182919    -0.35202872     0.84202447    -0.00003035     0.00004283    -0.00042294
C        -1.84699660     1.68714733    -0.06766459     0.00013906     0.00025978    -0.00016485
H        -2.38966458     2.54208484    -0.48241703    -0.00056597    -0.00180019     0.00047101
N        -0.54166424     1.82471100     0.15223517    -0.00000201     0.00010148     0.00013179
H        -0.06359896     2.64702296    -0.20399361    -0.00055851    -0.00168825     0.00086270
H         0.02991105     1.10840448     0.65144297    -0.00059954     0.00008538    -0.00226337
    14
  Step:     3            Position(A)                                  Velocity(au)
C        -5.99016786    -0.72112540    -0.24217394    -0.00034000    -0.00005058    -0.00006344
C        -4.75948420    -0.76426010     0.21941911     0.00027359    -0.00011784     0.00006545
H        -6.44468800     0.18426831    -0.73538187     0.00028389     0.00095342    -0.00048386
H        -6.64898585    -1.52631235     0.00179693    -0.00093996     0.00021329     0.00039198
H        -4.36064123    -1.66046686     0.69413369    -0.00020010    -0.00004130     0.00007255
C        -3.87074324     0.36072014    -0.01761861    -0.00008783    -0.00012746    -0.00002793
C        -2.51552782     0.53947496     0.33759781     0.00014245     0.00006320     0.00021114
H        -4.40421958     1.19516496    -0.58792709     0.00104693     0.00008019    -0.00060116
H        -1.96309018    -0.34954689     0.83638638    -0.00019323     0.00040228    -0.00059972
C        -1.84561384     1.68996221    -0.06942776     0.00011473     0.00024893    -0.00015490
H        -2.39561292     2.52209290    -0.47746700    -0.00054223    -0.00179916     0.00040988
N        -0.54143559     1.82583137     0.15373012     0.00003681     0.00010076     0.00014145
H        -0.06951517     2.62845565    -0.19435861    -0.00046883    -0.00161060     0.00085700
H         0.02244523     1.11030439     0.62586249    -0.00072452     0.00020797    -0.00237385
    14
  Step:     4            Position(A)                                  Velocity(au)
C        -5.99441189    -0.72156930    -0.24301736    -0.00043158    -0.00002994    -0.00008936
C        -4.75585267    -0.76542931     0.22023663     0.00038394    -0.00009530     0.00008158
H        -6.44084603     0.19359540    -0.74024719     0.00042081     0.00073418    -0.00039738
H        -6.66012532    -1.52466487     0.00582041    -0.00108541     0.00010081     0.00034060
H        -4.36288019    -1.66091796     0.69518189    -0.00020330    -0.00004691     0.00012357
C        -3.87223569     0.35928477    -0.01804589    -0.00018248    -0.00013492    -0.00004974
C        -2.51366602     0.54002142     0.34001188     0.00019674     0.00003875     0.00022863
H        -4.39162366     1.19510862    -0.59365443     0.00124380    -0.00009030    -0.00044766
H        -1.96605648    -0.34322799     0.82890439    -0.00033589     0.00073412    -0.00075473
C        -1.84448676     1.69259304    -0.07105325     0.00009299     0.00022605    -0.00013950
H        -2.40152695     2.50272485    -0.47345015    -0.00056251    -0.00168555     0.00029978
N        -0.54085892     1.82691540     0.15532958     0.00006055     0.00009570     0.00015052
H        -0.07385547     2.61178803    -0.18524517    -0.00027022    -0.00134194     0.00076775
H         0.01406089     1.11295415     0.59951039    -0.00075884     0.00021044    -0.00240037
    14
  Step:     5            Position(A)                                  Velocity(au)
C        -5.99960946    -0.72178030    -0.24412885    -0.00051325    -0.00000901    -0.00011172
C        -4.75108478    -0.76634507     0.22120391     0.00048020    -0.00007156     0.00009252
H        -6.43548203     0.20032984    -0.74407529     0.00055718     0.00048778    -0.00029869
H        -6.67273120    -1.52410695     0.00924817    -0.00120458     0.00001767     0.00028229
H        -4.36508887    -1.66149306     0.69683699    -0.00019417    -0.00006318     0.00018317
C        -3.87473537     0.35776845    -0.01870677    -0.00027131    -0.00014279    -0.00007015
C        -2.51122386     0.54032260     0.34259956     0.00024790     0.00001934     0.00024236
H        -4.37700905     1.19318952    -0.59772057     0.00141105    -0.00025396    -0.00030239
H        -1.97043836    -0.33348662     0.81987514    -0.00044526     0.00101686    -0.00087698
C        -1.84357953     1.69490749    -0.07247966     0.00007479     0.00019163    -0.00011864
H        -2.40791894     2.48521816    -0.47090873    -0.00062829    -0.00146491     0.00014272
N        -0.54011100     1.82792497     0.15702293     0.00006833     0.00008879     0.00015808
H        -0.07542669     2.59909821    -0.17756272     0.00002704    -0.00090212     0.00060350
H         0.00584419     1.11490827     0.57334980    -0.00069082     0.00007564    -0.00234015
    14
  Step:     6            Position(A)                                  Velocity(au)
C        -6.00564029    -0.72176645    -0.24546138    -0.00058327     0.00001031    -0.00012928
C        -4.74534737    -0.76699489     0.22226077     0.00056064    -0.00004679     0.00009788
H        -6.42865661     0.20426663    -0.74678151     0.00068352     0.00023099    -0.00019665
H        -6.68647777    -1.52427828     0.01199615    -0.00129189    -0.00003065     0.00021604
H        -4.36712793    -1.66230004     0.69918917    -0.00017240    -0.00008766     0.00025021
C        -3.87817104     0.35616103    -0.01958062    -0.00035301    -0.00015215    -0.00008817
C        -2.50824282     0.54044444     0.34531399     0.00029447     0.00000692     0.00025129
H        -4.36075413     1.18955278    -0.60026974     0.00153916    -0.00039772    -0.00017546
H        -1.97579734    -0.32098230     0.80971876    -0.00050718     0.00122714    -0.00095488
C        -1.84285056     1.69678522    -0.07364868     0.00006016     0.00014745    -0.00009295
H        -2.41527203     2.47067711    -0.47032778    -0.00073178    -0.00115647    -0.00005244
N        -0.53936410     1.82885794     0.15878785     0.00006208     0.00008379     0.00016303
H        -0.07326393     2.59205232    -0.17204235     0.00039118    -0.00034645     0.00038823
H        -0.00105220     1.11460882     0.54831503    -0.00052286    -0.00019548    -0.00220261
    14
  Step:     7            Position(A)                                  Velocity(au)
C        -6.01236969    -0.72155470    -0.24695715    -0.00064073     0.00002645    -0.00014129
C        -4.73881967    -0.76736864     0.22334524     0.00062468    -0.00002128     0.00009771
H        -6.42052882     0.20538313    -0.74837732     0.00079130    -0.00001954    -0.00010010
H        -6.70099385    -1.52477740     0.01397454    -0.00134469    -0.00004204     0.00014189
H        -4.36886045    -1.66341076     0.70231086    -0.00013870    -0.00011634     0.00032259
C        -3.88245809     0.35443983    -0.02063574    -0.00042630    -0.00016413    -0.00010276
C        -2.50478173     0.54047409     0.34809695     0.00033465     0.00000327     0.00025440
H        -4.34333689     1.18448873    -0.60155913     0.00161969    -0.00050840    -0.00007708
H        -1.98153383    -0.30664048     0.79898527    -0.00050702     0.00134078    -0.00097674
C        -1.84226349     1.69813314    -0.07451308     0.00004815     0.00009664    -0.00006381
H        -2.42392796     2.45991824    -0.47205592    -0.00085522    -0.00079228    -0.00027001
N        -0.53875284     1.82975812     0.16058947     0.00004657     0.00008461     0.00016440
H        -0.06686895     2.59151900    -0.16906943     0.00077277     0.00024227     0.00015775
H        -0.00559436     1.11063187     0.52516342    -0.00027557    -0.00057685    -0.00201025
    14
  Step:     8            Position(A)                                  Velocity(au)
C        -6.01965753    -0.72118774    -0.24855239    -0.00068544     0.00003810    -0.00014736
C        -4.73168125    -0.76746042     0.22439832     0.00067267     0.00000444     0.00009247
H        -6.41134542     0.20383909    -0.74897149     0.00087299    -0.00024710    -0.00001799
H        -6.71589550    -1.52519804     0.01510032    -0.00136316    -0.00001755     0.00006089
H        -4.37016224    -1.66484525     0.70624652    -0.00009463    -0.00014396     0.00039741
C        -3.88749724     0.35257042    -0.02182875    -0.00048968    -0.00017962    -0.00011286
C        -2.50092177     0.54051605     0.35087954     0.00036617     0.00000958     0.00025084
H        -4.32532035     1.17843062    -0.60195594     0.00164587    -0.00057360    -0.00001673
H        -1.98688942    -0.29165021     0.78835073    -0.00043170     0.00133591    -0.00093234
C        -1.84179709     1.69889949    -0.07504464     0.00003719     0.00004337    -0.00003319
H        -2.43398166     2.45334444    -0.47623479    -0.00097352    -0.00041241    -0.00048948
N        -0.53834529     1.83070904     0.16238439     0.00002849     0.00009384     0.00016177
H        -0.05635819     2.59735234    -0.16859131     0.00111617     0.00077379    -0.00004920
H        -0.00708077     1.10198908     0.50433688     0.00001280    -0.00101671    -0.00179529
    14
  Step:     9            Position(A)                                  Velocity(au)
C        -6.02736496    -0.72072120    -0.25018104    -0.00071767     0.00004419    -0.00014740
C        -4.72410373    -0.76727144     0.22536814     0.00070546     0.00002953     0.00008294
H        -6.40143040     0.19997726    -0.74877081     0.00092220    -0.00043521     0.00004085
H        -6.73081567    -1.52516137     0.01530669    -0.00134995     0.00003908    -0.00002510
H        -4.37093068    -1.66656026     0.71100497    -0.00004236    -0.00016454     0.00047124
C        -3.89317077     0.35051038    -0.02310480    -0.00054131    -0.00019903    -0.00011752
C        -2.49677097     0.54068361     0.35358455     0.00038666     0.00002600     0.00024010
H        -4.30733025     1.17194016    -0.60192506     0.00161348    -0.00058313    -0.00000211
H        -1.99097803    -0.27741483     0.77858850    -0.00027316     0.00119879    -0.00081589
C        -1.84144984     1.69908199    -0.07523907     0.00002551    -0.00000788    -0.00000329
H        -2.44522547     2.45089607    -0.48276433    -0.00105969    -0.00005710    -0.00068937
N        -0.53812956     1.83181098     0.16412852     0.00001485     0.00011165     0.00015545
H        -0.04245063     2.60844707    -0.17014571     0.00137393     0.00117413    -0.00020129
H        -0.00531431     1.08838939     0.48588801     0.00029375    -0.00144636    -0.00159201
    14
  Step:    10            Position(A)                                  Velocity(au)
C        -6.03535803    -0.72022096    -0.25177713    -0.00073795     0.00004394    -0.00014148
C        -4.71624796    -0.76681429     0.22621282     0.00072401     0.00005280     0.00007011
H        -6.39117047     0.19431798    -0.74807774     0.00093404    -0.00056839     0.00006802
H        -6.74542831    -1.52434299     0.01455130    -0.00130965     0.00012197    -0.00011358
H        -4.37108894    -1.66844488     0.71655574     0.00001571    -0.00017208     0.00054050
C        -3.89933954     0.34821631    -0.02439976    -0.00057934    -0.00022203    -0.00011614
C        -2.49246281     0.54108483     0.35613216     0.00039430     0.00005123     0.00022238
H        -4.29002229     1.16567355    -0.60200207     0.00152184    -0.00053130    -0.00003746
H        -1.99286535    -0.26542445     0.77050150    -0.00003308     0.00093123    -0.00062972
C        -1.84123900     1.69872703    -0.07511655     0.00001170    -0.00005312     0.00002384
H        -2.45716432     2.45209527    -0.49131603    -0.00109121     0.00024084    -0.00085138
N        -0.53802051     1.83315156     0.16578517     0.00001124     0.00013590     0.00014630
H        -0.02630081     2.62303867    -0.17299490     0.00151720     0.00140128    -0.00028133
H        -0.00065445     1.07034711     0.46950871     0.00052064    -0.00179669    -0.00142789
    14
  Step:    11            Position(A)                                  Velocity(au)
C        -6.04350911    -0.71975999    -0.25327614    -0.00074687     0.00003688    -0.00012979
C        -4.70826452    -0.76611640     0.22690185     0.00072917     0.00007277     0.00005502
H        -6.38099659     0.18754255    -0.74728267     0.00090559    -0.00063365     0.00005642
H        -6.75946672    -1.52249298     0.01282182    -0.00124824     0.00022368    -0.00020171
H        -4.37058704    -1.67032484     0.72282950     0.00007720    -0.00016136     0.00060188
C        -3.90584488     0.34565309    -0.02564550    -0.00060229    -0.00024740    -0.00010870
C        -2.48814497     0.54180439     0.35844952     0.00038866     0.00008222     0.00019886
H        -4.27403698     1.16031699    -0.60274459     0.00137470    -0.00041945    -0.00012180
H        -1.99170163    -0.25704250     0.76481211     0.00027329     0.00055692    -0.00038730
C        -1.84119389     1.69791992    -0.07471746    -0.00000491    -0.00008943     0.00004669
H        -2.46909771     2.45616490    -0.50138991    -0.00105453     0.00046080    -0.00096341
N        -0.53788362     1.83478414     0.16732915     0.00002078     0.00016317     0.00013535
H        -0.00925899     2.63910267    -0.17630040     0.00153827     0.00144747    -0.00028700
H         0.00607570     1.04908335     0.45465009     0.00065998    -0.00201481    -0.00131783
    14
  Step:    12            Position(A)                                  Velocity(au)
C        -6.05169714    -0.71941413    -0.25461644    -0.00074503     0.00002305    -0.00011270
C        -4.70029607    -0.76522221     0.22741644     0.00072150     0.00008788     0.00003872
H        -6.37135890     0.18045559    -0.74684354     0.00083667    -0.00062288     0.00000155
H        -6.77273601    -1.51944963     0.01013840    -0.00117265     0.00033576    -0.00028648
H        -4.36939997    -1.67197502     0.72972311     0.00014003    -0.00012862     0.00065266
C        -3.91251574     0.34280404    -0.02677769    -0.00060944    -0.00027297    -0.00009596
C        -2.48396015     0.54288364     0.36048262     0.00037107     0.00011431     0.00017172
H        -4.25994804     1.15649719    -0.60466659     0.00118044    -0.00025786    -0.00024758
H        -1.98688652    -0.25324072     0.76202862     0.00061668     0.00012194    -0.00011314
C        -1.84134636     1.69677067    -0.07409521    -0.00002411    -0.00011518     0.00006439
H        -2.48023422     2.46217611    -0.51239247    -0.00094643     0.00059508    -0.00102038
N        -0.53756582     1.83672126     0.16874613     0.00004388     0.00019002     0.00012343
H         0.00735173     2.65470486    -0.17927347     0.00144652     0.00133111    -0.00022705
H         0.01378397     1.02626924     0.44067857     0.00069717    -0.00207378    -0.00126340
    14
  Step:    13            Position(A)                                  Velocity(au)
C        -6.05980814    -0.71925581    -0.25574160    -0.00073312     0.00000313    -0.00009084
C        -4.69248031    -0.76419396     0.22774890     0.00070135     0.00009652     0.00002216
H        -6.36269281     0.17391581    -0.74724874     0.00073037    -0.00053557    -0.00009693
H        -6.78512068    -1.51514755     0.00655454    -0.00109031     0.00044926    -0.00036484
H        -4.36752355    -1.67313866     0.73710770     0.00020251    -0.00007202     0.00069095
C        -3.91917760     0.33968145    -0.02774480    -0.00060085    -0.00029573    -0.00007944
C        -2.48002709     0.54430507     0.36220611     0.00034426     0.00014190     0.00014374
H        -4.24821252     1.15467578    -0.60816078     0.00095127    -0.00006571    -0.00040068
H        -1.97821062    -0.25437492     0.76233704     0.00095853    -0.00031324     0.00016150
C        -1.84172134     1.69540005    -0.07330872    -0.00004496    -0.00012990     0.00007675
H        -2.48980261     2.46918339    -0.52371267    -0.00077240     0.00064651    -0.00102329
N        -0.53692359     1.83894116     0.17002931     0.00007879     0.00021385     0.00011106
H         0.02238634     2.66822329    -0.18126760     0.00126163     0.00108512    -0.00011620
H         0.02132773     1.00371536     0.42701079     0.00063544    -0.00197269    -0.00125633
    14
  Step:    14            Position(A)                                  Velocity(au)
C        -6.06773557    -0.71934572    -0.25660364    -0.00071186    -0.00002136    -0.00006518
C        -4.68495269    -0.76311064     0.22790134     0.00066884     0.00009728     0.00000617
H        -6.35538074     0.16873903    -0.74896397     0.00059330    -0.00038105    -0.00023392
H        -6.79658854    -1.50962119     0.00215677    -0.00100885     0.00055509    -0.00043385
H        -4.36496964    -1.67355062     0.74483897     0.00026341     0.00000807     0.00071586
C        -3.92566054     0.33633438    -0.02851570    -0.00057720    -0.00031218    -0.00006122
C        -2.47642879     0.54598806     0.36362713     0.00031156     0.00015975     0.00011770
H        -4.23913716     1.15505967    -0.61343216     0.00070139     0.00013149    -0.00056222
H        -1.96591694    -0.26009339     0.76556176     0.00125970    -0.00068805     0.00040586
C        -1.84232992     1.69392887    -0.07241625    -0.00006602    -0.00013391     0.00008400
H        -2.49713199     2.47631966    -0.53477883    -0.00054377     0.00062479    -0.00097738
N        -0.53584208     1.84139964     0.17117579     0.00012244     0.00023311     0.00009852
H         0.03495230     2.67844391    -0.18181561     0.00100764     0.00074739     0.00002908
H         0.02768553     0.98311297     0.41319394     0.00049041    -0.00172984    -0.00128345
    14
  Step:    15            Position(A)                                  Velocity(au)
C        -6.07538134    -0.71972318    -0.25716751    -0.00068205    -0.00004809    -0.00003709
C        -4.67784809    -0.76206567     0.22788395     0.00062404     0.00008907    -0.00000862
H        -6.34971332     0.16557972    -0.75236629     0.00043514    -0.00017899    -0.00039850
H        -6.80719122    -1.50300395    -0.00293674    -0.00093578     0.00064448    -0.00049075
H        -4.36176090    -1.67296207     0.75276855     0.00032193     0.00010913     0.00072753
C        -3.93180490     0.33285186    -0.02908405    -0.00053957    -0.00031886    -0.00004353
C        -2.47321111     0.54780000     0.36478099     0.00027601     0.00016411     0.00009572
H        -4.23286822     1.15755231    -0.62046031     0.00044485     0.00030647    -0.00071177
H        -1.95065228    -0.26942743     0.77121591     0.00148940    -0.00095636     0.00059666
C        -1.84316576     1.69247059    -0.07147108    -0.00008570    -0.00012808     0.00008673
H        -2.50169856     2.48285186    -0.54509467    -0.00027466     0.00054313    -0.00089026
N        -0.53424493     1.84404083     0.17218454     0.00017119     0.00024704     0.00008593
H         0.04443036     2.68457390    -0.18063152     0.00070933     0.00035551     0.00019277
H         0.03205644     0.96587171     0.39893290     0.00028397    -0.00137443    -0.00133067
    14
  Step:    16            Position(A)                                  Velocity(au)
C        -6.08265661    -0.72039783    -0.25741506    -0.00064458    -0.00007413    -0.00000824
C        -4.67130059    -0.76116214     0.22771285     0.00056714     0.00007127    -0.00002177
H        -6.34586121     0.16482334    -0.75768193     0.00026739     0.00004282    -0.00057487
H        -6.81706042    -1.49552198    -0.00857937    -0.00087796     0.00070956    -0.00053319
H        -4.35792670    -1.67116313     0.76075498     0.00037761     0.00022674     0.00072702
C        -3.93746469     0.32935878    -0.02946807    -0.00048933    -0.00031296    -0.00002844
C        -2.47039049     0.54957820     0.36572124     0.00023981     0.00015337     0.00007893
H        -4.22940512     1.16176430    -0.62900339     0.00019369     0.00043546    -0.00083107
H        -1.93333344    -0.28101564     0.77861482     0.00163041    -0.00109446     0.00072184
C        -1.84420477     1.69112693    -0.07051895    -0.00010242    -0.00011362     0.00008569
H        -2.50314068     2.48820178    -0.55425505     0.00002006     0.00041598    -0.00077058
N        -0.53209708     1.84680407     0.17305573     0.00022127     0.00025533     0.00007345
H         0.05047034     2.68622130    -0.17759831     0.00039101    -0.00005483     0.00035999
H         0.03389783     0.95304460     0.38408307     0.00003967    -0.00093981    -0.00138527
    14
  Step:    17            Position(A)                                  Velocity(au)
C        -6.08948279    -0.72134497    -0.25734787    -0.00060042    -0.00009641     0.00001956
C        -4.66544083    -0.76050643     0.22740777     0.00049865     0.00004396    -0.00003305
H        -6.34386365     0.16651645    -0.76494270     0.00010164     0.00025309    -0.00074482
H        -6.82639832    -1.48748101    -0.01460126    -0.00084106     0.00074406    -0.00055939
H        -4.35349999    -1.66800175     0.76867359     0.00043018     0.00035495     0.00071626
C        -3.94250996     0.32600529    -0.02970614    -0.00042804    -0.00029286    -0.00001744
C        -2.46796488     0.55115518     0.36650784     0.00020420     0.00012804     0.00006747
H        -4.22863082     1.16707883    -0.63864150    -0.00004309     0.00050213    -0.00090691
H        -1.91498398    -0.29337094     0.78700750     0.00167914    -0.00110071     0.00078012
C        -1.84540649     1.68998495    -0.06959640    -0.00011485    -0.00009197     0.00008178
H        -2.50125968     2.49195224    -0.56195263     0.00032595     0.00025786    -0.00062726
N        -0.52940422     1.84962666     0.17379146     0.00026903     0.00025780     0.00006132
H         0.05298448     2.68337431    -0.17275601     0.00007678    -0.00044908     0.00051660
H         0.03292432     0.94531166     0.36862750    -0.00021951    -0.00045994    -0.00143669
    14
  Step:    18            Position(A)                                  Velocity(au)
C        -6.09579196    -0.72250705    -0.25698713    -0.00055058    -0.00011228     0.00004467
C        -4.66039171    -0.76020041     0.22698974     0.00041953     0.00000794    -0.00004247
H        -6.34363774     0.17036007    -0.77397629    -0.00005208     0.00042289    -0.00089089
H        -6.83546029    -1.47924428    -0.02081719    -0.00082870     0.00074415    -0.00056845
H        -4.34851579    -1.66339785     0.77642460     0.00047950     0.00048683     0.00069780
C        -3.94682886     0.32295187    -0.02984961    -0.00035744    -0.00025838    -0.00001136
C        -2.46592328     0.55237934     0.36719733     0.00016972     0.00009015     0.00006075
H        -4.23034779     1.17274938    -0.64884382    -0.00025963     0.00049934    -0.00093248
H        -1.89659898    -0.30509579     0.79568154     0.00164206    -0.00098915     0.00077788
C        -1.84671723     1.68911493    -0.06872992    -0.00012187    -0.00006474     0.00007593
H        -2.49600997     2.49384300    -0.56797767     0.00062937     0.00008306    -0.00046926
N        -0.52621144     1.85244400     0.17439715     0.00031091     0.00025426     0.00004991
H         0.05215009     2.67639677    -0.16629673    -0.00020864    -0.00079233     0.00064858
H         0.02909572     0.94298263     0.35265281    -0.00047164     0.00003126    -0.00147638
    14
  Step:    19            Position(A)                                  Velocity(au)
C        -6.10152771    -0.72380129    -0.25637056    -0.00049613    -0.00011996     0.00006583
C        -4.65626273    -0.76033276     0.22647858     0.00033127    -0.00003522    -0.00005023
H        -6.34500307     0.17576805    -0.78443265    -0.00018636     0.00053062    -0.00099927
H        -6.84452772    -1.47120122    -0.02703726    -0.00084168     0.00070919    -0.00056051
H        -4.34301001    -1.65735140     0.78393935     0.00052550     0.00061491     0.00067467
C        -3.95032972     0.32035271    -0.02995469    -0.00027952    -0.00021076    -0.00001032
C        -2.46425199     0.55312741     0.36783685     0.00013651     0.00004254     0.00005777
H        -4.23431066     1.17800293    -0.65904137    -0.00045262     0.00042845    -0.00090698
H        -1.87906083    -0.31501057     0.80402521     0.00153109    -0.00078198     0.00072544
C        -1.84807256     1.68856869    -0.06793521    -0.00012264    -0.00003370     0.00006918
H        -2.48749092     2.49376943    -0.57221858     0.00091742    -0.00009414    -0.00030563
N        -0.52260252     1.85518902     0.17488324     0.00034338     0.00024448     0.00003974
H         0.04842013     2.66604061    -0.15856703    -0.00043958    -0.00104855     0.00074173
H         0.02260623     0.94599558     0.33632891    -0.00069537     0.00049909    -0.00149745
    14
  Step:    20            Position(A)                                  Velocity(au)
C        -6.10664577    -0.72513147    -0.25554690    -0.00043825    -0.00011885     0.00008233
C        -4.65314450    -0.76097083     0.22589079     0.00023581    -0.00008324    -0.00005672
H        -6.34771463     0.18196834    -0.79583719    -0.00029676     0.00056458    -0.00106152
H        -6.85387356    -1.46372943    -0.03307935    -0.00087735     0.00064216    -0.00053686
H        -4.33701951    -1.64994548     0.79118423     0.00056806     0.00073172     0.00065012
C        -3.95294393     0.31834114    -0.03007549    -0.00019650    -0.00015244    -0.00001389
C        -2.46293679     0.55331006     0.36846122     0.00010462    -0.00001164     0.00005739
H        -4.24024978     1.18212249    -0.66868572    -0.00062060     0.00029726    -0.00083426
H        -1.86310338    -0.32220305     0.81155203     0.00136012    -0.00050370     0.00063433
C        -1.84940027     1.68837776    -0.06721654    -0.00011658    -0.00000078     0.00006258
H        -2.47593974     2.49178343    -0.57466398     0.00117768    -0.00025924    -0.00014574
N        -0.51869945     1.85779257     0.17526656     0.00036304     0.00022846     0.00003143