|===============================================================================
|
|  DFTB+ release 20.1
|
|  Copyright (C) 2006 - 2020  DFTB+ developers group
|
|===============================================================================
|
|  When publishing results obtained with DFTB+, please cite the following
|  reference:
|
|  * DFTB+, a software package for efficient approximate density functional
|    theory based atomistic simulations, J. Chem. Phys. 152, 124101 (2020).
|    [doi: 10.1063/1.5143190]
|
|  You should also cite additional publications crediting the parametrization
|  data you use. Please consult the documentation of the SK-files for the
|  references.
|
|===============================================================================

Reading input file 'dftb_in.hsd'
Parser version: 8

--------------------------------------------------------------------------------
Reading SK-files:
Done.


Processed input in HSD format written to 'dftb_pin.hsd'

Starting initialization...
--------------------------------------------------------------------------------
OpenMP threads:              1
Chosen random seed:          511512580
Mode:                        Static calculation
Self consistent charges:     Yes
SCC-tolerance:                 0.100000E-05
Max. scc iterations:                   1000
Shell resolved Hubbard:      No
Spin polarisation:           No
Nr. of up electrons:             6.000000
Nr. of down electrons:           6.000000
Periodic boundaries:         No
Electronic solver:           Relatively robust
Maximal SCC-cycles:                    1000
Initial charges:             Set automatically (system chrg:   0.100E+01)
Included shells:             C:  s, p
                             N:  s, p
                             H:  s
Spin coupling constants:     C   1(s)-1(s):  -0.455900E-01
                             C   1(s)-2(p):  -0.293000E-01
                             C   2(p)-1(s):  -0.293000E-01
                             C   2(p)-2(p):  -0.275500E-01
                             N   1(s)-1(s):  -0.468700E-01
                             N   1(s)-2(p):  -0.317000E-01
                             N   2(p)-1(s):  -0.317000E-01
                             N   2(p)-2(p):  -0.307200E-01
                             H   1(s)-1(s):  -0.792500E-01
Range separated hybrid:      Yes
  Screening parameter omega:   0.300000E+00
  Range separated algorithm:   MatrixBased
Extra options:
                             Mulliken analysis
                             Force calculation
Force type                   original
                             Eigenvector printing


REKS Calcuation:             Yes
SSR(2,2) Calcuation:         Yes
Energy Functional:           (PPS+OSS)/2
Number of Core Orbitals:                  5
Number of Active Orbitals:                2
Number of Basis:                         12
Number of States:                         2
State-Averaging Weight:          0.500000
                                 0.500000
State of Interest:                        1
Initial Guess:               Diagonalize H0 matrix
Newton-Raphson for FON opt:  Yes
NR max. Iterations:                      50
Level Shifting:              Yes
Shift Value:                     0.300000
W Scale Factor:              C  =    3.000000
                             N  =    3.000000
                             H  =    3.000000
Transition Dipole:           No
Gradient of Microstate:      No
CP-REKS Solver:              Preconditioned Conjugate-Gradient
CG max. Iterations:                     100
CG Tolerance:                  0.100000E-07
Memory for A and Hxc:        Direct Updating Without Saving
Non-Adiabatic Coupling:      Yes

--------------------------------------------------------------------------------

***  Geometry step: 0

  iSCC       reks energy        Diff energy         x_a       SCC error   
    1       -6.2534327989       0.0000000000     0.999069    1.18551300
    2       -6.2689126566      -0.0154798577     0.999647    0.11562996
    3       -6.2745739213      -0.0056612647     0.999813    0.05887238
    4       -6.2782746679      -0.0037007466     0.999886    0.03108844
    5       -6.2811520019      -0.0028773341     0.999923    0.01706411
    6       -6.2834447276      -0.0022927256     0.999944    0.01570960
    7       -6.2852042593      -0.0017595317     0.999956    0.01479413
    8       -6.2864774998      -0.0012732405     0.999963    0.01327731
    9       -6.2873457972      -0.0008682974     0.999967    0.01132881
   10       -6.2879088693      -0.0005630721     0.999970    0.00934166
   11       -6.2882602428      -0.0003513735     0.999971    0.00753375
   12       -6.2884736552      -0.0002134124     0.999971    0.00599432
   13       -6.2886010086      -0.0001273534     0.999972    0.00473419
   14       -6.2886762237      -0.0000752151     0.999972    0.00372603
   15       -6.2887204281      -0.0000442044     0.999972    0.00292950
   16       -6.2887463831      -0.0000259550     0.999972    0.00230401
   17       -6.2887616524      -0.0000152693     0.999972    0.00181393
   18       -6.2887706710      -0.0000090186     0.999971    0.00143000
   19       -6.2887760259      -0.0000053550     0.999971    0.00112889
   20       -6.2887792251      -0.0000031991     0.999971    0.00089237
   21       -6.2887811488      -0.0000019237     0.999971    0.00071174
   22       -6.2887823131      -0.0000011643     0.999971    0.00057015
   23       -6.2887830223      -0.0000007092     0.999971    0.00045653
   24       -6.2887834570      -0.0000004346     0.999971    0.00036545
   25       -6.2887837247      -0.0000002678     0.999971    0.00029247
   26       -6.2887838906      -0.0000001658     0.999971    0.00023401
   27       -6.2887839937      -0.0000001031     0.999971    0.00018721
   28       -6.2887840581      -0.0000000644     0.999971    0.00014975
   29       -6.2887840984      -0.0000000403     0.999971    0.00011976
   30       -6.2887841238      -0.0000000253     0.999971    0.00009577
   31       -6.2887841398      -0.0000000160     0.999971    0.00007657
   32       -6.2887841498      -0.0000000101     0.999971    0.00006121
   33       -6.2887841562      -0.0000000064     0.999971    0.00004893
   34       -6.2887841602      -0.0000000040     0.999971    0.00003911
   35       -6.2887841628      -0.0000000026     0.999971    0.00003125
   36       -6.2887841644      -0.0000000016     0.999971    0.00002497
   37       -6.2887841654      -0.0000000010     0.999971    0.00001996
   38       -6.2887841661      -0.0000000007     0.999971    0.00001594
   39       -6.2887841665      -0.0000000004     0.999971    0.00001274
   40       -6.2887841668      -0.0000000003     0.999971    0.00001018
   41       -6.2887841669      -0.0000000002     0.999971    0.00000813
   42       -6.2887841670      -0.0000000001     0.999971    0.00000649
   43       -6.2887841671      -0.0000000001     0.999971    0.00000519
   44       -6.2887841671      -0.0000000000     0.999971    0.00000414
   45       -6.2887841672      -0.0000000000     0.999971    0.00000331
   46       -6.2887841672      -0.0000000000     0.999971    0.00000264
   47       -6.2887841672      -0.0000000000     0.999971    0.00000211
   48       -6.2887841672      -0.0000000000     0.999971    0.00000168
   49       -6.2887841672      -0.0000000000     0.999971    0.00000135
   50       -6.2887841672      -0.0000000000     0.999971    0.00000107
   51       -6.2887841672      -0.0000000000     0.999971    0.00000086
  
--------------------------------------------------
 Final SA-REKS(2,2) energy:      -6.28878417
  
 State     Energy      FON(1)    FON(2)   Spin
  PPS   -6.41871701   1.999942  0.000058  0.00
  OSS   -6.15885133   1.000000  1.000000  0.00
 Trip   -6.23742450   1.000000  1.000000  1.00
--------------------------------------------------

 Lagrangian Wab:  -0.00103528 -0.00103524

--------------------------------------------------
 SSR: 2SI-2SA-REKS(2,2) Hamiltonian matrix
               PPS           OSS
   PPS    -6.41871701   -0.00145617
   OSS    -0.00145617   -6.15885133
--------------------------------------------------

----------------------------------------------------------------
 SSR: 2SI-2SA-REKS(2,2) states
                    E_n       C_{PPS}    C_{OSS}
 SSR state  1   -6.41872517  -0.999984  -0.005603
 SSR state  2   -6.15884317   0.005603  -0.999984
----------------------------------------------------------------

 unrelaxed SSR FONs for S0:  1.999910  0.000090

Total Energy:                       -6.4187251672 H         -174.6624 eV
Extrapolated to 0:                  -6.4187251672 H         -174.6624 eV

----------------------------------------------------------------------------------
 Solving CP-REKS equation for  1 state vector...
----------------------------------------------------------------------------------
  CG solver: Constructing Y initial guess
  CG solver: Iteration    1    eps =    0.000031190831
  CG solver: Iteration    2    eps =    0.000001986314
  CG solver: Iteration    3    eps =    0.000000283303
  CG solver: Iteration    4    eps =    0.000000004036
  Convergence reached in CG solver after    4 iterations
  CG solver: Calculating converged R, Z, Q2 matrix
----------------------------------------------------------------------------------

----------------------------------------------------------------------------------
 Solving CP-REKS equation for SI between  1 and  2 state vectors...
----------------------------------------------------------------------------------
  CG solver: Constructing Y initial guess
  CG solver: Iteration    1    eps =    0.000372861182
  CG solver: Iteration    2    eps =    0.000195789936
  CG solver: Iteration    3    eps =    0.000068393848
  CG solver: Iteration    4    eps =    0.000001038118
  CG solver: Iteration    5    eps =    0.000000078413
  CG solver: Iteration    6    eps =    0.000000003637
  Convergence reached in CG solver after    6 iterations
  CG solver: Calculating converged R, Z, Q2 matrix
----------------------------------------------------------------------------------

--------------------------------------------------
 Gradient Information
--------------------------------------------------
           1 st state (SSR)
    -0.00109194     0.00253452    -0.01807704
     0.00212474    -0.00148089     0.01629237
    -0.00248411    -0.00135433    -0.00300092
    -0.00345905     0.00102108     0.00196464
     0.00187772    -0.00161098     0.00326144
     0.00303264     0.00089060    -0.00044048

           2 st state (SSR)
     0.00032290    -0.00526947     0.07796536
    -0.00083709     0.00477955    -0.09981261
    -0.00015037    -0.01602542     0.01599590
     0.00414682     0.00800552    -0.00666838
    -0.00289411    -0.00729882    -0.00668875
    -0.00058814     0.01580864     0.01920849
--------------------------------------------------
 Coupling Information
--------------------------------------------------
 between  1 and  2 states
--------------------------------------------------
 g vector - difference gradient
    -0.00070939     0.00391086    -0.04803486
     0.00147987    -0.00313922     0.05805737
    -0.00122722     0.00734377    -0.00949766
    -0.00387009    -0.00347619     0.00431941
     0.00245303     0.00283341     0.00497987
     0.00187379    -0.00747264    -0.00982415

 h vector - derivative coupling
     0.00017153    -0.00076884     0.00094944
     0.00010136     0.00078531    -0.00011035
     0.00537831    -0.00069319    -0.00012016
     0.00597106    -0.00145012    -0.00023500
    -0.00597529     0.00095346    -0.00039880
    -0.00564698     0.00117339    -0.00008514

 G vector - GDV
    -0.00070742     0.00390200    -0.04802120
     0.00148092    -0.00313022     0.05805249
    -0.00116687     0.00733554    -0.00949841
    -0.00380293    -0.00349222     0.00431651
     0.00238592     0.00284392     0.00497509
     0.00181039    -0.00745902    -0.00982448

 H vector - DCV - non-adiabatic coupling
     0.00069059    -0.00312689     0.00572445
     0.00032618     0.00315697    -0.00292809
     0.02074683    -0.00298383    -0.00005277
     0.02314149    -0.00542967    -0.00109047
    -0.02309664     0.00354640    -0.00174917
    -0.02180845     0.00483702     0.00009605
--------------------------------------------------


--------------------------------------------------------------------------------
DFTB+ running times                          cpu [s]             wall clock [s]
--------------------------------------------------------------------------------
SCC                                    +     0.02  ( 68.0%)      0.02  ( 63.2%)
Post-SCC processing                    +     0.01  ( 28.5%)      0.01  ( 26.3%)
--------------------------------------------------------------------------------
Missing                                +     0.00  (  3.5%)      0.00  ( 10.5%)
Total                                  =     0.03  (100.0%)      0.04  (100.0%)
--------------------------------------------------------------------------------
