 Fermi distribution function

Calculation with static geometry


********************************************************************************
 iSCC Total electronic   Diff electronic      SCC error    
   10   -0.53910357E+01   -0.92370556E-13    0.97478987E-06
********************************************************************************

 Total charge:     1.00000000

 Atomic gross charges (e)
 Atom           Charge
    1       0.29309874
    2      -0.18006714
    3       0.15336831
    4       0.27106086
    5       0.30978525
    6       0.15275398

Nr. of electrons (up):     12.00000000
Atom populations (up)
 Atom       Population
    1       3.70690126
    2       5.18006714
    3       0.84663169
    4       0.72893914
    5       0.69021475
    6       0.84724602

l-shell populations (up)
 Atom Sh.   l       Population
    1   1   0       1.29635499
    1   2   1       2.41054628
    2   1   0       1.41990104
    2   2   1       3.76016610
    3   1   0       0.84663169
    4   1   0       0.72893914
    5   1   0       0.69021475
    6   1   0       0.84724602

Orbital populations (up)
 Atom Sh.   l   m       Population  Label
    1   1   0   0       1.29635499  s
    1   2   1  -1       0.52799358  p_y
    1   2   1   0       0.90139872  p_z
    1   2   1   1       0.98115398  p_x
    2   1   0   0       1.41990104  s
    2   2   1  -1       1.31300259  p_y
    2   2   1   0       1.10280130  p_z
    2   2   1   1       1.34436221  p_x
    3   1   0   0       0.84663169  s
    4   1   0   0       0.72893914  s
    5   1   0   0       0.69021475  s
    6   1   0   0       0.84724602  s

Fermi level:                        -0.4883803651 H          -13.2895 eV
Band energy:                        -8.8884979496 H         -241.8683 eV
TS:                                  0.0000000000 H            0.0000 eV
Band free energy (E-TS):            -8.8884979496 H         -241.8683 eV
Extrapolated E(0K):                 -8.8884979496 H         -241.8683 eV
Input / Output electrons (q):     12.0000000000     12.0000000000

Energy H0:                          -5.5261158803 H         -150.3733 eV
Energy SCC:                          0.1350802268 H            3.6757 eV
Total Electronic energy:            -5.3910356535 H         -146.6975 eV
Repulsive energy:                    0.2015214266 H            5.4837 eV
Total energy:                       -5.1895142269 H         -141.2139 eV
Extrapolated to 0:                  -5.1895142269 H         -141.2139 eV
Total Mermin free energy:           -5.1895142269 H         -141.2139 eV
Force related energy:               -5.1895142269 H         -141.2139 eV

SCC converged

Excitation Energy:                   0.0941044104 H            2.5607 eV

Total Forces
    1      0.019025948648      0.008466972569     -0.011523333361
    2     -0.008952449122      0.013021383865      0.007976490629
    3     -0.009135079403      0.005966871158     -0.000606659029
    4     -0.008686934566     -0.016634064157     -0.004761590976
    5      0.008197312380      0.005835865373      0.006596440668
    6     -0.000448797937     -0.016657028809      0.002318652069

Maximal derivative component:        0.190259E-01 au


