 Fermi distribution function

Calculation with static geometry


********************************************************************************
 iSCC Total electronic   Diff electronic      SCC error    
   10   -0.54038582E+01   -0.15010215E-12    0.55123355E-06
********************************************************************************

 Total charge:     1.00000000

 Atomic gross charges (e)
 Atom           Charge
    1       0.25356501
    2      -0.14626461
    3       0.15489391
    4       0.29768975
    5       0.27458543
    6       0.16553051

Nr. of electrons (up):     12.00000000
Atom populations (up)
 Atom       Population
    1       3.74643499
    2       5.14626461
    3       0.84510609
    4       0.70231025
    5       0.72541457
    6       0.83446949

l-shell populations (up)
 Atom Sh.   l       Population
    1   1   0       1.30890604
    1   2   1       2.43752895
    2   1   0       1.42080361
    2   2   1       3.72546101
    3   1   0       0.84510609
    4   1   0       0.70231025
    5   1   0       0.72541457
    6   1   0       0.83446949

Orbital populations (up)
 Atom Sh.   l   m       Population  Label
    1   1   0   0       1.30890604  s
    1   2   1  -1       0.57910818  p_y
    1   2   1   0       0.89109361  p_z
    1   2   1   1       0.96732716  p_x
    2   1   0   0       1.42080361  s
    2   2   1  -1       1.38758602  p_y
    2   2   1   0       1.08455748  p_z
    2   2   1   1       1.25331751  p_x
    3   1   0   0       0.84510609  s
    4   1   0   0       0.70231025  s
    5   1   0   0       0.72541457  s
    6   1   0   0       0.83446949  s

Fermi level:                        -0.4864156906 H          -13.2360 eV
Band energy:                        -8.8760334903 H         -241.5292 eV
TS:                                  0.0000000000 H            0.0000 eV
Band free energy (E-TS):            -8.8760334903 H         -241.5292 eV
Extrapolated E(0K):                 -8.8760334903 H         -241.5292 eV
Input / Output electrons (q):     12.0000000000     12.0000000000

Energy H0:                          -5.5362239741 H         -150.6483 eV
Energy SCC:                          0.1323658121 H            3.6019 eV
Total Electronic energy:            -5.4038581621 H         -147.0465 eV
Repulsive energy:                    0.1870863482 H            5.0909 eV
Total energy:                       -5.2167718139 H         -141.9556 eV
Extrapolated to 0:                  -5.2167718139 H         -141.9556 eV
Total Mermin free energy:           -5.2167718139 H         -141.9556 eV
Force related energy:               -5.2167718139 H         -141.9556 eV

SCC converged

Excitation Energy:                   0.1228998226 H            3.3443 eV

Total Forces
    1     -0.003236459478     -0.000301017490      0.030264349924
    2     -0.013793164277      0.000150145306     -0.038759534439
    3     -0.007476416495     -0.010327474709      0.000571760868
    4     -0.007354397070      0.011417916385      0.005944606249
    5      0.019929340239     -0.008921766200     -0.000908857331
    6      0.011931097082      0.007982196708      0.002887674728

Maximal derivative component:        0.387595E-01 au


