|===============================================================================
|
|  DFTB+ release 20.1
|
|  Copyright (C) 2006 - 2020  DFTB+ developers group
|
|===============================================================================
|
|  When publishing results obtained with DFTB+, please cite the following
|  reference:
|
|  * DFTB+, a software package for efficient approximate density functional
|    theory based atomistic simulations, J. Chem. Phys. 152, 124101 (2020).
|    [doi: 10.1063/1.5143190]
|
|  You should also cite additional publications crediting the parametrization
|  data you use. Please consult the documentation of the SK-files for the
|  references.
|
|===============================================================================

Reading input file 'dftb_in.hsd'
Parser version: 8

--------------------------------------------------------------------------------
Reading SK-files:
Done.


Processed input in HSD format written to 'dftb_pin.hsd'

Starting initialization...
--------------------------------------------------------------------------------
OpenMP threads:              1
Chosen random seed:          500219751
Mode:                        Static calculation
Self consistent charges:     Yes
SCC-tolerance:                 0.100000E-05
Max. scc iterations:                   1000
Shell resolved Hubbard:      No
Spin polarisation:           No
Nr. of up electrons:            16.000000
Nr. of down electrons:          16.000000
Periodic boundaries:         No
Electronic solver:           Relatively robust
Maximal SCC-cycles:                    1000
Initial charges:             Set automatically (system chrg:   0.100E+01)
Included shells:             C:  s, p
                             H:  s
                             N:  s, p
Spin coupling constants:     C   1(s)-1(s):  -0.455900E-01
                             C   1(s)-2(p):  -0.293000E-01
                             C   2(p)-1(s):  -0.293000E-01
                             C   2(p)-2(p):  -0.275500E-01
                             H   1(s)-1(s):  -0.792500E-01
                             N   1(s)-1(s):  -0.468700E-01
                             N   1(s)-2(p):  -0.317000E-01
                             N   2(p)-1(s):  -0.317000E-01
                             N   2(p)-2(p):  -0.307200E-01
Range separated hybrid:      Yes
  Screening parameter omega:   0.300000E+00
  Range separated algorithm:   MatrixBased
Extra options:
                             Mulliken analysis
                             Force calculation
Force type                   original
                             Eigenvector printing


REKS Calcuation:             Yes
SSR(2,2) Calcuation:         Yes
Energy Functional:           (PPS+OSS)/2
Number of Core Orbitals:                 15
Number of Active Orbitals:                2
Number of Basis:                         32
Number of States:                         2
State-Averaging Weight:          0.500000
                                 0.500000
State of Interest:                        1
Initial Guess:               Diagonalize H0 matrix
Newton-Raphson for FON opt:  Yes
NR max. Iterations:                      50
Level Shifting:              Yes
Shift Value:                     0.300000
W Scale Factor:              C  =    3.200000
                             H  =    3.200000
                             N  =    3.200000
Transition Dipole:           No
Gradient of Microstate:      No
CP-REKS Solver:              Preconditioned Conjugate-Gradient
CG max. Iterations:                     100
CG Tolerance:                  0.100000E-07
Memory for A and Hxc:        Direct Updating Without Saving
Non-Adiabatic Coupling:      Yes

--------------------------------------------------------------------------------

***  Geometry step: 0

  iSCC       reks energy        Diff energy         x_a       SCC error   
    1      -16.4183752678       0.0000000000     0.997045    1.20929589
    2      -16.4300140048      -0.0116387370     0.999265    0.05831110
    3      -16.4327175955      -0.0027035907     0.999646    0.02196298
    4      -16.4337572890      -0.0010396935     0.999778    0.01070008
    5      -16.4342320951      -0.0004748061     0.999839    0.00593108
    6      -16.4344682742      -0.0002361791     0.999872    0.00366849
    7      -16.4345924193      -0.0001241452     0.999891    0.00267644
    8      -16.4346607252      -0.0000683059     0.999902    0.00196493
    9      -16.4347000394      -0.0000393141     0.999910    0.00145406
   10      -16.4347237566      -0.0000237173     0.999915    0.00108589
   11      -16.4347387692      -0.0000150125     0.999918    0.00081909
   12      -16.4347487227      -0.0000099535     0.999920    0.00062438
   13      -16.4347556031      -0.0000068805     0.999922    0.00048110
   14      -16.4347605297      -0.0000049265     0.999923    0.00037466
   15      -16.4347641575      -0.0000036278     0.999924    0.00029475
   16      -16.4347668870      -0.0000027295     0.999925    0.00023407
   17      -16.4347689739      -0.0000020869     0.999925    0.00019731
   18      -16.4347705884      -0.0000016145     0.999926    0.00017370
   19      -16.4347718486      -0.0000012601     0.999926    0.00015887
   20      -16.4347728387      -0.0000009901     0.999926    0.00014463
   21      -16.4347736206      -0.0000007820     0.999926    0.00013117
   22      -16.4347742408      -0.0000006202     0.999926    0.00011862
   23      -16.4347747344      -0.0000004936     0.999926    0.00010702
   24      -16.4347751286      -0.0000003942     0.999926    0.00009637
   25      -16.4347754443      -0.0000003157     0.999927    0.00008666
   26      -16.4347756979      -0.0000002536     0.999927    0.00007784
   27      -16.4347759022      -0.0000002043     0.999927    0.00006986
   28      -16.4347760674      -0.0000001651     0.999927    0.00006266
   29      -16.4347762012      -0.0000001338     0.999927    0.00005618
   30      -16.4347763100      -0.0000001088     0.999927    0.00005036
   31      -16.4347763988      -0.0000000888     0.999927    0.00004513
   32      -16.4347764715      -0.0000000727     0.999927    0.00004045
   33      -16.4347765312      -0.0000000597     0.999927    0.00003625
   34      -16.4347765804      -0.0000000492     0.999927    0.00003250
   35      -16.4347766212      -0.0000000407     0.999927    0.00002969
   36      -16.4347766550      -0.0000000339     0.999927    0.00002739
   37      -16.4347766833      -0.0000000282     0.999927    0.00002527
   38      -16.4347767069      -0.0000000236     0.999927    0.00002334
   39      -16.4347767268      -0.0000000199     0.999927    0.00002156
   40      -16.4347767435      -0.0000000168     0.999927    0.00001994
   41      -16.4347767577      -0.0000000142     0.999927    0.00001845
   42      -16.4347767698      -0.0000000121     0.999927    0.00001708
   43      -16.4347767801      -0.0000000103     0.999927    0.00001582
   44      -16.4347767889      -0.0000000088     0.999927    0.00001467
   45      -16.4347767964      -0.0000000076     0.999927    0.00001360
   46      -16.4347768029      -0.0000000065     0.999927    0.00001287
   47      -16.4347768086      -0.0000000056     0.999927    0.00001225
   48      -16.4347768134      -0.0000000049     0.999927    0.00001166
   49      -16.4347768177      -0.0000000042     0.999927    0.00001109
   50      -16.4347768214      -0.0000000037     0.999927    0.00001054
   51      -16.4347768246      -0.0000000032     0.999927    0.00001001
   52      -16.4347768274      -0.0000000028     0.999927    0.00000950
   53      -16.4347768299      -0.0000000025     0.999927    0.00000902
   54      -16.4347768320      -0.0000000022     0.999927    0.00000856
   55      -16.4347768339      -0.0000000019     0.999927    0.00000812
   56      -16.4347768356      -0.0000000017     0.999927    0.00000770
   57      -16.4347768371      -0.0000000015     0.999927    0.00000730
   58      -16.4347768384      -0.0000000013     0.999927    0.00000692
   59      -16.4347768395      -0.0000000011     0.999927    0.00000655
   60      -16.4347768405      -0.0000000010     0.999927    0.00000621
   61      -16.4347768414      -0.0000000009     0.999927    0.00000588
   62      -16.4347768422      -0.0000000008     0.999927    0.00000557
   63      -16.4347768429      -0.0000000007     0.999927    0.00000527
   64      -16.4347768436      -0.0000000006     0.999927    0.00000499
   65      -16.4347768441      -0.0000000006     0.999927    0.00000472
   66      -16.4347768446      -0.0000000005     0.999927    0.00000446
   67      -16.4347768450      -0.0000000004     0.999927    0.00000423
   68      -16.4347768454      -0.0000000004     0.999927    0.00000401
   69      -16.4347768458      -0.0000000003     0.999927    0.00000380
   70      -16.4347768461      -0.0000000003     0.999927    0.00000360
   71      -16.4347768463      -0.0000000003     0.999927    0.00000341
   72      -16.4347768466      -0.0000000002     0.999927    0.00000323
   73      -16.4347768468      -0.0000000002     0.999927    0.00000306
   74      -16.4347768470      -0.0000000002     0.999927    0.00000290
   75      -16.4347768472      -0.0000000002     0.999927    0.00000275
   76      -16.4347768473      -0.0000000002     0.999927    0.00000260
   77      -16.4347768475      -0.0000000001     0.999927    0.00000246
   78      -16.4347768476      -0.0000000001     0.999927    0.00000233
   79      -16.4347768477      -0.0000000001     0.999927    0.00000220
   80      -16.4347768478      -0.0000000001     0.999927    0.00000208
   81      -16.4347768479      -0.0000000001     0.999927    0.00000197
   82      -16.4347768479      -0.0000000001     0.999927    0.00000186
   83      -16.4347768480      -0.0000000001     0.999927    0.00000176
   84      -16.4347768481      -0.0000000001     0.999927    0.00000167
   85      -16.4347768481      -0.0000000001     0.999927    0.00000158
   86      -16.4347768482      -0.0000000000     0.999927    0.00000149
   87      -16.4347768482      -0.0000000000     0.999927    0.00000141
   88      -16.4347768482      -0.0000000000     0.999927    0.00000133
   89      -16.4347768483      -0.0000000000     0.999927    0.00000126
   90      -16.4347768483      -0.0000000000     0.999927    0.00000119
   91      -16.4347768483      -0.0000000000     0.999927    0.00000112
   92      -16.4347768484      -0.0000000000     0.999927    0.00000106
   93      -16.4347768484      -0.0000000000     0.999927    0.00000100
   94      -16.4347768484      -0.0000000000     0.999927    0.00000095
  
--------------------------------------------------
 Final SA-REKS(2,2) energy:     -16.43477685
  
 State     Energy      FON(1)    FON(2)   Spin
  PPS  -16.49657293   1.999854  0.000146  0.00
  OSS  -16.37298077   1.000000  1.000000  0.00
 Trip  -16.41834651   1.000000  1.000000  1.00
--------------------------------------------------

 Lagrangian Wab:  -0.00978773 -0.00978710

--------------------------------------------------
 SSR: 2SI-2SA-REKS(2,2) Hamiltonian matrix
               PPS           OSS
   PPS   -16.49657293   -0.01372299
   OSS    -0.01372299  -16.37298077
--------------------------------------------------

----------------------------------------------------------------
 SSR: 2SI-2SA-REKS(2,2) states
                    E_n       C_{PPS}    C_{OSS}
 SSR state  1  -16.49807832  -0.994037  -0.109044
 SSR state  2  -16.37147538   0.109044  -0.994037
----------------------------------------------------------------

 unrelaxed SSR FONs for S0:  1.987965  0.012035

Total Energy:                      -16.4980783179 H         -448.9356 eV
Extrapolated to 0:                 -16.4980783179 H         -448.9356 eV

----------------------------------------------------------------------------------
 Solving CP-REKS equation for  1 state vector...
----------------------------------------------------------------------------------
  CG solver: Constructing Y initial guess
  CG solver: Iteration    1    eps =    0.002603569943
  CG solver: Iteration    2    eps =    0.000654661032
  CG solver: Iteration    3    eps =    0.000096469062
  CG solver: Iteration    4    eps =    0.000057905354
  CG solver: Iteration    5    eps =    0.000006370518
  CG solver: Iteration    6    eps =    0.000008394087
  CG solver: Iteration    7    eps =    0.000000954568
  CG solver: Iteration    8    eps =    0.000000164257
  CG solver: Iteration    9    eps =    0.000000025227
  CG solver: Iteration   10    eps =    0.000000000879
  Convergence reached in CG solver after   10 iterations
  CG solver: Calculating converged R, Z, Q2 matrix
----------------------------------------------------------------------------------

----------------------------------------------------------------------------------
 Solving CP-REKS equation for SI between  1 and  2 state vectors...
----------------------------------------------------------------------------------
  CG solver: Constructing Y initial guess
  CG solver: Iteration    1    eps =    0.048547313648
  CG solver: Iteration    2    eps =    0.012398057688
  CG solver: Iteration    3    eps =    0.006521326120
  CG solver: Iteration    4    eps =    0.000856655972
  CG solver: Iteration    5    eps =    0.000586603782
  CG solver: Iteration    6    eps =    0.000324845422
  CG solver: Iteration    7    eps =    0.000031410409
  CG solver: Iteration    8    eps =    0.000006025396
  CG solver: Iteration    9    eps =    0.000001995062
  CG solver: Iteration   10    eps =    0.000000078393
  CG solver: Iteration   11    eps =    0.000000011254
  CG solver: Iteration   12    eps =    0.000000001278
  Convergence reached in CG solver after   12 iterations
  CG solver: Calculating converged R, Z, Q2 matrix
----------------------------------------------------------------------------------

--------------------------------------------------
 Gradient Information
--------------------------------------------------
           1 st state (SSR)
     0.00549570     0.02711419     0.07086024
    -0.04602849    -0.03335352     0.01356983
     0.02374415    -0.01390518    -0.03684970
     0.01196858     0.00690414    -0.02151426
    -0.00398088    -0.01330299    -0.01465489
    -0.01054644     0.02597725    -0.04920220
     0.04359965    -0.00859224     0.01369747
     0.03448607     0.00012998    -0.01702321
     0.00956072     0.00853873    -0.00180463
    -0.16517788    -0.06271431     0.00019097
     0.00806974     0.02354569     0.03425652
     0.04005821     0.00732145    -0.02347558
     0.04736260    -0.00963233    -0.00966149
     0.00138827     0.04196914     0.04161093

           2 st state (SSR)
     0.03459154     0.03350415     0.06819916
    -0.08363234    -0.04198977     0.00460764
     0.02359651    -0.00784151    -0.03825135
     0.01306111    -0.00000558    -0.01866955
    -0.00485132    -0.00868974    -0.01590308
     0.06542948     0.06052500    -0.03163081
    -0.04817912    -0.03545778     0.02556072
     0.03676070    -0.00188643    -0.01555116
     0.00943589     0.01041205    -0.00282359
    -0.08488076    -0.03586218    -0.01016730
     0.00906402     0.02252086     0.03428367
    -0.01928919    -0.03015034    -0.02941399
     0.04668919    -0.00516905    -0.01469186
     0.00220430     0.04009031     0.04445150
--------------------------------------------------
 Coupling Information
--------------------------------------------------
 between  1 and  2 states
--------------------------------------------------
 g vector - difference gradient
    -0.01735427    -0.00417912     0.00262929
     0.02852045     0.00936625     0.00720979
     0.00031439    -0.00023037     0.00017952
    -0.00006518     0.00119427     0.00014773
    -0.00123212     0.00183933    -0.00037920
    -0.06059449    -0.03967408    -0.01625516
     0.07365491     0.02555489    -0.01059131
    -0.00150357     0.00275788    -0.00128946
    -0.00073706     0.00041574    -0.00038825
    -0.06071699    -0.02261962     0.01387754
    -0.00102275     0.00178313    -0.00111331
     0.03956185     0.02416229     0.00469441
     0.00172919    -0.00290512     0.00263143
    -0.00055436     0.00253454    -0.00135303

 h vector - derivative coupling
     0.01104139     0.00408121    -0.00570245
    -0.04170099    -0.02225854    -0.01179603
    -0.00107522    -0.01294786     0.00242436
    -0.00222629     0.01055865    -0.00722628
     0.00755595    -0.01892273     0.00458641
     0.09763239     0.09897559     0.03267201
    -0.11999713    -0.05311364     0.02033234
     0.00152451    -0.00776836     0.00241144
     0.00360698    -0.00619273     0.00409844
     0.08821757     0.03992674    -0.03860168
     0.00231233    -0.00566597     0.00495075
    -0.04127223    -0.02238031    -0.00744306
    -0.00623355     0.00278793    -0.00024756
     0.00061427    -0.00707997    -0.00045868

 G vector - GDV
    -0.01454792    -0.00319498     0.00133054
     0.01880193     0.00431812     0.00448110
     0.00007382    -0.00303184     0.00070082
    -0.00054626     0.00345486    -0.00142235
     0.00043522    -0.00230663     0.00062409
    -0.03798796    -0.01727388    -0.00878569
     0.04588938     0.01343277    -0.00593163
    -0.00113731     0.00100821    -0.00073603
     0.00006242    -0.00093666     0.00050948
    -0.04014856    -0.01342607     0.00517914
    -0.00049714     0.00051242    -0.00001357
     0.02967370     0.01873590     0.00296921
     0.00033671    -0.00223164     0.00251518
    -0.00040801     0.00093942    -0.00142029

 H vector - DCV - non-adiabatic coupling
     0.11485521     0.03862579    -0.04847308
    -0.37038770    -0.18767096    -0.10330326
    -0.00882919    -0.09944480     0.01838651
    -0.01705500     0.07937134    -0.05597386
     0.06037276    -0.14906025     0.03601450
     0.85658931     0.83112354     0.27976404
    -1.05140481    -0.45331116     0.17491598
     0.01432995    -0.06462325     0.02080230
     0.02907503    -0.04846324     0.03226735
     0.78420262     0.34660249    -0.32141568
     0.01958138    -0.04674288     0.04008095
    -0.38598830    -0.21394581    -0.06543094
    -0.05102705     0.02647193    -0.00641481
     0.00568580    -0.05893274    -0.00122000
--------------------------------------------------


--------------------------------------------------------------------------------
DFTB+ running times                          cpu [s]             wall clock [s]
--------------------------------------------------------------------------------
SCC                                    +     0.13  ( 30.1%)      0.14  ( 30.4%)
      Dense to sparse                        0.02  (  5.5%)      0.02  (  4.7%)
      Range separated Hamiltonian            0.01  (  2.7%)      0.02  (  3.3%)
  Density matrix creation                    0.01  (  3.2%)      0.01  (  2.7%)
Post-SCC processing                    +     0.31  ( 69.5%)      0.31  ( 68.5%)
  Force calculation                          0.31  ( 69.4%)      0.31  ( 68.3%)
--------------------------------------------------------------------------------
Missing                                +     0.00  (  0.4%)      0.00  (  1.1%)
Total                                  =     0.44  (100.0%)      0.45  (100.0%)
--------------------------------------------------------------------------------
