|===============================================================================
|
|  DFTB+ release 20.1
|
|  Copyright (C) 2006 - 2020  DFTB+ developers group
|
|===============================================================================
|
|  When publishing results obtained with DFTB+, please cite the following
|  reference:
|
|  * DFTB+, a software package for efficient approximate density functional
|    theory based atomistic simulations, J. Chem. Phys. 152, 124101 (2020).
|    [doi: 10.1063/1.5143190]
|
|  You should also cite additional publications crediting the parametrization
|  data you use. Please consult the documentation of the SK-files for the
|  references.
|
|===============================================================================

Reading input file 'dftb_in.hsd'
Parser version: 8

--------------------------------------------------------------------------------
Reading SK-files:
Done.


Processed input in HSD format written to 'dftb_pin.hsd'

Starting initialization...
--------------------------------------------------------------------------------
WARNING!
-> Excited state forces are not implemented yet for fractional occupations, kT=  0.3158E-02K
OpenMP threads:              1
Chosen random seed:          435692522
Mode:                        Static calculation
Self consistent charges:     Yes
SCC-tolerance:                 0.100000E-05
Max. scc iterations:                    100
Shell resolved Hubbard:      No
Spin polarisation:           No
Nr. of up electrons:             6.000000
Nr. of down electrons:           6.000000
Periodic boundaries:         No
Electronic solver:           Relatively robust
Mixer:                       Broyden mixer
Mixing parameter:                  0.200000
Maximal SCC-cycles:                     100
Nr. of chrg. vec. in memory:              0
Electronic temperature:        0.100000E-07 H      0.272114E-06 eV
Initial charges:             Set automatically (system chrg:   0.100E+01)
Included shells:             C:  s, p
                             N:  s, p
                             H:  s
Extra options:
                             Mulliken analysis
                             Force calculation
Force type                   original
                             Eigenvector printing

--------------------------------------------------------------------------------

***  Geometry step: 0

 iSCC Total electronic   Diff electronic      SCC error    
    1   -0.53540697E+01    0.00000000E+00    0.95438772E+00
    2   -0.53629702E+01   -0.89004441E-02    0.65294389E+00
    3   -0.53691004E+01   -0.61301875E-02    0.13518279E+00
    4   -0.53635569E+01    0.55435098E-02    0.31239981E+00
    5   -0.53700733E+01   -0.65164095E-02    0.19766888E-01
    6   -0.53700578E+01    0.15450032E-04    0.24709226E-01
    7   -0.53700837E+01   -0.25905369E-04    0.45976157E-02
    8   -0.53700843E+01   -0.57410726E-06    0.31011237E-02
    9   -0.53700848E+01   -0.46215884E-06    0.76795192E-04
   10   -0.53700848E+01   -0.96198605E-11    0.73696106E-04
   11   -0.53700848E+01   -0.28439828E-09    0.25377867E-05
   12   -0.53700848E+01   -0.32240877E-12    0.11631198E-08
>> Charges saved for restart in charges.bin

Total Energy:                       -5.0999565792 H         -138.7769 eV
Extrapolated to 0:                  -5.1844216343 H         -141.0753 eV
Total Mermin free energy:           -5.0999565792 H         -138.7769 eV
Force related energy:               -5.1844216343 H         -141.0753 eV

--------------------------------------------------------------------------------
DFTB+ running times                          cpu [s]             wall clock [s]
--------------------------------------------------------------------------------
SCC                                    +     0.01  ( 55.4%)      0.11  ( 82.4%)
Post-SCC processing                    +     0.01  ( 34.9%)      0.02  ( 13.0%)
--------------------------------------------------------------------------------
Missing                                +     0.00  (  9.7%)      0.01  (  4.6%)
Total                                  =     0.03  (100.0%)      0.13  (100.0%)
--------------------------------------------------------------------------------
