|===============================================================================
|
|  DFTB+ release 20.1
|
|  Copyright (C) 2006 - 2020  DFTB+ developers group
|
|===============================================================================
|
|  When publishing results obtained with DFTB+, please cite the following
|  reference:
|
|  * DFTB+, a software package for efficient approximate density functional
|    theory based atomistic simulations, J. Chem. Phys. 152, 124101 (2020).
|    [doi: 10.1063/1.5143190]
|
|  You should also cite additional publications crediting the parametrization
|  data you use. Please consult the documentation of the SK-files for the
|  references.
|
|===============================================================================

Reading input file 'dftb_in.hsd'
Parser version: 8

--------------------------------------------------------------------------------
Reading SK-files:
Done.


Processed input in HSD format written to 'dftb_pin.hsd'

Starting initialization...
--------------------------------------------------------------------------------
OpenMP threads:              1
Chosen random seed:          501131092
Mode:                        Static calculation
Self consistent charges:     Yes
SCC-tolerance:                 0.100000E-05
Max. scc iterations:                   1000
Shell resolved Hubbard:      No
Spin polarisation:           No
Nr. of up electrons:            16.000000
Nr. of down electrons:          16.000000
Periodic boundaries:         No
Electronic solver:           Relatively robust
Maximal SCC-cycles:                    1000
Initial charges:             Set automatically (system chrg:   0.100E+01)
Included shells:             C:  s, p
                             H:  s
                             N:  s, p
Spin coupling constants:     C   1(s)-1(s):  -0.455900E-01
                             C   1(s)-2(p):  -0.293000E-01
                             C   2(p)-1(s):  -0.293000E-01
                             C   2(p)-2(p):  -0.275500E-01
                             H   1(s)-1(s):  -0.792500E-01
                             N   1(s)-1(s):  -0.468700E-01
                             N   1(s)-2(p):  -0.317000E-01
                             N   2(p)-1(s):  -0.317000E-01
                             N   2(p)-2(p):  -0.307200E-01
Range separated hybrid:      Yes
  Screening parameter omega:   0.300000E+00
  Range separated algorithm:   MatrixBased
Extra options:
                             Mulliken analysis
                             Force calculation
Force type                   original
                             Eigenvector printing


REKS Calcuation:             Yes
SSR(2,2) Calcuation:         Yes
Energy Functional:           (PPS+OSS)/2
Number of Core Orbitals:                 15
Number of Active Orbitals:                2
Number of Basis:                         32
Number of States:                         2
State-Averaging Weight:          0.500000
                                 0.500000
State of Interest:                        1
Initial Guess:               Diagonalize H0 matrix
Newton-Raphson for FON opt:  Yes
NR max. Iterations:                      50
Level Shifting:              Yes
Shift Value:                     0.300000
W Scale Factor:              C  =    3.200000
                             H  =    3.200000
                             N  =    3.200000
Transition Dipole:           No
Gradient of Microstate:      No
CP-REKS Solver:              Preconditioned Conjugate-Gradient
CG max. Iterations:                     100
CG Tolerance:                  0.100000E-07
Memory for A and Hxc:        Direct Updating Without Saving
Non-Adiabatic Coupling:      Yes

--------------------------------------------------------------------------------

***  Geometry step: 0

  iSCC       reks energy        Diff energy         x_a       SCC error   
    1      -16.4268924391       0.0000000000     0.999203    1.24919976
    2      -16.4416307985      -0.0147383593     0.999891    0.03856140
    3      -16.4446404938      -0.0030096954     0.999962    0.01637388
    4      -16.4457862296      -0.0011457357     0.999981    0.00848088
    5      -16.4463107682      -0.0005245387     0.999988    0.00616507
    6      -16.4465702681      -0.0002594998     0.999992    0.00450100
    7      -16.4467054970      -0.0001352290     0.999994    0.00324754
    8      -16.4467794888      -0.0000739918     0.999995    0.00233470
    9      -16.4468221235      -0.0000426346     0.999995    0.00168101
   10      -16.4468480514      -0.0000259280     0.999996    0.00121647
   11      -16.4468646708      -0.0000166194     0.999996    0.00088698
   12      -16.4468758417      -0.0000111709     0.999996    0.00068214
   13      -16.4468836567      -0.0000078151     0.999997    0.00054519
   14      -16.4468893013      -0.0000056446     0.999997    0.00044210
   15      -16.4468934792      -0.0000041779     0.999997    0.00036342
   16      -16.4468966288      -0.0000031496     0.999997    0.00030391
   17      -16.4468990356      -0.0000024068     0.999997    0.00025713
   18      -16.4469008935      -0.0000018579     0.999997    0.00023397
   19      -16.4469023384      -0.0000014449     0.999997    0.00021507
   20      -16.4469034684      -0.0000011300     0.999997    0.00019664
   21      -16.4469043560      -0.0000008876     0.999997    0.00017907
   22      -16.4469050554      -0.0000006994     0.999997    0.00016255
   23      -16.4469056080      -0.0000005526     0.999997    0.00014721
   24      -16.4469060455      -0.0000004375     0.999997    0.00013332
   25      -16.4469063925      -0.0000003469     0.999997    0.00012114
   26      -16.4469066680      -0.0000002755     0.999997    0.00010989
   27      -16.4469068870      -0.0000002191     0.999997    0.00009956
   28      -16.4469070614      -0.0000001744     0.999997    0.00009010
   29      -16.4469072003      -0.0000001389     0.999997    0.00008147
   30      -16.4469073110      -0.0000001107     0.999997    0.00007362
   31      -16.4469073994      -0.0000000884     0.999997    0.00006650
   32      -16.4469074700      -0.0000000706     0.999997    0.00006004
   33      -16.4469075263      -0.0000000564     0.999997    0.00005420
   34      -16.4469075714      -0.0000000451     0.999997    0.00004892
   35      -16.4469076075      -0.0000000361     0.999997    0.00004414
   36      -16.4469076364      -0.0000000289     0.999997    0.00003983
   37      -16.4469076595      -0.0000000231     0.999997    0.00003594
   38      -16.4469076781      -0.0000000186     0.999997    0.00003244
   39      -16.4469076930      -0.0000000149     0.999997    0.00002927
   40      -16.4469077050      -0.0000000120     0.999997    0.00002642
   41      -16.4469077146      -0.0000000096     0.999997    0.00002385
   42      -16.4469077223      -0.0000000077     0.999997    0.00002153
   43      -16.4469077286      -0.0000000062     0.999997    0.00001944
   44      -16.4469077336      -0.0000000050     0.999997    0.00001756
   45      -16.4469077376      -0.0000000041     0.999997    0.00001586
   46      -16.4469077409      -0.0000000033     0.999997    0.00001433
   47      -16.4469077435      -0.0000000026     0.999997    0.00001295
   48      -16.4469077457      -0.0000000021     0.999997    0.00001170
   49      -16.4469077474      -0.0000000017     0.999997    0.00001058
   50      -16.4469077488      -0.0000000014     0.999997    0.00000957
   51      -16.4469077500      -0.0000000011     0.999997    0.00000866
   52      -16.4469077509      -0.0000000009     0.999997    0.00000783
   53      -16.4469077516      -0.0000000008     0.999997    0.00000709
   54      -16.4469077522      -0.0000000006     0.999997    0.00000642
   55      -16.4469077527      -0.0000000005     0.999997    0.00000581
   56      -16.4469077532      -0.0000000004     0.999997    0.00000526
   57      -16.4469077535      -0.0000000003     0.999997    0.00000477
   58      -16.4469077538      -0.0000000003     0.999997    0.00000432
   59      -16.4469077540      -0.0000000002     0.999997    0.00000392
   60      -16.4469077542      -0.0000000002     0.999997    0.00000356
   61      -16.4469077543      -0.0000000002     0.999997    0.00000323
   62      -16.4469077545      -0.0000000001     0.999997    0.00000293
   63      -16.4469077546      -0.0000000001     0.999997    0.00000266
   64      -16.4469077546      -0.0000000001     0.999997    0.00000241
   65      -16.4469077547      -0.0000000001     0.999997    0.00000219
   66      -16.4469077548      -0.0000000001     0.999997    0.00000199
   67      -16.4469077548      -0.0000000000     0.999997    0.00000181
   68      -16.4469077549      -0.0000000000     0.999997    0.00000165
   69      -16.4469077549      -0.0000000000     0.999997    0.00000150
   70      -16.4469077549      -0.0000000000     0.999997    0.00000136
   71      -16.4469077549      -0.0000000000     0.999997    0.00000124
   72      -16.4469077550      -0.0000000000     0.999997    0.00000113
   73      -16.4469077550      -0.0000000000     0.999997    0.00000103
   74      -16.4469077550      -0.0000000000     0.999997    0.00000094
  
--------------------------------------------------
 Final SA-REKS(2,2) energy:     -16.44690775
  
 State     Energy      FON(1)    FON(2)   Spin
  PPS  -16.51552792   1.999995  0.000005  0.00
  OSS  -16.37828759   1.000000  1.000000  0.00
 Trip  -16.41579932   1.000000  1.000000  1.00
--------------------------------------------------

 Lagrangian Wab:   0.00100714  0.00100756

--------------------------------------------------
 SSR: 2SI-2SA-REKS(2,2) Hamiltonian matrix
               PPS           OSS
   PPS   -16.51552792    0.00142204
   OSS     0.00142204  -16.37828759
--------------------------------------------------

----------------------------------------------------------------
 SSR: 2SI-2SA-REKS(2,2) states
                    E_n       C_{PPS}    C_{OSS}
 SSR state  1  -16.51554265  -0.999946   0.010360
 SSR state  2  -16.37827286  -0.010360  -0.999946
----------------------------------------------------------------

 unrelaxed SSR FONs for S0:  1.999888  0.000112

Total Energy:                      -16.5155426534 H         -449.4108 eV
Extrapolated to 0:                 -16.5155426534 H         -449.4108 eV

----------------------------------------------------------------------------------
 Solving CP-REKS equation for  1 state vector...
----------------------------------------------------------------------------------
  CG solver: Constructing Y initial guess
  CG solver: Iteration    1    eps =    0.000332132399
  CG solver: Iteration    2    eps =    0.000150838296
  CG solver: Iteration    3    eps =    0.000026161958
  CG solver: Iteration    4    eps =    0.000012172713
  CG solver: Iteration    5    eps =    0.000001095604
  CG solver: Iteration    6    eps =    0.000000438139
  CG solver: Iteration    7    eps =    0.000000159635
  CG solver: Iteration    8    eps =    0.000000030157
  CG solver: Iteration    9    eps =    0.000000020198
  CG solver: Iteration   10    eps =    0.000000001730
  Convergence reached in CG solver after   10 iterations
  CG solver: Calculating converged R, Z, Q2 matrix
----------------------------------------------------------------------------------

----------------------------------------------------------------------------------
 Solving CP-REKS equation for SI between  1 and  2 state vectors...
----------------------------------------------------------------------------------
  CG solver: Constructing Y initial guess
  CG solver: Iteration    1    eps =    0.056359981251
  CG solver: Iteration    2    eps =    0.002628819092
  CG solver: Iteration    3    eps =    0.000866125114
  CG solver: Iteration    4    eps =    0.001203244203
  CG solver: Iteration    5    eps =    0.000099928183
  CG solver: Iteration    6    eps =    0.000030451823
  CG solver: Iteration    7    eps =    0.000014012835
  CG solver: Iteration    8    eps =    0.000002927808
  CG solver: Iteration    9    eps =    0.000000480605
  CG solver: Iteration   10    eps =    0.000000070289
  CG solver: Iteration   11    eps =    0.000000007211
  Convergence reached in CG solver after   11 iterations
  CG solver: Calculating converged R, Z, Q2 matrix
----------------------------------------------------------------------------------

--------------------------------------------------
 Gradient Information
--------------------------------------------------
           1 st state (SSR)
     0.02638774    -0.04419302    -0.00818672
     0.00832932    -0.01003147     0.01275248
    -0.01928261     0.02355014    -0.01285013
     0.00472577     0.00500820     0.01424879
    -0.00849848     0.02162535    -0.00506722
     0.05014780     0.04574202     0.00424198
     0.00915108    -0.07820357     0.04295753
    -0.02104632     0.00083603    -0.01531347
    -0.01778164     0.03870213    -0.01624221
    -0.01751293    -0.03908011     0.02513667
    -0.01767423     0.03228192    -0.06317808
     0.00616062     0.02257524     0.01063229
     0.00704141    -0.00987453     0.00345227
    -0.01014751    -0.00893834     0.00741583

           2 st state (SSR)
     0.04648407     0.01140573     0.00238861
    -0.03263031    -0.05739282     0.01790742
    -0.01488201     0.02206246    -0.01685067
     0.00520315     0.00876608     0.01619521
    -0.00121255     0.01916240    -0.00845488
     0.08170616     0.04952238    -0.03250168
    -0.01425827    -0.09402935     0.06121027
    -0.02053826     0.00159691    -0.01392210
    -0.01637501     0.03670813    -0.01744531
     0.01665273     0.01674444    -0.00224072
    -0.01411881     0.02927839    -0.06355839
    -0.03259829    -0.03291218     0.04608440
     0.00937887    -0.00551039     0.00573710
    -0.01281146    -0.00540218     0.00545075
--------------------------------------------------
 Coupling Information
--------------------------------------------------
 between  1 and  2 states
--------------------------------------------------
 g vector - difference gradient
    -0.01026132    -0.02859278    -0.00551605
     0.02091087     0.02439839    -0.00254235
    -0.00230836     0.00079232     0.00207990
    -0.00023147    -0.00192632    -0.00099722
    -0.00381958     0.00129738     0.00179524
    -0.01498917    -0.00123260     0.01827087
     0.01090206     0.00751650    -0.00892292
    -0.00023702    -0.00048842    -0.00078042
    -0.00064462     0.00081811     0.00046343
    -0.01715786    -0.02798502     0.01395370
    -0.00177298     0.00149803     0.00016632
     0.01947494     0.02786317    -0.01782432
    -0.00119491    -0.00221281    -0.00116399
     0.00132943    -0.00174595     0.00101780

 h vector - derivative coupling
    -0.01018161    -0.03799746    -0.01096584
     0.02058845     0.03438760     0.00172119
    -0.00519143     0.00233148     0.00382179
     0.00035064    -0.00226693    -0.00114824
    -0.00848503     0.00316751     0.00487610
     0.03828498     0.03175092    -0.00506206
    -0.03885104    -0.01920956     0.00991217
     0.00082341    -0.00520669    -0.00408178
     0.00283966    -0.00864234    -0.00667097
    -0.00344371    -0.00322107     0.01264589
     0.00024656    -0.00019573    -0.00115219
     0.00440692     0.00547692    -0.00455793
    -0.00125108    -0.00146082    -0.00102914
    -0.00013672     0.00108618     0.00169100

 G vector - GDV
    -0.01004817    -0.02779937    -0.00528766
     0.02047981     0.02368067    -0.00257747
    -0.00220030     0.00074384     0.00200027
    -0.00023869    -0.00187894    -0.00097321
    -0.00364296     0.00123147     0.00169383
    -0.01577918    -0.00189018     0.01837183
     0.01170467     0.00791289    -0.00912637
    -0.00025403    -0.00038044    -0.00069568
    -0.00070332     0.00099700     0.00060155
    -0.01708283    -0.02791227     0.01368870
    -0.00177771     0.00150176     0.00019015
     0.01937945     0.02774371    -0.01772605
    -0.00116873    -0.00218207    -0.00114241
     0.00133197    -0.00176808     0.00098254

 H vector - DCV - non-adiabatic coupling
    -0.07570512    -0.28106488    -0.08070076
     0.15310931     0.25413985     0.01215232
    -0.03815947     0.01710059     0.02814938
     0.00251892    -0.01680160    -0.00851355
    -0.06237607     0.02326596     0.03578534
     0.27658086     0.23106736    -0.03411107
    -0.28132056    -0.13877565     0.07084713
     0.00596141    -0.03799595    -0.02984690
     0.02058499    -0.06282180    -0.04851710
    -0.02767150    -0.02768417     0.09421067
     0.00152819    -0.00119946    -0.00836668
     0.03503663     0.04409597    -0.03588735
    -0.00929244    -0.01097370    -0.00767125
    -0.00079514     0.00764748     0.01246981
--------------------------------------------------


--------------------------------------------------------------------------------
DFTB+ running times                          cpu [s]             wall clock [s]
--------------------------------------------------------------------------------
SCC                                    +     0.11  ( 25.5%)      0.11  ( 25.5%)
      Dense to sparse                        0.02  (  4.9%)      0.02  (  3.8%)
  Density matrix creation                    0.01  (  2.8%)      0.01  (  2.4%)
Post-SCC processing                    +     0.31  ( 74.1%)      0.31  ( 73.3%)
  Force calculation                          0.30  ( 74.0%)      0.31  ( 73.1%)
--------------------------------------------------------------------------------
Missing                                +     0.00  (  0.4%)      0.00  (  1.2%)
Total                                  =     0.41  (100.0%)      0.42  (100.0%)
--------------------------------------------------------------------------------
