 Fermi distribution function

Calculation with static geometry


********************************************************************************
 iSCC Total electronic   Diff electronic      SCC error    
   14   -0.52447693E+01   -0.17994495E-11    0.31091055E-07
********************************************************************************

 Total charge:     1.00000000

 Atomic gross charges (e)
 Atom           Charge
    1       0.30822375
    2      -0.19310682
    3       0.18666234
    4       0.26036110
    5       0.25462463
    6       0.18323500

Nr. of electrons (up):     12.00000000
Atom populations (up)
 Atom       Population
    1       3.69177625
    2       5.19310682
    3       0.81333766
    4       0.73963890
    5       0.74537537
    6       0.81676500

l-shell populations (up)
 Atom Sh.   l       Population
    1   1   0       1.42864478
    1   2   1       2.26313148
    2   1   0       1.54350554
    2   2   1       3.64960127
    3   1   0       0.81333766
    4   1   0       0.73963890
    5   1   0       0.74537537
    6   1   0       0.81676500

Orbital populations (up)
 Atom Sh.   l   m       Population  Label
    1   1   0   0       1.42864478  s
    1   2   1  -1       0.38730883  p_y
    1   2   1   0       0.86558072  p_z
    1   2   1   1       1.01024193  p_x
    2   1   0   0       1.54350554  s
    2   2   1  -1       1.41090552  p_y
    2   2   1   0       1.06227147  p_z
    2   2   1   1       1.17642429  p_x
    3   1   0   0       0.81333766  s
    4   1   0   0       0.73963890  s
    5   1   0   0       0.74537537  s
    6   1   0   0       0.81676500  s

Fermi level:                        -0.5206044187 H          -14.1664 eV
Band energy:                        -8.6129082534 H         -234.3692 eV
TS:                                  0.0000000000 H            0.0000 eV
Band free energy (E-TS):            -8.6129082534 H         -234.3692 eV
Extrapolated E(0K):                 -8.6129082534 H         -234.3692 eV
Input / Output electrons (q):     12.0000000000     12.0000000000

Energy H0:                          -5.3812145820 H         -146.4303 eV
Energy SCC:                          0.1364453300 H            3.7129 eV
Total Electronic energy:            -5.2447692520 H         -142.7174 eV
Repulsive energy:                    0.1279158386 H            3.4808 eV
Total energy:                       -5.1168534134 H         -139.2367 eV
Extrapolated to 0:                  -5.1168534134 H         -139.2367 eV
Total Mermin free energy:           -5.1168534134 H         -139.2367 eV
Force related energy:               -5.1168534134 H         -139.2367 eV

SCC converged

Excitation Energy:                   0.0933048977 H            2.5390 eV

Total Forces
    1     -0.003820088106      0.005252132316      0.013758360095
    2     -0.015657197129      0.012126895075     -0.014876551276
    3      0.002253290237     -0.006725371444     -0.002932432185
    4      0.005441842122      0.004500152569      0.000399125697
    5      0.006285253956     -0.014368381153     -0.000377963192
    6      0.005496898921     -0.000785427362      0.004029460861

Maximal derivative component:        0.156572E-01 au


