|===============================================================================
|
|  DFTB+ release 20.1
|
|  Copyright (C) 2006 - 2020  DFTB+ developers group
|
|===============================================================================
|
|  When publishing results obtained with DFTB+, please cite the following
|  reference:
|
|  * DFTB+, a software package for efficient approximate density functional
|    theory based atomistic simulations, J. Chem. Phys. 152, 124101 (2020).
|    [doi: 10.1063/1.5143190]
|
|  You should also cite additional publications crediting the parametrization
|  data you use. Please consult the documentation of the SK-files for the
|  references.
|
|===============================================================================

Reading input file 'dftb_in.hsd'
Parser version: 8

--------------------------------------------------------------------------------
Reading SK-files:
Done.


Processed input in HSD format written to 'dftb_pin.hsd'

Starting initialization...
--------------------------------------------------------------------------------
WARNING!
-> Excited state forces are not implemented yet for fractional occupations, kT=  0.3158E-02K
OpenMP threads:              1
Chosen random seed:          505836882
Mode:                        Static calculation
Self consistent charges:     Yes
SCC-tolerance:                 0.100000E-05
Max. scc iterations:                    100
Shell resolved Hubbard:      No
Spin polarisation:           No
Nr. of up electrons:             6.000000
Nr. of down electrons:           6.000000
Periodic boundaries:         No
Electronic solver:           Relatively robust
Mixer:                       Broyden mixer
Mixing parameter:                  0.200000
Maximal SCC-cycles:                     100
Nr. of chrg. vec. in memory:              0
Electronic temperature:        0.100000E-07 H      0.272114E-06 eV
Initial charges:             Set automatically (system chrg:   0.100E+01)
Included shells:             C:  s, p
                             N:  s, p
                             H:  s
Extra options:
                             Mulliken analysis
                             Force calculation
Force type                   original
                             Eigenvector printing

--------------------------------------------------------------------------------

***  Geometry step: 0

 iSCC Total electronic   Diff electronic      SCC error    
    1   -0.53989212E+01    0.00000000E+00    0.70757438E+00
    2   -0.54032702E+01   -0.43490076E-02    0.48345150E+00
    3   -0.54063540E+01   -0.30838298E-02    0.73720294E-01
    4   -0.54066271E+01   -0.27309039E-03    0.36416505E-01
    5   -0.54066655E+01   -0.38356269E-04    0.95630642E-02
    6   -0.54066661E+01   -0.66857080E-06    0.11340950E-02
    7   -0.54066662E+01   -0.20278479E-07    0.12459396E-03
    8   -0.54066662E+01   -0.61082606E-09    0.26953138E-04
    9   -0.54066662E+01   -0.27592151E-10    0.35151315E-05
   10   -0.54066662E+01   -0.37925219E-12    0.34766992E-06
>> Charges saved for restart in charges.bin

Total Energy:                       -5.0930104850 H         -138.5879 eV
Extrapolated to 0:                  -5.2070217263 H         -141.6903 eV
Total Mermin free energy:           -5.0930104850 H         -138.5879 eV
Force related energy:               -5.2070217263 H         -141.6903 eV

--------------------------------------------------------------------------------
DFTB+ running times                          cpu [s]             wall clock [s]
--------------------------------------------------------------------------------
SCC                                    +     0.01  ( 42.3%)      0.06  ( 73.1%)
Post-SCC processing                    +     0.01  ( 50.7%)      0.01  ( 19.2%)
--------------------------------------------------------------------------------
Missing                                +     0.00  (  7.0%)      0.01  (  7.7%)
Total                                  =     0.02  (100.0%)      0.08  (100.0%)
--------------------------------------------------------------------------------
