|===============================================================================
|
|  DFTB+ release 20.1
|
|  Copyright (C) 2006 - 2020  DFTB+ developers group
|
|===============================================================================
|
|  When publishing results obtained with DFTB+, please cite the following
|  reference:
|
|  * DFTB+, a software package for efficient approximate density functional
|    theory based atomistic simulations, J. Chem. Phys. 152, 124101 (2020).
|    [doi: 10.1063/1.5143190]
|
|  You should also cite additional publications crediting the parametrization
|  data you use. Please consult the documentation of the SK-files for the
|  references.
|
|===============================================================================

Reading input file 'dftb_in.hsd'
Parser version: 8

--------------------------------------------------------------------------------
Reading SK-files:
Done.


Processed input in HSD format written to 'dftb_pin.hsd'

Starting initialization...
--------------------------------------------------------------------------------
WARNING!
-> Excited state forces are not implemented yet for fractional occupations, kT=  0.3158E-02K
OpenMP threads:              1
Chosen random seed:          509072483
Mode:                        Static calculation
Self consistent charges:     Yes
SCC-tolerance:                 0.100000E-05
Max. scc iterations:                    100
Shell resolved Hubbard:      No
Spin polarisation:           No
Nr. of up electrons:             6.000000
Nr. of down electrons:           6.000000
Periodic boundaries:         No
Electronic solver:           Relatively robust
Mixer:                       Broyden mixer
Mixing parameter:                  0.200000
Maximal SCC-cycles:                     100
Nr. of chrg. vec. in memory:              0
Electronic temperature:        0.100000E-07 H      0.272114E-06 eV
Initial charges:             Set automatically (system chrg:   0.100E+01)
Included shells:             C:  s, p
                             N:  s, p
                             H:  s
Extra options:
                             Mulliken analysis
                             Force calculation
Force type                   original
                             Eigenvector printing

--------------------------------------------------------------------------------

***  Geometry step: 0

 iSCC Total electronic   Diff electronic      SCC error    
    1   -0.52324282E+01    0.00000000E+00    0.11247897E+01
    2   -0.52614167E+01   -0.28988436E-01    0.68081243E+00
    3   -0.52693961E+01   -0.79794211E-02    0.32748864E+00
    4   -0.47685985E+01    0.50079761E+00    0.22797285E+01
    5   -0.52712922E+01   -0.50269370E+00    0.19942402E+00
    6   -0.52754851E+01   -0.41929160E-02    0.20429661E-01
    7   -0.52754802E+01    0.48448165E-05    0.20830984E-01
    8   -0.52755093E+01   -0.29100104E-04    0.38358281E-03
    9   -0.52755086E+01    0.69806673E-06    0.28131326E-02
   10   -0.52755092E+01   -0.55443048E-06    0.12398263E-02
   11   -0.52755093E+01   -0.14566562E-06    0.15214201E-03
   12   -0.52755093E+01   -0.21082300E-08    0.18033606E-04
   13   -0.52755093E+01   -0.30103031E-10    0.17602085E-06
>> Charges saved for restart in charges.bin

Total Energy:                       -5.0355655585 H         -137.0247 eV
Extrapolated to 0:                  -5.1396382081 H         -139.8567 eV
Total Mermin free energy:           -5.0355655585 H         -137.0247 eV
Force related energy:               -5.1396382081 H         -139.8567 eV

--------------------------------------------------------------------------------
DFTB+ running times                          cpu [s]             wall clock [s]
--------------------------------------------------------------------------------
SCC                                    +     0.01  ( 51.6%)      0.04  ( 63.2%)
Post-SCC processing                    +     0.01  ( 41.7%)      0.02  ( 29.4%)
--------------------------------------------------------------------------------
Missing                                +     0.00  (  6.7%)      0.01  (  7.4%)
Total                                  =     0.03  (100.0%)      0.07  (100.0%)
--------------------------------------------------------------------------------
