 Fermi distribution function

Calculation with static geometry


********************************************************************************
 iSCC Total electronic   Diff electronic      SCC error    
   11   -0.53552421E+01   -0.29665159E-12    0.69498660E-07
********************************************************************************

 Total charge:     1.00000000

 Atomic gross charges (e)
 Atom           Charge
    1       0.24212539
    2      -0.13705894
    3       0.17653709
    4       0.27054751
    5       0.26516396
    6       0.18268500

Nr. of electrons (up):     12.00000000
Atom populations (up)
 Atom       Population
    1       3.75787461
    2       5.13705894
    3       0.82346291
    4       0.72945249
    5       0.73483604
    6       0.81731500

l-shell populations (up)
 Atom Sh.   l       Population
    1   1   0       1.36248682
    1   2   1       2.39538779
    2   1   0       1.47921687
    2   2   1       3.65784207
    3   1   0       0.82346291
    4   1   0       0.72945249
    5   1   0       0.73483604
    6   1   0       0.81731500

Orbital populations (up)
 Atom Sh.   l   m       Population  Label
    1   1   0   0       1.36248682  s
    1   2   1  -1       0.51568289  p_y
    1   2   1   0       0.87172445  p_z
    1   2   1   1       1.00798045  p_x
    2   1   0   0       1.47921687  s
    2   2   1  -1       1.37462834  p_y
    2   2   1   0       1.12611562  p_z
    2   2   1   1       1.15709810  p_x
    3   1   0   0       0.82346291  s
    4   1   0   0       0.72945249  s
    5   1   0   0       0.73483604  s
    6   1   0   0       0.81731500  s

Fermi level:                        -0.5139676087 H          -13.9858 eV
Band energy:                        -8.8166479163 H         -239.9132 eV
TS:                                  0.0000000000 H            0.0000 eV
Band free energy (E-TS):            -8.8166479163 H         -239.9132 eV
Extrapolated E(0K):                 -8.8166479163 H         -239.9132 eV
Input / Output electrons (q):     12.0000000000     12.0000000000

Energy H0:                          -5.4893698164 H         -149.3734 eV
Energy SCC:                          0.1341276767 H            3.6498 eV
Total Electronic energy:            -5.3552421397 H         -145.7236 eV
Repulsive energy:                    0.1578702127 H            4.2959 eV
Total energy:                       -5.1973719270 H         -141.4277 eV
Extrapolated to 0:                  -5.1973719270 H         -141.4277 eV
Total Mermin free energy:           -5.1973719270 H         -141.4277 eV
Force related energy:               -5.1973719270 H         -141.4277 eV

SCC converged

Excitation Energy:                   0.1753700287 H            4.7721 eV

Total Forces
    1     -0.004899820660      0.008822218652      0.008870203692
    2      0.024583248046      0.000121489935      0.005912879329
    3     -0.000933681060     -0.007821068531     -0.005023193037
    4     -0.017547198524      0.008955472514     -0.005649992405
    5     -0.004347121754     -0.008646932590      0.001611271807
    6      0.003144573951     -0.001431179980     -0.005721169386

Maximal derivative component:        0.245832E-01 au


