 Fermi distribution function

Calculation with static geometry


********************************************************************************
 iSCC Total electronic   Diff electronic      SCC error    
   11   -0.53912001E+01   -0.67235106E-12    0.20990955E-07
********************************************************************************

 Total charge:     1.00000000

 Atomic gross charges (e)
 Atom           Charge
    1       0.25336872
    2      -0.15267647
    3       0.14199819
    4       0.30131384
    5       0.27699765
    6       0.17899806

Nr. of electrons (up):     12.00000000
Atom populations (up)
 Atom       Population
    1       3.74663128
    2       5.15267647
    3       0.85800181
    4       0.69868616
    5       0.72300235
    6       0.82100194

l-shell populations (up)
 Atom Sh.   l       Population
    1   1   0       1.30828851
    1   2   1       2.43834277
    2   1   0       1.41377942
    2   2   1       3.73889705
    3   1   0       0.85800181
    4   1   0       0.69868616
    5   1   0       0.72300235
    6   1   0       0.82100194

Orbital populations (up)
 Atom Sh.   l   m       Population  Label
    1   1   0   0       1.30828851  s
    1   2   1  -1       0.57661077  p_y
    1   2   1   0       0.89211492  p_z
    1   2   1   1       0.96961708  p_x
    2   1   0   0       1.41377942  s
    2   2   1  -1       1.36635527  p_y
    2   2   1   0       1.08513158  p_z
    2   2   1   1       1.28741020  p_x
    3   1   0   0       0.85800181  s
    4   1   0   0       0.69868616  s
    5   1   0   0       0.72300235  s
    6   1   0   0       0.82100194  s

Fermi level:                        -0.4875162454 H          -13.2660 eV
Band energy:                        -8.8640868837 H         -241.2041 eV
TS:                                  0.0000000000 H            0.0000 eV
Band free energy (E-TS):            -8.8640868837 H         -241.2041 eV
Extrapolated E(0K):                 -8.8640868837 H         -241.2041 eV
Input / Output electrons (q):     12.0000000000     12.0000000000

Energy H0:                          -5.5236337816 H         -150.3057 eV
Energy SCC:                          0.1324337315 H            3.6037 eV
Total Electronic energy:            -5.3912000501 H         -146.7020 eV
Repulsive energy:                    0.1911869401 H            5.2025 eV
Total energy:                       -5.2000131100 H         -141.4996 eV
Extrapolated to 0:                  -5.2000131100 H         -141.4996 eV
Total Mermin free energy:           -5.2000131100 H         -141.4996 eV
Force related energy:               -5.2000131100 H         -141.4996 eV

SCC converged

Excitation Energy:                   0.1001984584 H            2.7265 eV

Total Forces
    1     -0.003204841450      0.012694422414      0.022914866227
    2      0.000307931186      0.000815372970     -0.032607857653
    3     -0.007109141035     -0.012106435314      0.002632396088
    4     -0.011153664466      0.007095989688     -0.000391662702
    5      0.009400906667     -0.010725561282      0.004552884029
    6      0.011758809098      0.002226211525      0.002899374011

Maximal derivative component:        0.326079E-01 au


