     6
  Step:     0            Position(A)                                  Velocity(au)
C        -0.03119713     0.03163272     0.03831458     0.00003655     0.00004812     0.00004406
N        -0.05137275    -0.07355036     1.27739835    -0.00009653    -0.00000085    -0.00010743
H         0.91045671    -0.06448730    -0.54131356    -0.00055592    -0.00012099     0.00074347
H         0.86002583    -0.02668006     1.91032234     0.00044478    -0.00009202     0.00058042
H        -0.87721394     0.01495516     1.83497406     0.00114418    -0.00001635     0.00013770
H        -1.02056547     0.05157907    -0.51967668    -0.00012718    -0.00033230    -0.00049372
     6
  Step:     1            Position(A)                                  Velocity(au)
C        -0.03099722     0.03192954     0.03829452     0.00003610     0.00006055    -0.00005133
N        -0.05183963    -0.07358721     1.27706164    -0.00007344    -0.00001273    -0.00001583
H         0.90739642    -0.06519011    -0.53740420    -0.00055739    -0.00013670     0.00068199
H         0.86188084    -0.02715099     1.91308017     0.00023094    -0.00008041     0.00042489
H        -0.87132370     0.01493664     1.83601894     0.00099997     0.00001084     0.00025118
H        -1.02114473     0.04974606    -0.52247065    -0.00008316    -0.00033839    -0.00052639
     6
  Step:     2            Position(A)                                  Velocity(au)
C        -0.03080237     0.03229491     0.03775328     0.00003469     0.00007321    -0.00014605
N        -0.05217586    -0.07368962     1.27722519    -0.00004903    -0.00002480     0.00007507
H         0.90436128    -0.06598224    -0.53385552    -0.00054687    -0.00015386     0.00061205
H         0.86255137    -0.02755940     1.91496878     0.00001345    -0.00006917     0.00026427
H        -0.86627853     0.01507370     1.83772086     0.00083781     0.00004041     0.00037706
H        -1.02147492     0.04787856    -0.52543311    -0.00003648    -0.00034524    -0.00055613
     6
  Step:     3            Position(A)                                  Velocity(au)
C        -0.03061803     0.03272978     0.03669812     0.00003224     0.00008601    -0.00023899
N        -0.05237552    -0.07385829     1.27788213    -0.00002374    -0.00003695     0.00016436
H         0.90141900    -0.06687179    -0.53071438    -0.00052363    -0.00017255     0.00053334
H         0.86202781    -0.02790705     1.91596871    -0.00020442    -0.00005818     0.00010124
H        -0.86216627     0.01537836     1.84014030     0.00066144     0.00007202     0.00051261
H        -1.02154346     0.04597256    -0.52854928     0.00001224    -0.00035279    -0.00058343
     6
  Step:     4            Position(A)                                  Velocity(au)
C        -0.03045012     0.03323461     0.03514239     0.00002867     0.00009885    -0.00032897
N        -0.05243520    -0.07409334     1.27902081     0.00000195    -0.00004908     0.00025116
H         0.89864070    -0.06786736    -0.52802889    -0.00048705    -0.00019284     0.00044563
H         0.86031812    -0.02819503     1.91607480    -0.00041934    -0.00004731    -0.00006157
H        -0.85905234     0.01586050     1.84332103     0.00047516     0.00010521     0.00065440
H        -1.02134115     0.04402437    -0.53180702     0.00006239    -0.00036093    -0.00060865
     6
  Step:     5            Position(A)                                  Velocity(au)
C        -0.03030491     0.03380928     0.03310551     0.00002392     0.00011158    -0.00041482
N        -0.05235419    -0.07439432     1.28062500     0.00002751    -0.00006107     0.00033455
H         0.89610001    -0.06897774    -0.52584773    -0.00043679    -0.00021469     0.00034894
H         0.85744832    -0.02842372     1.91529633    -0.00062768    -0.00003641    -0.00022132
H        -0.85697719     0.01652737     1.84728684     0.00028376     0.00013944     0.00079839
H        -1.02086210     0.04203097    -0.53519626     0.00011332    -0.00036945    -0.00063205
     6
  Step:     6            Position(A)                                  Velocity(au)
C        -0.03018894     0.03445298     0.03061307     0.00001796     0.00012406    -0.00049527
N        -0.05213479    -0.07476011     1.28267370     0.00005233    -0.00007275     0.00041353
H         0.89387148    -0.07021157    -0.52421891    -0.00037285    -0.00023801     0.00024358
H         0.85346460    -0.02859262     1.91365829    -0.00082524    -0.00002533    -0.00037479
H        -0.85595404     0.01738307     1.85203859     0.00009250     0.00017405     0.00094002
H        -1.02010388     0.03999039    -0.53870829     0.00016431    -0.00037810    -0.00065374
     6
  Step:     7            Position(A)                                  Velocity(au)
C        -0.03010880     0.03516403     0.02769713     0.00001081     0.00013609    -0.00056904
N        -0.05178270    -0.07518879     1.28514079     0.00007574    -0.00008398     0.00048703
H         0.89202848    -0.07157677    -0.52318787    -0.00029576    -0.00026256     0.00013033
H         0.84843670    -0.02870030     1.91120367    -0.00100709    -0.00001387    -0.00051826
H        -0.85596710     0.01842796     1.85755184    -0.00009306     0.00020825     0.00107432
H        -1.01906787     0.03790211    -0.54233507     0.00021457    -0.00038655    -0.00067371
     6
  Step:     8            Position(A)                                  Velocity(au)
C        -0.03007082     0.03593975     0.02439642     0.00000256     0.00014745    -0.00063478
N        -0.05130737    -0.07567757     1.28799449     0.00009698    -0.00009456     0.00055387
H         0.89064035    -0.07307998    -0.52279510    -0.00020666    -0.00028800     0.00001050
H         0.84246226    -0.02874414     1.90799637    -0.00116751    -0.00000183    -0.00064748
H        -0.85697065     0.01965817     1.86377536    -0.00026725     0.00024119     0.00119618
H        -1.01775977     0.03576741    -0.54606854     0.00026319    -0.00039440    -0.00069186
     6
  Step:     9            Position(A)                                  Velocity(au)
C        -0.03008077     0.03677629     0.02075638    -0.00000663     0.00015791    -0.00069122
N        -0.05072231    -0.07622275     1.29119683     0.00011529    -0.00010431     0.00061280
H         0.88976885    -0.07472582    -0.52307306    -0.00010744    -0.00031387    -0.00011398
H         0.83567101    -0.02872027     1.90412405    -0.00130017     0.00001103    -0.00075777
H        -0.85888926     0.02106520     1.87063098    -0.00042462     0.00027198     0.00130067
H        -1.01619011     0.03358967    -0.54989996     0.00030919    -0.00040125    -0.00070798
     6
  Step:    10            Position(A)                                  Velocity(au)
C        -0.03014345     0.03766848     0.01682899    -0.00001655     0.00016720    -0.00073719
N        -0.05004522    -0.07681958     1.29470337     0.00012989    -0.00011304     0.00066260
H         0.88946411    -0.07651616    -0.52404293    -0.00000076    -0.00033955    -0.00024059
H         0.82822809    -0.02862336     1.89970041    -0.00139839     0.00002496    -0.00084419
H        -0.86161940     0.02263574     1.87801496    -0.00056022     0.00029970     0.00138334
H        -1.01437474     0.03137453    -0.55381948     0.00035153    -0.00040667    -0.00072184
     6
  Step:    11            Position(A)                                  Velocity(au)
C        -0.03026225     0.03860986     0.01267204    -0.00002688     0.00017510    -0.00077177
N        -0.04929789    -0.07746240     1.29846314     0.00014009    -0.00012058     0.00070215
H         0.88976055    -0.07844950    -0.52571144     0.00011004    -0.00036438    -0.00036631
H         0.82033578    -0.02844656     1.89486631    -0.00145568     0.00004021    -0.00090201
H        -0.86503283     0.02435177     1.88580122    -0.00066995     0.00032353     0.00144064
H        -1.01233513     0.02912995    -0.55781588     0.00038915    -0.00041028    -0.00073319
     6
  Step:    12            Position(A)                                  Velocity(au)
C        -0.03043884     0.03959266     0.00834787    -0.00003727     0.00018140    -0.00079438
N        -0.04850577    -0.07814466     1.30241941     0.00014532    -0.00012680     0.00073059
H         0.89067336    -0.08052038    -0.52806835     0.00022108    -0.00038761    -0.00048781
H         0.81223136    -0.02818150     1.88978803    -0.00146650     0.00005703    -0.00092716
H        -0.86898160     0.02619104     1.89384638    -0.00075091     0.00034279     0.00147020
H        -1.01009835     0.02686596    -0.56187658     0.00042108    -0.00041175    -0.00074187
     6
  Step:    13            Position(A)                                  Velocity(au)
C        -0.03067284     0.04060806     0.00392148    -0.00004735     0.00018596    -0.00080489
N        -0.04769716    -0.07885918     1.30651099     0.00014521    -0.00013163     0.00074741
H         0.89219593    -0.08271926    -0.53108496     0.00032828    -0.00040855    -0.00060173
H         0.80418144    -0.02781837     1.88465315    -0.00142695     0.00007563    -0.00091677
H        -0.87330451     0.02812785     1.90199631    -0.00080160     0.00035703     0.00147110
H        -1.00769664     0.02459427    -0.56598799     0.00044655    -0.00041091    -0.00074784
     6
  Step:    14            Position(A)                                  Velocity(au)
C        -0.03096179     0.04164648    -0.00054181    -0.00005674     0.00018872    -0.00080369
N        -0.04690197    -0.07959843     1.31067430     0.00013968    -0.00013506     0.00075263
H         0.89429907    -0.08503267    -0.53471423     0.00042766    -0.00042661    -0.00070499
H         0.79647127    -0.02734619     1.87966271    -0.00133559     0.00009618    -0.00086977
H        -0.87783494     0.03013434     1.91009406    -0.00082211     0.00036607     0.00144401
H        -1.00516637     0.02232764    -0.57013615     0.00046503    -0.00040771    -0.00075123
     6
  Step:    15            Position(A)                                  Velocity(au)
C        -0.03130120     0.04269807    -0.00497916    -0.00006511     0.00018973    -0.00079171
N        -0.04615021    -0.08035489     1.31484613     0.00012894    -0.00013716     0.00074679
H         0.89693210    -0.08744382    -0.53889259     0.00051575    -0.00044137    -0.00079513
H         0.78939010    -0.02675318     1.87502070    -0.00119394     0.00011877    -0.00078720
H        -0.88240917     0.03218197     1.91798832    -0.00081406     0.00037003     0.00139113
H        -1.00254654     0.02007894    -0.57430768     0.00047635    -0.00040232    -0.00075239
     6
  Step:    16            Position(A)                                  Velocity(au)
C        -0.03168480     0.04375324    -0.00933308    -0.00007222     0.00018913    -0.00077037
N        -0.04547025    -0.08112144     1.31896676     0.00011348    -0.00013808     0.00073103
H         0.90002601    -0.08993369    -0.54354353     0.00058992    -0.00045267    -0.00087057
H         0.78321357    -0.02602732     1.87092153    -0.00100664     0.00014341    -0.00067234
H        -0.88687435     0.03424322     1.92554145    -0.00078034     0.00036936     0.00131596
H        -0.99987687     0.01786023    -0.57849088     0.00048073    -0.00039505    -0.00075191
     6
  Step:    17            Position(A)                                  Velocity(au)
C        -0.03210508     0.04480326    -0.01355400    -0.00007792     0.00018718    -0.00074146
N        -0.04488713    -0.08189183     1.32298305     0.00009406    -0.00013804     0.00070696
H         0.90349835    -0.09248240    -0.54858265     0.00064857    -0.00046062    -0.00093073
H         0.77818544    -0.02515693     1.86753710    -0.00078115     0.00017002    -0.00053044
H        -0.89109498     0.03629323     1.93263602    -0.00072483     0.00036476     0.00122287
H        -0.99719567     0.01568169    -0.58267702     0.00047873    -0.00038641    -0.00075057
     6
  Step:    18            Position(A)                                  Velocity(au)
C        -0.03255377     0.04584075    -0.01760215    -0.00008215     0.00018419    -0.00070695
N        -0.04442123    -0.08266092     1.32685104     0.00007163    -0.00013729     0.00067650
H         0.90725912    -0.09507072    -0.55392333     0.00069115    -0.00046557    -0.00097602
H         0.77450189    -0.02413123     1.86500591    -0.00052701     0.00019845    -0.00036820
H        -0.89495787     0.03831118     1.93917940    -0.00065185     0.00035712     0.00111663
H        -0.99453785     0.01355080    -0.58686146     0.00047123    -0.00037699    -0.00074928
     6
  Step:    19            Position(A)                                  Velocity(au)
C        -0.03302245     0.04686008    -0.02144858    -0.00008398     0.00018201    -0.00072222
N        -0.04408726    -0.08342497     1.33053763     0.00004714    -0.00013930     0.00068506
H         0.91121650    -0.09768143    -0.55948202     0.00068378    -0.00048426    -0.00096510
H         0.77230020    -0.02294081     1.86342540    -0.00027503     0.00026517    -0.00022091
H        -0.89837431     0.04028127     1.94510554    -0.00055179     0.00030861     0.00097892
H        -0.99193339     0.01147176    -0.59104431     0.00048866    -0.00032264    -0.00070673
     6
  Step:    20            Position(A)                                  Velocity(au)
C        -0.03349222     0.04787474    -0.02567306    -0.00008341     0.00018066    -0.00078700
N        -0.04389448    -0.08421764     1.33450667     0.00002133    -0.00014389     0.00073307
H         0.91490040    -0.10048235    -0.56470841     0.00062965    -0.00050445    -0.00090125
H         0.77142842    -0.02116789     1.86253724    -0.00003410     0.00035433    -0.00009558
H        -0.90112415     0.04175998     1.95011891    -0.00042720     0.00023224     0.00081248
H        -0.98907702     0.00994529    -0.59475927     0.00052910    -0.00023540    -0.00062481
     6
  Step:    21            Position(A)                                  Velocity(au)
C        -0.03395484     0.04887960    -0.03024598    -0.00008138     0.00017848    -0.00084551
N        -0.04384880    -0.08503344     1.33873225    -0.00000499    -0.00014763     0.00077571
H         0.91825503    -0.10332038    -0.56955666     0.00056681    -0.00050457    -0.00083126
H         0.77191900    -0.01898000     1.86235697     0.00020879     0.00042174     0.00003102
H        -0.90314980     0.04287738     1.95418785    -0.00029629     0.00017313     0.00064448
H        -0.98601883     0.00884031    -0.59802877     0.00055972    -0.00016567    -0.00054862
     6
  Step:    22            Position(A)                                  Velocity(au)
C        -0.03440188     0.04986988    -0.03512466    -0.00007789     0.00017553    -0.00089653
N        -0.04395028    -0.08586787     1.34317797    -0.00003088    -0.00015065     0.00081211
H         0.92123648    -0.10612276    -0.57400070     0.00049734    -0.00049438    -0.00075793
H         0.77376244    -0.01645341     1.86288397     0.00044615     0.00047823     0.00015528
H        -0.90443622     0.04369534     1.95732332    -0.00016522     0.00012322     0.00048071
H        -0.98282017     0.00809332    -0.60089204     0.00057901    -0.00010526    -0.00048032
     6
  Step:    23            Position(A)                                  Velocity(au)
C        -0.03482538     0.05084135    -0.04026558    -0.00007305     0.00017191    -0.00094008
N        -0.04419390    -0.08671711     1.34780835    -0.00005549    -0.00015306     0.00084257
H         0.92381330    -0.10884559    -0.57802727     0.00042331    -0.00047779    -0.00068318
H         0.77690514    -0.01363526     1.86409242     0.00067045     0.00052757     0.00027286
H        -0.90499629     0.04425447     1.95956029    -0.00003841     0.00007971     0.00032474
H        -0.97954778     0.00766387    -0.60339683     0.00058614    -0.00005100    -0.00042108
     6
  Step:    24            Position(A)                                  Velocity(au)
C        -0.03521793     0.05179034    -0.04562681    -0.00006693     0.00016767    -0.00097640
N        -0.04457016    -0.08757779     1.35259082    -0.00007806    -0.00015490     0.00086756
H         0.92596551    -0.11146043    -0.58163292     0.00034658    -0.00045697    -0.00060849
H         0.78125244    -0.01055956     1.86593228     0.00087480     0.00057142     0.00037971
H        -0.90486535     0.04458584     1.96095119     0.00008045     0.00004131     0.00017928
H        -0.97627208     0.00752352    -0.60559615     0.00058046    -0.00000115    -0.00037159
     6
  Step:    25            Position(A)                                  Velocity(au)
C        -0.03557270     0.05271362    -0.05116847    -0.00005963     0.00016287    -0.00100574
N        -0.04506559    -0.08844683     1.35749588    -0.00009794    -0.00015621     0.00088747
H         0.92768329    -0.11394834    -0.58482186     0.00026883    -0.00043326    -0.00053500
H         0.78667345    -0.00725461     1.86833244     0.00105315     0.00061041     0.00047242
H        -0.90409797     0.04471575     1.96156218     0.00018807     0.00000745     0.00004657
H        -0.97306610     0.00765099    -0.60754611     0.00056152     0.00004535    -0.00033221
     6
  Step:    26            Position(A)                                  Velocity(au)
C        -0.03588348     0.05360819    -0.05685234    -0.00005126     0.00015752    -0.00102822
N        -0.04566334    -0.08932133     1.36249635    -0.00011455    -0.00015698     0.00090255
H         0.92896603    -0.11629621    -0.58760435     0.00019164    -0.00040746    -0.00046369
H         0.79300713    -0.00374642     1.87120518     0.00120054     0.00064471     0.00054835
H        -0.90276619     0.04466900     1.96147094     0.00028139    -0.00002202    -0.00007141
H        -0.97000465     0.00802972    -0.60930415     0.00052905     0.00008920    -0.00030305
     6
  Step:    27            Position(A)                                  Velocity(au)
C        -0.03614469     0.05447116    -0.06264127    -0.00004196     0.00015163    -0.00104395
N        -0.04634368    -0.09019839     1.36756643    -0.00012740    -0.00015720     0.00091292
H         0.92982161    -0.11849475    -0.58999570     0.00011651    -0.00038023    -0.00039541
H         0.80006892    -0.00006095     1.87445085     0.00131321     0.00067413     0.00060570
H        -0.90095830     0.04447007     1.96076537     0.00035754    -0.00004708    -0.00017287
H        -0.96716302     0.00864625    -0.61092750     0.00048310     0.00013082    -0.00028393
     6
  Step:    28            Position(A)                                  Velocity(au)
C        -0.03635157     0.05529982    -0.06849881    -0.00003187     0.00014524    -0.00105300
N        -0.04708463    -0.09107509     1.37268103    -0.00013615    -0.00015687     0.00091863
H         0.93026587    -0.12053810    -0.59201563     0.00004489    -0.00035209    -0.00033095
H         0.80765752     0.00377425     1.87796244     0.00138879     0.00069834     0.00064355
H        -0.89877742     0.04414382     1.95954239     0.00041395    -0.00006758    -0.00025622
H        -0.96461517     0.00948912    -0.61247171     0.00042408     0.00017047    -0.00027445
     6
  Step:    29            Position(A)                                  Velocity(au)
C        -0.03650026     0.05609157    -0.07438908    -0.00002119     0.00013838    -0.00105550
N        -0.04786262    -0.09194850     1.37781520    -0.00014057    -0.00015598     0.00091971
H         0.93032246    -0.12242290    -0.59368794    -0.00002180    -0.00032350    -0.00027106
H         0.81556307     0.00773009     1.88163070     0.00142645     0.00071709     0.00066192
H        -0.89634001     0.04371612     1.95790679     0.00044843    -0.00008333    -0.00032019
H        -0.96243173     0.01054815    -0.61398945     0.00035289     0.00020834    -0.00027398
     6
  Step:    30            Position(A)                                  Velocity(au)
C        -0.03658806     0.05684401    -0.08027714    -0.00001016     0.00013109    -0.00105172
N        -0.04865327    -0.09281570     1.38294415    -0.00014061    -0.00015456     0.00091626
H         0.93002261    -0.12414808    -0.59504040    -0.00008221    -0.00029490    -0.00021648
H         0.82357530     0.01177623     1.88534884     0.00142687     0.00073025     0.00066165
H        -0.89377333     0.04321396     1.95596938     0.00045938    -0.00009415    -0.00036392
H        -0.96067727     0.01181398    -0.61552906     0.00027092     0.00024453    -0.00028162
     6
  Step:    31            Position(A)                                  Velocity(au)
C        -0.03661363     0.05755498    -0.08612952     0.00000098     0.00012345    -0.00104206
N        -0.04943225    -0.09367392     1.38804350    -0.00013635    -0.00015266     0.00090845
H         0.92940469    -0.12571487    -0.59610447    -0.00013511    -0.00026671    -0.00016785
H         0.83149134     0.01588194     1.88901677     0.00139212     0.00073788     0.00064430
H        -0.89121186     0.04266517     1.95384436     0.00044593    -0.00009993    -0.00038709
H        -0.95940742     0.01327782    -0.61713319     0.00018006     0.00027914    -0.00029625
     6
  Step:    32            Position(A)                                  Velocity(au)
C        -0.03657707     0.05822269    -0.09191506     0.00001195     0.00011552    -0.00102707
N        -0.05017603    -0.09452063     1.39308986    -0.00012803    -0.00015033     0.00089657
H         0.92851364    -0.12712677    -0.59691500    -0.00017943    -0.00023938    -0.00012575
H         0.83912278     0.02001701     1.89254449     0.00132544     0.00074024     0.00061197
H        -0.88879313     0.04209794     1.95164626     0.00040808    -0.00010070    -0.00039005
H        -0.95866630     0.01493143    -0.61883761     0.00008261     0.00031227    -0.00031655
     6
  Step:    33            Position(A)                                  Velocity(au)
C        -0.03648010     0.05884581    -0.09760566     0.00002246     0.00010742    -0.00100743
N        -0.05086277    -0.09535367     1.39806144    -0.00011602    -0.00014766     0.00088103
H         0.92739982    -0.12838958    -0.59750961    -0.00021431    -0.00021331    -0.00009062
H         0.84630133     0.02415309     1.89585470     0.00123093     0.00073779     0.00056714
H        -0.88665210     0.04154004     1.94948604     0.00034686    -0.00009662    -0.00037384
H        -0.95848433     0.01676705    -0.62067025    -0.00001884     0.00034406    -0.00034110
     6
  Step:    34            Position(A)                                  Velocity(au)
C        -0.03632602     0.05942347    -0.10317695     0.00003223     0.00009921    -0.00098389
N        -0.05147299    -0.09617128     1.40293866    -0.00010081    -0.00014473     0.00086231
H         0.92611792    -0.12951126    -0.59792803    -0.00023914    -0.00018886    -0.00006274
H         0.85288311     0.02826459     1.89888448     0.00111325     0.00073114     0.00051247
H        -0.88491569     0.04101786     1.94746715     0.00026424    -0.00008804    -0.00034019
H        -0.95887689     0.01877763    -0.62265065    -0.00012157     0.00037466    -0.00036837
     6
  Step:    35            Position(A)                                  Velocity(au)
C        -0.03611964     0.05995532    -0.10860865     0.00004103     0.00009100    -0.00095723
N        -0.05199014    -0.09697215     1.40770474    -0.00008296    -0.00014161     0.00084096
H         0.92472547    -0.13050167    -0.59821126    -0.00025358    -0.00016636    -0.00004224
H         0.85875094     0.03232953     1.90158576     0.00097724     0.00072101     0.00045061
H        -0.88369707     0.04055549     1.94568166     0.00016317    -0.00007545    -0.00029144
H        -0.95984383     0.02095696    -0.62478982    -0.00022285     0.00040423    -0.00039689
     6
  Step:    36            Position(A)                                  Velocity(au)
C        -0.03586709     0.06044147    -0.11388474     0.00004862     0.00008287    -0.00092819
N        -0.05240102    -0.09775537     1.41234590    -0.00006309    -0.00013839     0.00081755
H         0.92328131    -0.13137216    -0.59840050    -0.00025752    -0.00014602    -0.00002908
H         0.86381481     0.03633001     1.90392508     0.00082775     0.00070817     0.00038408
H        -0.88309048     0.04017387     1.94420702     0.00004733    -0.00005949    -0.00023043
H        -0.96136975     0.02329941    -0.62709037    -0.00032010     0.00043295    -0.00042523
     6
  Step:    37            Position(A)                                  Velocity(au)
C        -0.03557570     0.06088244    -0.11899325     0.00005483     0.00007486    -0.00089746
N        -0.05269604    -0.09852043     1.41685154    -0.00004186    -0.00013511     0.00079262
H         0.92184433    -0.13213530    -0.59853662    -0.00025110    -0.00012801    -0.00002312
H         0.86801178     0.04025254     1.90588286     0.00066940     0.00069340     0.00031524
H        -0.88316758     0.03988991     1.94310361    -0.00007897    -0.00004093    -0.00016034
H        -0.96342512     0.02580079    -0.62954733    -0.00041097     0.00046105    -0.00045212
     6
  Step:    38            Position(A)                                  Velocity(au)
C        -0.03525368     0.06127904    -0.12392590     0.00005952     0.00006703    -0.00086564
N        -0.05286935    -0.09926707     1.42121405    -0.00001991    -0.00013183     0.00076666
H         0.92047195    -0.13280437    -0.59865917    -0.00023468    -0.00011241    -0.00002404
H         0.87130431     0.04408807     1.90745215     0.00050650     0.00067748     0.00024620
H        -0.88397405     0.03971593     1.94241303    -0.00021097    -0.00002061    -0.00008457
H        -0.96596784     0.02845783    -0.63214882    -0.00049341     0.00048869    -0.00047641
     6
  Step:    39            Position(A)                                  Velocity(au)
C        -0.03490985     0.06163237    -0.12867760     0.00006260     0.00005942    -0.00083322
N        -0.05291878    -0.09999527     1.42542859     0.00000211    -0.00012856     0.00074012
H         0.91921880    -0.13339290    -0.59880559    -0.00020888    -0.00009923    -0.00003142
H         0.87367828     0.04783184     1.90863726     0.00034299     0.00066113     0.00017882
H        -0.88552781     0.03965934     1.94215746    -0.00034371     0.00000059    -0.00000653
H        -0.96894510     0.03126804    -0.63487714    -0.00056571     0.00051600    -0.00049716
     6
  Step:    40            Position(A)                                  Velocity(au)
C        -0.03455343     0.06194366    -0.13324590     0.00006404     0.00005203    -0.00080058
N        -0.05284575    -0.10070509     1.42949268     0.00002358    -0.00012532     0.00071335
H         0.91813552    -0.13391426    -0.59901060    -0.00017448    -0.00008839    -0.00004472
H         0.87514081     0.05148314     1.90945236     0.00018241     0.00064503     0.00011473
H        -0.88781859     0.03972248     1.94233997    -0.00047226     0.00002177     0.00007049
H        -0.97229557     0.03422956    -0.63770983    -0.00062654     0.00054305    -0.00051362
     6
  Step:    41            Position(A)                                  Velocity(au)
C        -0.03419368     0.06221424    -0.13763037     0.00006384     0.00004489    -0.00076804
N        -0.05265506    -0.10139671     1.43340579     0.00004394    -0.00012212     0.00068663
H         0.91726768    -0.13438130    -0.59930565    -0.00013246    -0.00007976    -0.00006331
H         0.87571815     0.05504508     1.90992023     0.00002800     0.00062983     0.00005535
H        -0.89080895     0.03990276     1.94294575    -0.00059197     0.00004209     0.00014348
H        -0.97595156     0.03734086    -0.64062089    -0.00067495     0.00056988    -0.00052525
     6
  Step:    42            Position(A)                                  Velocity(au)
C        -0.03383970     0.06244550    -0.14183218     0.00006206     0.00003799    -0.00073580
N        -0.05235451    -0.10207028     1.43716890     0.00006267    -0.00011895     0.00066019
H         0.91665465    -0.13480591    -0.59971833    -0.00008402    -0.00007315    -0.00008647
H         0.87545384     0.05852430     1.91007111    -0.00011733     0.00061612     0.00000193
H        -0.89443649     0.04019301     1.94394403    -0.00069867     0.00006078     0.00020982
H        -0.97984119     0.04060052    -0.64358184    -0.00071036     0.00059648    -0.00053168
     6
  Step:    43            Position(A)                                  Velocity(au)
C        -0.03350014     0.06263879    -0.14585366     0.00005878     0.00003132    -0.00070406
N        -0.05195464    -0.10272603     1.44078406     0.00007933    -0.00011581     0.00063418
H         0.91632862    -0.13519880    -0.60027201    -0.00003051    -0.00006832    -0.00011342
H         0.87440687     0.06193076     1.90994175    -0.00025096     0.00060447    -0.00004445
H        -0.89861723     0.04058202     1.94529071    -0.00078886     0.00007718     0.00026738
H        -0.98389051     0.04400709    -0.64656292    -0.00073256     0.00062283    -0.00053277
     6
  Step:    44            Position(A)                                  Velocity(au)
C        -0.03318296     0.06279542    -0.14969801     0.00005416     0.00002488    -0.00067292
N        -0.05146822    -0.10336418     1.44425408     0.00009355    -0.00011273     0.00060870
H         0.91631375    -0.13556917    -0.60098543     0.00002658    -0.00006498    -0.00014331
H         0.87265010     0.06527757     1.90957449    -0.00037054     0.00059544    -0.00008285
H        -0.90324979     0.04105526     1.94693122    -0.00085984     0.00009076     0.00031455
H        -0.98802548     0.04755886    -0.64953399    -0.00074168     0.00064886    -0.00052852
     6