     6
  Step:   300            Position(A)                                  Velocity(au)
C        -0.02821967     0.00788028     0.02949707     0.00000439     0.00005427    -0.00004124
N        -0.03042948    -0.05530269     1.28597688     0.00002279     0.00005120     0.00007068
H         0.02126383    -0.86213315    -0.62162371    -0.00142913    -0.00003292     0.00003052
H        -0.35205570     0.75729107     1.83476262    -0.00172739    -0.00080956     0.00004005
H        -0.16589403    -0.89591091     1.85470001     0.00128408    -0.00027265     0.00016909
H         0.04287992     1.00558313    -0.39763979     0.00150345    -0.00024306    -0.00073038
