 Fermi distribution function

Calculation with static geometry


********************************************************************************
 iSCC Total electronic   Diff electronic      SCC error    
   13   -0.52886365E+01   -0.23470115E-09    0.35992249E-06
********************************************************************************

 Total charge:     1.00000000

 Atomic gross charges (e)
 Atom           Charge
    1       0.32501247
    2      -0.21195000
    3       0.18272665
    4       0.27816327
    5       0.25744713
    6       0.16860048

Nr. of electrons (up):     12.00000000
Atom populations (up)
 Atom       Population
    1       3.67498753
    2       5.21195000
    3       0.81727335
    4       0.72183673
    5       0.74255287
    6       0.83139952

l-shell populations (up)
 Atom Sh.   l       Population
    1   1   0       1.38849523
    1   2   1       2.28649230
    2   1   0       1.50633617
    2   2   1       3.70561384
    3   1   0       0.81727335
    4   1   0       0.72183673
    5   1   0       0.74255287
    6   1   0       0.83139952

Orbital populations (up)
 Atom Sh.   l   m       Population  Label
    1   1   0   0       1.38849523  s
    1   2   1  -1       0.47143268  p_y
    1   2   1   0       0.87289643  p_z
    1   2   1   1       0.94216319  p_x
    2   1   0   0       1.50633617  s
    2   2   1  -1       1.37771798  p_y
    2   2   1   0       1.07433776  p_z
    2   2   1   1       1.25355810  p_x
    3   1   0   0       0.81727335  s
    4   1   0   0       0.72183673  s
    5   1   0   0       0.74255287  s
    6   1   0   0       0.83139952  s

Fermi level:                        -0.5106298651 H          -13.8949 eV
Band energy:                        -8.6938160791 H         -236.5708 eV
TS:                                  0.0000000000 H            0.0000 eV
Band free energy (E-TS):            -8.6938160791 H         -236.5708 eV
Extrapolated E(0K):                 -8.6938160791 H         -236.5708 eV
Input / Output electrons (q):     12.0000000000     12.0000000000

Energy H0:                          -5.4251960875 H         -147.6271 eV
Energy SCC:                          0.1365595847 H            3.7160 eV
Total Electronic energy:            -5.2886365028 H         -143.9111 eV
Repulsive energy:                    0.1422240950 H            3.8701 eV
Total energy:                       -5.1464124078 H         -140.0410 eV
Extrapolated to 0:                  -5.1464124078 H         -140.0410 eV
Total Mermin free energy:           -5.1464124078 H         -140.0410 eV
Force related energy:               -5.1464124078 H         -140.0410 eV

SCC converged

Excitation Energy:                   0.0926771337 H            2.5219 eV

Total Forces
    1     -0.001771496059     -0.000384621492      0.060956466456
    2      0.014337459288      0.017114849052     -0.065944081429
    3     -0.006638191653     -0.013463895895      0.002345311861
    4     -0.011835480435      0.003210644119     -0.001502265648
    5     -0.002037870156     -0.014896785528      0.003051556248
    6      0.007945579014      0.008419809743      0.001093012512

Maximal derivative component:        0.659441E-01 au


