|===============================================================================
|
|  DFTB+ release 20.1
|
|  Copyright (C) 2006 - 2020  DFTB+ developers group
|
|===============================================================================
|
|  When publishing results obtained with DFTB+, please cite the following
|  reference:
|
|  * DFTB+, a software package for efficient approximate density functional
|    theory based atomistic simulations, J. Chem. Phys. 152, 124101 (2020).
|    [doi: 10.1063/1.5143190]
|
|  You should also cite additional publications crediting the parametrization
|  data you use. Please consult the documentation of the SK-files for the
|  references.
|
|===============================================================================

Reading input file 'dftb_in.hsd'
Parser version: 8

--------------------------------------------------------------------------------
Reading SK-files:
Done.


Processed input in HSD format written to 'dftb_pin.hsd'

Starting initialization...
--------------------------------------------------------------------------------
WARNING!
-> Excited state forces are not implemented yet for fractional occupations, kT=  0.3158E-02K
OpenMP threads:              1
Chosen random seed:          508097158
Mode:                        Static calculation
Self consistent charges:     Yes
SCC-tolerance:                 0.100000E-05
Max. scc iterations:                    100
Shell resolved Hubbard:      No
Spin polarisation:           No
Nr. of up electrons:             6.000000
Nr. of down electrons:           6.000000
Periodic boundaries:         No
Electronic solver:           Relatively robust
Mixer:                       Broyden mixer
Mixing parameter:                  0.200000
Maximal SCC-cycles:                     100
Nr. of chrg. vec. in memory:              0
Electronic temperature:        0.100000E-07 H      0.272114E-06 eV
Initial charges:             Set automatically (system chrg:   0.100E+01)
Included shells:             C:  s, p
                             N:  s, p
                             H:  s
Extra options:
                             Mulliken analysis
                             Force calculation
Force type                   original
                             Eigenvector printing

--------------------------------------------------------------------------------

***  Geometry step: 0

 iSCC Total electronic   Diff electronic      SCC error    
    1   -0.53896078E+01    0.00000000E+00    0.83906339E+00
    2   -0.53960845E+01   -0.64766992E-02    0.56828218E+00
    3   -0.54002914E+01   -0.42069532E-02    0.10815676E+00
    4   -0.53997103E+01    0.58116359E-03    0.15077725E+00
    5   -0.54007941E+01   -0.10837998E-02    0.18508629E-01
    6   -0.54008008E+01   -0.66977245E-05    0.94339441E-02
    7   -0.54008030E+01   -0.22516647E-05    0.25771837E-04
    8   -0.54008030E+01    0.88302698E-11    0.21657950E-04
    9   -0.54008030E+01   -0.30239811E-10    0.23149173E-05
   10   -0.54008030E+01    0.20428104E-13    0.25595026E-05
   11   -0.54008030E+01   -0.30553338E-12    0.21269240E-07
>> Charges saved for restart in charges.bin

Total Energy:                       -5.0988240238 H         -138.7461 eV
Extrapolated to 0:                  -5.2117826529 H         -141.8198 eV
Total Mermin free energy:           -5.0988240238 H         -138.7461 eV
Force related energy:               -5.2117826529 H         -141.8198 eV

--------------------------------------------------------------------------------
DFTB+ running times                          cpu [s]             wall clock [s]
--------------------------------------------------------------------------------
SCC                                    +     0.01  ( 66.0%)      0.04  ( 64.8%)
Post-SCC processing                    +     0.00  ( 25.5%)      0.01  ( 25.9%)
--------------------------------------------------------------------------------
Missing                                +     0.00  (  8.4%)      0.01  (  9.3%)
Total                                  =     0.02  (100.0%)      0.05  (100.0%)
--------------------------------------------------------------------------------
