|===============================================================================
|
|  DFTB+ release 20.1
|
|  Copyright (C) 2006 - 2020  DFTB+ developers group
|
|===============================================================================
|
|  When publishing results obtained with DFTB+, please cite the following
|  reference:
|
|  * DFTB+, a software package for efficient approximate density functional
|    theory based atomistic simulations, J. Chem. Phys. 152, 124101 (2020).
|    [doi: 10.1063/1.5143190]
|
|  You should also cite additional publications crediting the parametrization
|  data you use. Please consult the documentation of the SK-files for the
|  references.
|
|===============================================================================

Reading input file 'dftb_in.hsd'
Parser version: 8

--------------------------------------------------------------------------------
Reading SK-files:
Done.


Processed input in HSD format written to 'dftb_pin.hsd'

Starting initialization...
--------------------------------------------------------------------------------
WARNING!
-> Excited state forces are not implemented yet for fractional occupations, kT=  0.3158E-02K
OpenMP threads:              1
Chosen random seed:          506585546
Mode:                        Static calculation
Self consistent charges:     Yes
SCC-tolerance:                 0.100000E-05
Max. scc iterations:                    100
Shell resolved Hubbard:      No
Spin polarisation:           No
Nr. of up electrons:             6.000000
Nr. of down electrons:           6.000000
Periodic boundaries:         No
Electronic solver:           Relatively robust
Mixer:                       Broyden mixer
Mixing parameter:                  0.200000
Maximal SCC-cycles:                     100
Nr. of chrg. vec. in memory:              0
Electronic temperature:        0.100000E-07 H      0.272114E-06 eV
Initial charges:             Set automatically (system chrg:   0.100E+01)
Included shells:             C:  s, p
                             N:  s, p
                             H:  s
Extra options:
                             Mulliken analysis
                             Force calculation
Force type                   original
                             Eigenvector printing

--------------------------------------------------------------------------------

***  Geometry step: 0

 iSCC Total electronic   Diff electronic      SCC error    
    1   -0.53873179E+01    0.00000000E+00    0.74784737E+00
    2   -0.53925090E+01   -0.51910882E-02    0.50260526E+00
    3   -0.53957500E+01   -0.32409706E-02    0.98632802E-01
    4   -0.53960229E+01   -0.27298012E-03    0.58450633E-01
    5   -0.53961678E+01   -0.14484064E-03    0.98231688E-02
    6   -0.53961685E+01   -0.69780272E-06    0.26364845E-02
    7   -0.53961686E+01   -0.13813981E-06    0.60434032E-04
    8   -0.53961686E+01    0.10620838E-10    0.72119443E-04
    9   -0.53961686E+01   -0.22682300E-09    0.31345906E-05
   10   -0.53961686E+01   -0.89528385E-12    0.76721086E-07
>> Charges saved for restart in charges.bin

Total Energy:                       -5.0925506721 H         -138.5754 eV
Extrapolated to 0:                  -5.2073652475 H         -141.6996 eV
Total Mermin free energy:           -5.0925506721 H         -138.5754 eV
Force related energy:               -5.2073652475 H         -141.6996 eV

--------------------------------------------------------------------------------
DFTB+ running times                          cpu [s]             wall clock [s]
--------------------------------------------------------------------------------
SCC                                    +     0.01  ( 51.7%)      0.05  ( 70.5%)
Post-SCC processing                    +     0.01  ( 42.4%)      0.02  ( 21.8%)
--------------------------------------------------------------------------------
Missing                                +     0.00  (  5.9%)      0.01  (  7.7%)
Total                                  =     0.02  (100.0%)      0.08  (100.0%)
--------------------------------------------------------------------------------
