 Fermi distribution function

Calculation with static geometry


********************************************************************************
 iSCC Total electronic   Diff electronic      SCC error    
   11   -0.53931865E+01   -0.48823168E-11    0.55102598E-08
********************************************************************************

 Total charge:     1.00000000

 Atomic gross charges (e)
 Atom           Charge
    1       0.31999864
    2      -0.21097396
    3       0.14608559
    4       0.31987887
    5       0.27702885
    6       0.14798201

Nr. of electrons (up):     12.00000000
Atom populations (up)
 Atom       Population
    1       3.68000136
    2       5.21097396
    3       0.85391441
    4       0.68012113
    5       0.72297115
    6       0.85201799

l-shell populations (up)
 Atom Sh.   l       Population
    1   1   0       1.29094475
    1   2   1       2.38905661
    2   1   0       1.41251170
    2   2   1       3.79846226
    3   1   0       0.85391441
    4   1   0       0.68012113
    5   1   0       0.72297115
    6   1   0       0.85201799

Orbital populations (up)
 Atom Sh.   l   m       Population  Label
    1   1   0   0       1.29094475  s
    1   2   1  -1       0.52501822  p_y
    1   2   1   0       0.91064984  p_z
    1   2   1   1       0.95338855  p_x
    2   1   0   0       1.41251170  s
    2   2   1  -1       1.29935400  p_y
    2   2   1   0       1.12224035  p_z
    2   2   1   1       1.37686791  p_x
    3   1   0   0       0.85391441  s
    4   1   0   0       0.68012113  s
    5   1   0   0       0.72297115  s
    6   1   0   0       0.85201799  s

Fermi level:                        -0.4851768188 H          -13.2023 eV
Band energy:                        -8.8789411700 H         -241.6083 eV
TS:                                  0.0000000000 H            0.0000 eV
Band free energy (E-TS):            -8.8789411700 H         -241.6083 eV
Extrapolated E(0K):                 -8.8789411700 H         -241.6083 eV
Input / Output electrons (q):     12.0000000000     12.0000000000

Energy H0:                          -5.5279664120 H         -150.4236 eV
Energy SCC:                          0.1347799068 H            3.6675 eV
Total Electronic energy:            -5.3931865052 H         -146.7561 eV
Repulsive energy:                    0.2091780217 H            5.6920 eV
Total energy:                       -5.1840084835 H         -141.0640 eV
Extrapolated to 0:                  -5.1840084835 H         -141.0640 eV
Total Mermin free energy:           -5.1840084835 H         -141.0640 eV
Force related energy:               -5.1840084835 H         -141.0640 eV

SCC converged

Excitation Energy:                   0.0815152139 H            2.2181 eV

Total Forces
    1     -0.014527486597     -0.009586801322     -0.029326141116
    2      0.012547408131     -0.015064033313      0.024888558861
    3     -0.000840112304      0.018521279092      0.003560846500
    4     -0.014800293550     -0.002033925776      0.001852203018
    5      0.008849041623      0.016287170285      0.001527721789
    6      0.008771442698     -0.008123688965     -0.002503189052

Maximal derivative component:        0.293261E-01 au


