     6
  Step:     0            Position(A)                                  Velocity(au)
C        -0.03140423     0.02223030     0.04233478    -0.00002191    -0.00000904     0.00001206
N        -0.05425803    -0.05039320     1.27714036    -0.00016511     0.00006986     0.00006074
H         0.89629658    -0.02953514    -0.51164625     0.00062525     0.00008048    -0.00043612
H         0.87749880    -0.15106415     1.80753219     0.00150268    -0.00060382     0.00044546
H        -0.88941889    -0.07175096     1.87774930     0.00066974    -0.00012941    -0.00093396
H        -0.96911058     0.01795602    -0.53364905    -0.00024208    -0.00021030    -0.00006315
     6
  Step:     1            Position(A)                                  Velocity(au)
C        -0.03153120     0.02220256     0.04213373    -0.00002396    -0.00000121    -0.00008554
N        -0.05513307    -0.05002889     1.27774517    -0.00015316     0.00006338     0.00015973
H         0.89998042    -0.02911216    -0.51433063     0.00071409     0.00007483    -0.00054080
H         0.88531958    -0.15434251     1.80984260     0.00134473    -0.00059382     0.00039248
H        -0.88577008    -0.07245844     1.87269132     0.00065223    -0.00012985    -0.00090536
H        -0.97059067     0.01678693    -0.53422605    -0.00029709    -0.00021738    -0.00014676
     6
  Step:     2            Position(A)                                  Velocity(au)
C        -0.03166623     0.02221706     0.04139927    -0.00002489     0.00000636    -0.00018244
N        -0.05593319    -0.04970006     1.27888735    -0.00013786     0.00005696     0.00025664
H         0.90410658    -0.02871677    -0.51756094     0.00078692     0.00007043    -0.00063573
H         0.89220612    -0.15755882     1.81182476     0.00116379    -0.00058154     0.00032702
H        -0.88228548    -0.07317116     1.86784738     0.00060926    -0.00013142    -0.00085567
H        -0.97235983     0.01557852    -0.53525418    -0.00034756    -0.00022475    -0.00022800
     6
  Step:     3            Position(A)                                  Velocity(au)
C        -0.03180338     0.02227215     0.04013877    -0.00002477     0.00001360    -0.00027733
N        -0.05664053    -0.04940609     1.28055149    -0.00011934     0.00005067     0.00034999
H         0.90858528    -0.02834198    -0.52128227     0.00084286     0.00006729    -0.00072025
H         0.89804549    -0.16070153     1.81341853     0.00096386    -0.00056709     0.00025180
H        -0.87910789    -0.07389555     1.86333467     0.00053967    -0.00013416    -0.00078421
H        -0.97439123     0.01432935    -0.53671917    -0.00039269    -0.00023226    -0.00030636
     6
  Step:     4            Position(A)                                  Velocity(au)
C        -0.03193710     0.02236579     0.03836675    -0.00002368     0.00002042    -0.00036873
N        -0.05723820    -0.04914595     1.28271448    -0.00009782     0.00004459     0.00043825
H         0.91332313    -0.02798095    -0.52543676     0.00088116     0.00006535    -0.00079364
H         0.90274582    -0.16375987     1.81457822     0.00074873    -0.00055051     0.00016945
H        -0.87638421    -0.07463816     1.85927218     0.00044319    -0.00013802    -0.00069096
H        -0.97665380     0.01303877    -0.53860414    -0.00043156    -0.00023971    -0.00038120
     6
  Step:     5            Position(A)                                  Velocity(au)
C        -0.03206238     0.02249547     0.03610546    -0.00002172     0.00002672    -0.00045502
N        -0.05771049    -0.04891835     1.28534529    -0.00007356     0.00003876     0.00051978
H         0.91822377    -0.02762715    -0.52996342     0.00090121     0.00006453    -0.00085513
H         0.90623540    -0.16672326     1.81527201     0.00052230    -0.00053175     0.00008256
H        -0.87426003    -0.07540526     1.85577667     0.00032080    -0.00014289    -0.00057686
H        -0.97911187     0.01170729    -0.54088886    -0.00046324    -0.00024682    -0.00045169
     6
  Step:     6            Position(A)                                  Velocity(au)
C        -0.03217482     0.02265824     0.03338578    -0.00001901     0.00003239    -0.00053438
N        -0.05804345    -0.04872167     1.28840446    -0.00004701     0.00003323     0.00059286
H         0.92318853    -0.02727453    -0.53479766     0.00090259     0.00006472    -0.00090385
H         0.90846333    -0.16958083     1.81548198     0.00028890    -0.00051072    -0.00000613
H        -0.87287248    -0.07620231     1.85295739     0.00017507    -0.00014854    -0.00044405
H        -0.98172483     0.01033691    -0.54354875    -0.00048672    -0.00025323    -0.00051680
     6
  Step:     7            Position(A)                                  Velocity(au)
C        -0.03227077     0.02285056     0.03024800    -0.00001571     0.00003734    -0.00060488
N        -0.05822575    -0.04855411     1.29184372    -0.00001877     0.00002805     0.00065569
H         0.92811731    -0.02691771    -0.53987076     0.00088514     0.00006578    -0.00093891
H         0.90940208    -0.17232138     1.81520486     0.00005356    -0.00048737    -0.00009367
H        -0.87234103    -0.07703340     1.85090931     0.00001051    -0.00015464    -0.00029610
H        -0.98444688     0.00893159    -0.54655366    -0.00050100    -0.00025854    -0.00057527
     6
  Step:     8            Position(A)                                  Velocity(au)
C        -0.03234740     0.02306838     0.02674253    -0.00001199     0.00004145    -0.00066455
N        -0.05824965    -0.04841361     1.29560575     0.00001031     0.00002327     0.00070658
H         0.93290975    -0.02655210    -0.54510940     0.00084908     0.00006753    -0.00095943
H         0.90905153    -0.17493345     1.81445324    -0.00017781    -0.00046173    -0.00017689
H        -0.87275708    -0.07790063     1.84970546    -0.00016639    -0.00016075    -0.00013803
H        -0.98722713     0.00749744    -0.54986681    -0.00050521    -0.00026232    -0.00062571
     6
  Step:     9            Position(A)                                  Velocity(au)
C        -0.03240276     0.02330706     0.02293001    -0.00000801     0.00004463    -0.00071154
N        -0.05811224    -0.04829789     1.29962451     0.00003920     0.00001893     0.00074400
H         0.93746729    -0.02617411    -0.55043594     0.00079524     0.00006977    -0.00096480
H         0.90744406    -0.17740596     1.81325702    -0.00039842    -0.00043404    -0.00025239
H        -0.87417333    -0.07880353     1.84938937    -0.00034733    -0.00016635     0.00002380
H        -0.99001021     0.00604294    -0.55344394    -0.00049874    -0.00026415    -0.00066670
     6
  Step:    10            Position(A)                                  Velocity(au)
C        -0.03243595     0.02356145     0.01888063    -0.00000399     0.00004678    -0.00074438
N        -0.05781647    -0.04820446     1.30382626     0.00006674     0.00001508     0.00076686
H         0.94169648    -0.02578124    -0.55576961     0.00072526     0.00007229    -0.00095488
H         0.90464939    -0.17972917     1.81166454    -0.00060091    -0.00040474    -0.00031679
H        -0.87659473    -0.07973862     1.84996846    -0.00052278    -0.00017089     0.00018216
H        -0.99273773     0.00457881    -0.55723324    -0.00048139    -0.00026369    -0.00069701
     6
  Step:    11            Position(A)                                  Velocity(au)
C        -0.03244704     0.02382603     0.01467210    -0.00000011     0.00004789    -0.00076229
N        -0.05737184    -0.04813056     1.30813185     0.00009171     0.00001178     0.00077481
H         0.94551315    -0.02537213    -0.56102917     0.00064169     0.00007490    -0.00093033
H         0.90077773    -0.18189603     1.80974265    -0.00077804    -0.00037462    -0.00036699
H        -0.87997292    -0.08069930     1.85141015    -0.00068305    -0.00017387     0.00032965
H        -0.99535064     0.00311763    -0.56117641    -0.00045360    -0.00026077    -0.00071592
     6
  Step:    12            Position(A)                                  Velocity(au)
C        -0.03243717     0.02409515     0.01038579     0.00000346     0.00004800    -0.00076558
N        -0.05679452    -0.04807319     1.31246065     0.00011303     0.00000906     0.00076854
H         0.94884733    -0.02494652    -0.56613703     0.00054798     0.00007746    -0.00089284
H         0.89597906    -0.18390388     1.80757489    -0.00092369    -0.00034481    -0.00040063
H        -0.88420657    -0.08167617     1.85364199    -0.00081965    -0.00017496     0.00045975
H        -0.99779261     0.00167286    -0.56521136    -0.00041654    -0.00025548    -0.00072353
     6
  Step:    13            Position(A)                                  Velocity(au)
C        -0.03240833     0.02436341     0.00610103     0.00000658     0.00004723    -0.00075585
N        -0.05610637    -0.04802918     1.31673608     0.00012998     0.00000694     0.00074996
H         0.95164809    -0.02450491    -0.57102500     0.00044826     0.00007991    -0.00084532
H         0.89043655    -0.18575632     1.80525733    -0.00103403    -0.00031674    -0.00041651
H        -0.88914936    -0.08265803     1.85655732    -0.00092676    -0.00017409     0.00056789
H        -1.00001405     0.00025742    -0.56927671    -0.00037210    -0.00024825    -0.00072105
     6
  Step:    14            Position(A)                                  Velocity(au)
C        -0.03236322     0.02462609     0.00188802     0.00000917     0.00004577    -0.00073599
N        -0.05533314    -0.04799517     1.32089222     0.00014229     0.00000545     0.00072213
H         0.95388694    -0.02404807    -0.57564066     0.00034672     0.00008234    -0.00079164
H         0.88435376    -0.18746483     1.80289219    -0.00110836    -0.00029203    -0.00041472
H        -0.89462580    -0.08363340     1.86002664    -0.00100225    -0.00017151     0.00065225
H        -1.00197599    -0.00111814    -0.57331791    -0.00032264    -0.00023985    -0.00071086
     6
  Step:    15            Position(A)                                  Velocity(au)
C        -0.03230491     0.02487957    -0.00219908     0.00001122     0.00004388    -0.00070965
N        -0.05450170    -0.04796775     1.32487997     0.00015015     0.00000457     0.00068874
H         0.95555822    -0.02357636    -0.57995275     0.00024692     0.00008492    -0.00073604
H         0.87793695    -0.18904969     1.80058035    -0.00114897    -0.00027227    -0.00039643
H        -0.90045225    -0.08459226     1.86391306    -0.00104764    -0.00016771     0.00071379
H        -1.00365267    -0.00244746    -0.57729348    -0.00027056    -0.00023122    -0.00069611
     6
  Step:    16            Position(A)                                  Velocity(au)
C        -0.03223647     0.02512159    -0.00612622     0.00001277     0.00004178    -0.00068039
N        -0.05363745    -0.04794358     1.32867033     0.00015407     0.00000429     0.00065323
H         0.95667551    -0.02308905    -0.58395296     0.00015119     0.00008792    -0.00068222
H         0.87137815    -0.19053960     1.79841526    -0.00115983    -0.00025873    -0.00036322
H        -0.90645703    -0.08552739     1.86808771    -0.00106675    -0.00016325     0.00075546
H        -1.00503152    -0.00372942    -0.58117922    -0.00021774    -0.00022331    -0.00067996
     6
  Step:    17            Position(A)                                  Velocity(au)
C        -0.03216079     0.02535114    -0.00987878     0.00001385     0.00003965    -0.00065085
N        -0.05276268    -0.04791938     1.33225309     0.00015459     0.00000458     0.00061806
H         0.95726475    -0.02258404    -0.58765305     0.00006050     0.00009155    -0.00063263
H         0.86484577    -0.19197008     1.79648066    -0.00114476    -0.00025229    -0.00031636
H        -0.91249281    -0.08643484     1.87244001    -0.00106379    -0.00015856     0.00078066
H        -1.00611035    -0.00496801    -0.58496828    -0.00016528    -0.00021677    -0.00066484
     6
  Step:    18            Position(A)                                  Velocity(au)
C        -0.03208044     0.02556816    -0.01345653     0.00001452     0.00003758    -0.00062236
N        -0.05189632    -0.04789203     1.33563129     0.00015211     0.00000542     0.00058438
H         0.95735689    -0.02205795    -0.59107801    -0.00002512     0.00009596    -0.00058830
H         0.85848516    -0.19338100     1.79485227    -0.00110620    -0.00025329    -0.00025648
H        -0.91843810    -0.08731316     1.87688000    -0.00104191    -0.00015384     0.00079219
H        -1.00689298    -0.00617083    -0.58866702    -0.00011355    -0.00021190    -0.00065200
     6
  Step:    19            Position(A)                                  Velocity(au)
C        -0.03199772     0.02577304    -0.01686639     0.00001480     0.00003557    -0.00059513
N        -0.05105488    -0.04785853     1.33881420     0.00014681     0.00000679     0.00055227
H         0.95698277    -0.02150661    -0.59425823    -0.00010594     0.00010118    -0.00054919
H         0.85242591    -0.19481386     1.79360102    -0.00104512    -0.00026171    -0.00018379
H        -0.92419092    -0.08816213     1.88133429    -0.00100287    -0.00014909     0.00079175
H        -1.00738524    -0.00734714    -0.59228862    -0.00006254    -0.00020868    -0.00064165
     6
  Step:    20            Position(A)                                  Velocity(au)
C        -0.03191478     0.02596624    -0.02011626     0.00001564     0.00003548    -0.00060888
N        -0.05025348    -0.04781600     1.34181135     0.00013837     0.00000843     0.00055144
H         0.95617137    -0.02092571    -0.59722368    -0.00020538     0.00016987    -0.00047879
H         0.84678988    -0.19630964     1.79279562    -0.00098210    -0.00035428    -0.00011218
H        -0.92966063    -0.08898152     1.88573997    -0.00093414    -0.00008493     0.00078061
H        -1.00759286    -0.00850606    -0.59584728     0.00001247    -0.00027067    -0.00059714
     6
  Step:    21            Position(A)                                  Velocity(au)
C        -0.03182316     0.02616899    -0.02366083     0.00001653     0.00003755    -0.00067139
N        -0.04951088    -0.04776442     1.34496762     0.00012730     0.00000955     0.00058875
H         0.95469095    -0.01961108    -0.59960098    -0.00032585     0.00027613    -0.00037161
H         0.84146680    -0.19876716     1.79234919    -0.00092238    -0.00049835    -0.00004474
H        -0.93461484    -0.08910982     1.89004494    -0.00083271     0.00001266     0.00074814
H        -1.00724606    -0.01036754    -0.59895197     0.00011490    -0.00037068    -0.00051296
     6
  Step:    22            Position(A)                                  Velocity(au)
C        -0.03173063     0.02638456    -0.02759474     0.00001641     0.00003976    -0.00074015
N        -0.04883545    -0.04770959     1.34836933     0.00011413     0.00001029     0.00063219
H         0.95254181    -0.01784999    -0.60136304    -0.00044168     0.00034927    -0.00026399
H         0.83651562    -0.20186067     1.79229722    -0.00084512    -0.00060663     0.00003121
H        -0.93893603    -0.08884052     1.89407337    -0.00071278     0.00007696     0.00069280
H        -1.00631300    -0.01263496    -0.60156107     0.00021809    -0.00043637    -0.00042543
     6
  Step:    23            Position(A)                                  Velocity(au)
C        -0.03164046     0.02661160    -0.03190030     0.00001573     0.00004161    -0.00080304
N        -0.04824040    -0.04764986     1.35200521     0.00009854     0.00001138     0.00067134
H         0.94977415    -0.01572299    -0.60253970    -0.00054625     0.00040994    -0.00016242
H         0.83205879    -0.20552020     1.79269664    -0.00074513    -0.00070427     0.00011669
H        -0.94254957    -0.08825304     1.89775722    -0.00058036     0.00012956     0.00062632
H        -1.00481831    -0.01522524    -0.60368794     0.00031502    -0.00048915    -0.00034066
     6
  Step:    24            Position(A)                                  Velocity(au)
C        -0.03155544     0.02684797    -0.03653825     0.00001455     0.00004299    -0.00085685
N        -0.04773803    -0.04758287     1.35584605     0.00008091     0.00001288     0.00070365
H         0.94645813    -0.01328444    -0.60317195    -0.00063589     0.00046124    -0.00006916
H         0.82821700    -0.20970422     1.79359679    -0.00062450    -0.00079428     0.00020949
H        -0.94539958    -0.08739757     1.90104876    -0.00043962     0.00017401     0.00055228
H        -1.00280458    -0.01808271    -0.60535501     0.00040239    -0.00053232    -0.00026048
     6
  Step:    25            Position(A)                                  Velocity(au)
C        -0.03147822     0.02709105    -0.04145570     0.00001290     0.00004385    -0.00089959
N        -0.04733817    -0.04750617     1.35985215     0.00006183     0.00001479     0.00072768
H         0.94268287    -0.01057933    -0.60331099    -0.00070730     0.00050436     0.00001375
H         0.82509454    -0.21437787     1.79503277    -0.00048768    -0.00087705     0.00030639
H        -0.94745214    -0.08631248     1.90391615    -0.00029520     0.00021182     0.00047383
H        -1.00033090    -0.02116155    -0.60659280     0.00047727    -0.00056723    -0.00018662
     6
  Step:    26            Position(A)                                  Velocity(au)
C        -0.03141133     0.02733797    -0.04659026     0.00001081     0.00004417    -0.00093006
N        -0.04704709    -0.04741757     1.36397723     0.00004209     0.00001704     0.00074273
H         0.93855473    -0.00764866    -0.60301832    -0.00075784     0.00053994     0.00008446
H         0.82276762    -0.21950442     1.79702037    -0.00034089    -0.00095201     0.00040356
H        -0.94869820    -0.08503065     1.90634332    -0.00015206     0.00024375     0.00039409
H        -0.99747156    -0.02442100    -0.60744027     0.00053717    -0.00059476    -0.00012069
     6
  Step:    27            Position(A)                                  Velocity(au)
C        -0.03135718     0.02758582    -0.05187387     0.00000831     0.00004397    -0.00094796
N        -0.04686670    -0.04731533     1.36817191     0.00002252     0.00001952     0.00074878
H         0.93419393    -0.00453112    -0.60236496    -0.00078578     0.00056855     0.00014149
H         0.82127603    -0.22504188     1.79955330    -0.00019135    -0.00101841     0.00049703
H        -0.94915540    -0.08358207     1.90833053    -0.00001510     0.00027032     0.00031616
H        -0.99431374    -0.02782375    -0.60794475     0.00058033    -0.00061569    -0.00006415
     6
  Step:    28            Position(A)                                  Velocity(au)
C        -0.03131797     0.02783182    -0.05723722     0.00000547     0.00004331    -0.00095381
N        -0.04679421    -0.04719831     1.37238719     0.00000395     0.00002214     0.00074650
H         0.92972925    -0.00126299    -0.60142921    -0.00079055     0.00059092     0.00018394
H         0.82061844    -0.23094265     1.80260281    -0.00004647    -0.00107570     0.00058318
H        -0.94886784    -0.08199453     1.90989433     0.00011114     0.00029201     0.00024298
H        -0.99095361    -0.03133612    -0.60816079     0.00060583    -0.00063101    -0.00001809
     6
  Step:    29            Position(A)                                  Velocity(au)
C        -0.03129561     0.02807351    -0.06261449     0.00000233     0.00004227    -0.00094895
N        -0.04682220    -0.04706598     1.37657807    -0.00001286     0.00002480     0.00073711
H         0.92529175     0.00212312    -0.60029367    -0.00077270     0.00060807     0.00021156
H         0.82075275    -0.23715510     1.80612034     0.00008704    -0.00112388     0.00065914
H        -0.94790384    -0.08029380     1.91106670     0.00022297     0.00030940     0.00017708
H        -0.98749165    -0.03492939    -0.60814841     0.00061366    -0.00064194     0.00001685
     6
  Step:    30            Position(A)                                  Velocity(au)
C        -0.03129169     0.02830889    -0.06794737    -0.00000105     0.00004095    -0.00093524
N        -0.04693934    -0.04691837     1.38070641    -0.00002733     0.00002741     0.00072218
H         0.92100834     0.00559987    -0.59904144    -0.00073377     0.00062121     0.00022479
H         0.82160084    -0.24362710     1.81004212     0.00020377    -0.00116347     0.00072307
H        -0.94635135    -0.07850254     1.91189293     0.00031773     0.00032319     0.00012043
H        -0.98402764    -0.03858130    -0.60797057     0.00060465    -0.00064987     0.00004053
     6
  Step:    31            Position(A)                                  Velocity(au)
C        -0.03130748     0.02853654    -0.07318809    -0.00000461     0.00003947    -0.00091477
N        -0.04713123    -0.04675607     1.38474278    -0.00003908     0.00002990     0.00070336
H         0.91699598     0.00914636    -0.59775230    -0.00067598     0.00063166     0.00022459
H         0.82305657    -0.25030890     1.81429518     0.00029995    -0.00119537     0.00077409
H        -0.94431167    -0.07663995     1.91242825     0.00039386     0.00033411     0.00007437
H        -0.98065568    -0.04227663    -0.60769021     0.00058020    -0.00065617     0.00005326
     6
  Step:    32            Position(A)                                  Velocity(au)
C        -0.03134389     0.02875557    -0.07830040    -0.00000831     0.00003789    -0.00088945
N        -0.04738161    -0.04657998     1.38866678    -0.00004787     0.00003222     0.00068212
H         0.91335783     0.01274874    -0.59649965    -0.00060182     0.00064063     0.00021229
H         0.82499557    -0.25715589     1.81880297     0.00037342    -0.00122063     0.00081208
H        -0.94189376    -0.07472120     1.91273458     0.00045064     0.00034290     0.00003966
H        -0.97746116    -0.04600766    -0.60736783     0.00054198    -0.00066209     0.00005569
     6
  Step:    33            Position(A)                                  Velocity(au)
C        -0.03140152     0.02896553    -0.08325878    -0.00001208     0.00003629    -0.00086089
N        -0.04767324    -0.04639129     1.39246602    -0.00005364     0.00003433     0.00065962
H         0.91018197     0.01639983    -0.59534872    -0.00051381     0.00064917     0.00018938
H         0.82728460    -0.26412935     1.82348978     0.00042338    -0.00124022     0.00083742
H        -0.93920934    -0.07275746     1.91287733     0.00048801     0.00035022     0.00001660
H        -0.97451920    -0.04977304    -0.60705963     0.00049173    -0.00066861     0.00004872
     6
  Step:    34            Position(A)                                  Velocity(au)
C        -0.03148065     0.02916636    -0.08804648    -0.00001588     0.00003470    -0.00083025
N        -0.04798881    -0.04619132     1.39613427    -0.00005640     0.00003622     0.00063662
H         0.90754096     0.02009793    -0.59435563    -0.00041448     0.00065801     0.00015747
H         0.82978867    -0.27119640     1.82828336     0.00045002    -0.00125488     0.00085076
H        -0.93636905    -0.07075641     1.91292251     0.00050632     0.00035656     0.00000509
H        -0.97189427    -0.05357701    -0.60681630     0.00043115    -0.00067645     0.00003333
     6
  Step:    35            Position(A)                                  Velocity(au)
C        -0.03158120     0.02935820    -0.09265332    -0.00001964     0.00003316    -0.00079836
N        -0.04831145    -0.04598150     1.39966955    -0.00005628     0.00003785     0.00061361
H         0.90549203     0.02384541    -0.59356691    -0.00030636     0.00066767     0.00011818
H         0.83237676    -0.27832871     1.83311635     0.00045430    -0.00126513     0.00085288
H        -0.93348020    -0.06872293     1.91293489     0.00050624     0.00036230     0.00000476
H        -0.96964061    -0.05742732    -0.60668250     0.00036190    -0.00068601     0.00001061
     6
  Step:    36            Position(A)                                  Velocity(au)
C        -0.03170270     0.02954130    -0.09707359    -0.00002329     0.00003167    -0.00076577
N        -0.04862515    -0.04576331     1.40307234    -0.00005344     0.00003924     0.00059083
H         0.90407698     0.02764727    -0.59301932    -0.00019208     0.00067840     0.00007322
H         0.83492552    -0.28550129     1.83792695     0.00043771    -0.00127133     0.00084469
H        -0.93064496    -0.06665983     1.91297633     0.00048875     0.00036771     0.00001500
H        -0.96780228    -0.06133370    -0.60669637     0.00028569    -0.00069744    -0.00001830
     6
  Step:    37            Position(A)                                  Velocity(au)
C        -0.03184428     0.02971598    -0.10130469    -0.00002675     0.00003023    -0.00073290
N        -0.04891515    -0.04553820     1.40634449    -0.00004811     0.00004037     0.00056842
H         0.90332197     0.03150972    -0.59273973    -0.00007439     0.00069038     0.00002427
H         0.83732187    -0.29269158     1.84265927     0.00040215    -0.00127379     0.00082715
H        -0.92795847    -0.06456869     1.91310434     0.00045517     0.00037301     0.00003496
H        -0.96641302    -0.06530663    -0.60688921     0.00020433    -0.00071075    -0.00005218
     6
  Step:    38            Position(A)                                  Velocity(au)
C        -0.03200463     0.02988249    -0.10534625    -0.00002995     0.00002882    -0.00070004
N        -0.04916815    -0.04530764     1.40948850    -0.00004056     0.00004125     0.00054644
H         0.90323725     0.03544007    -0.59274538     0.00004390     0.00070369    -0.00002698
H         0.83946484    -0.29987940     1.84726353     0.00034981    -0.00127289     0.00080133
H        -0.92550717    -0.06244945     1.91337099     0.00040716     0.00037841     0.00006360
H        -0.96549584    -0.06935640    -0.60728536     0.00011974    -0.00072585    -0.00008980
     6
  Step:    39            Position(A)                                  Velocity(au)
C        -0.03218207     0.03004103    -0.10919960    -0.00003283     0.00002744    -0.00066747
N        -0.04937262    -0.04507301     1.41250716    -0.00003113     0.00004189     0.00052492
H         0.90381708     0.03944580    -0.59304401     0.00015998     0.00071831    -0.00007888
H         0.84126693    -0.30704694     1.85169647     0.00028310    -0.00126902     0.00076835
H        -0.92336656    -0.06030107     1.91382159     0.00034681     0.00038407     0.00009962
H        -0.96506261    -0.07349260    -0.60790197     0.00003390    -0.00074256    -0.00012990
     6
  Step:    40            Position(A)                                  Velocity(au)
C        -0.03237453     0.03019173    -0.11286748    -0.00003531     0.00002608    -0.00063543
N        -0.04951894    -0.04483557     1.41540340    -0.00002016     0.00004233     0.00050387
H         0.90503996     0.04353419    -0.59363425     0.00027110     0.00073419    -0.00012988
H         0.84265483    -0.31417901     1.85592153     0.00020454    -0.00126266     0.00072941
H        -0.92159927    -0.05812171     1.91449351     0.00027651     0.00039011     0.00014156
H        -0.96511385    -0.07772372    -0.60874913    -0.00005118    -0.00076066    -0.00017124
     6
  Step:    41            Position(A)                                  Velocity(au)
C        -0.03257964     0.03033469    -0.11635389    -0.00003736     0.00002472    -0.00060411
N        -0.04959963    -0.04459642     1.41818023    -0.00000804     0.00004258     0.00048331
H         0.90686944     0.04771207    -0.59450633     0.00037470     0.00075121    -0.00017855
H         0.84356980    -0.32126328     1.85990893     0.00011668    -0.00125433     0.00068567
H        -0.92025334    -0.05590877     1.91541538     0.00019895     0.00039667     0.00018780
H        -0.96563880    -0.08205688    -0.60982997    -0.00013350    -0.00077988    -0.00021261
     6
  Step:    42            Position(A)                                  Velocity(au)
C        -0.03279480     0.03046989    -0.11966387    -0.00003893     0.00002336    -0.00057368
N        -0.04960935    -0.04435652     1.42084079     0.00000486     0.00004268     0.00046326
H         0.90925546     0.05198555    -0.59564299     0.00046848     0.00076923    -0.00022364
H         0.84396747    -0.32829057     1.86363558     0.00002203    -0.00124457     0.00063830
H        -0.91936097    -0.05365908     1.91660636     0.00011702     0.00040381     0.00023665
H        -0.96661581    -0.08649766    -0.61114105    -0.00021119    -0.00079995    -0.00025288
     6
  Step:    43            Position(A)                                  Velocity(au)
C        -0.03301727     0.03059730    -0.12280329    -0.00004001     0.00002198    -0.00054428
N        -0.04954499    -0.04411659     1.42338823     0.00001814     0.00004267     0.00044372
H         0.91213614     0.05635982    -0.59702055     0.00055049     0.00078806    -0.00026411
H         0.84381745    -0.33525490     1.86708479    -0.00007697    -0.00123397     0.00058840
H        -0.91893776    -0.05136906     1.91807581     0.00003368     0.00041162     0.00028634
H        -0.96801302    -0.09104996    -0.61267287    -0.00028249    -0.00082053    -0.00029102
     6
  Step:    44            Position(A)                                  Velocity(au)
C        -0.03324426     0.03071679    -0.12577863    -0.00004059     0.00002056    -0.00051601
N        -0.04940560    -0.04387716     1.42582577     0.00003141     0.00004258     0.00042471
H         0.91543991     0.06083898    -0.59861017     0.00061917     0.00080749    -0.00029914
H         0.84310274    -0.34215353     1.87024598    -0.00017800    -0.00122308     0.00053704
H        -0.91898255    -0.04903479     1.91982325    -0.00004811     0.00042011     0.00033515
H        -0.96978939    -0.09571586    -0.61441050    -0.00034584    -0.00084130    -0.00032611
     6