 Fermi distribution function

Calculation with static geometry


********************************************************************************
 iSCC Total electronic   Diff electronic      SCC error    
   10   -0.53957577E+01   -0.25579538E-12    0.33152864E-07
********************************************************************************

 Total charge:     1.00000000

 Atomic gross charges (e)
 Atom           Charge
    1       0.14594488
    2      -0.03248976
    3       0.18338341
    4       0.27505108
    5       0.26946339
    6       0.15864701

Nr. of electrons (up):     12.00000000
Atom populations (up)
 Atom       Population
    1       3.85405512
    2       5.03248976
    3       0.81661659
    4       0.72494892
    5       0.73053661
    6       0.84135299

l-shell populations (up)
 Atom Sh.   l       Population
    1   1   0       1.33227510
    1   2   1       2.52178002
    2   1   0       1.44148029
    2   2   1       3.59100947
    3   1   0       0.81661659
    4   1   0       0.72494892
    5   1   0       0.73053661
    6   1   0       0.84135299

Orbital populations (up)
 Atom Sh.   l   m       Population  Label
    1   1   0   0       1.33227510  s
    1   2   1  -1       0.60095981  p_y
    1   2   1   0       0.86807335  p_z
    1   2   1   1       1.05274686  p_x
    2   1   0   0       1.44148029  s
    2   2   1  -1       1.32310630  p_y
    2   2   1   0       1.10186601  p_z
    2   2   1   1       1.16603716  p_x
    3   1   0   0       0.81661659  s
    4   1   0   0       0.72494892  s
    5   1   0   0       0.73053661  s
    6   1   0   0       0.84135299  s

Fermi level:                        -0.5006456691 H          -13.6233 eV
Band energy:                        -8.9160672772 H         -242.6185 eV
TS:                                  0.0000000000 H            0.0000 eV
Band free energy (E-TS):            -8.9160672772 H         -242.6185 eV
Extrapolated E(0K):                 -8.9160672772 H         -242.6185 eV
Input / Output electrons (q):     12.0000000000     12.0000000000

Energy H0:                          -5.5292439730 H         -150.4584 eV
Energy SCC:                          0.1334862859 H            3.6323 eV
Total Electronic energy:            -5.3957576871 H         -146.8260 eV
Repulsive energy:                    0.1747306305 H            4.7547 eV
Total energy:                       -5.2210270567 H         -142.0714 eV
Extrapolated to 0:                  -5.2210270567 H         -142.0714 eV
Total Mermin free energy:           -5.2210270567 H         -142.0714 eV
Force related energy:               -5.2210270567 H         -142.0714 eV

SCC converged

Excitation Energy:                   0.1445392925 H            3.9331 eV

Total Forces
    1      0.006609033554      0.008129860743      0.033017886569
    2     -0.001841540609     -0.002953690853     -0.038088229220
    3     -0.012129564564     -0.001852116177      0.004333630819
    4     -0.011590001048     -0.001759339678      0.001614846153
    5      0.014179664930      0.001960621684     -0.002715793507
    6      0.004772407737     -0.003525335719      0.001837659186

Maximal derivative component:        0.380882E-01 au


