     6
  Step:   120            Position(A)                                  Velocity(au)
C        -0.03574911     0.07143278    -0.21705810    -0.00003278     0.00005309    -0.00004676
N        -0.04475650     0.01975228     1.52680117     0.00006017     0.00002627     0.00008788
H         0.89319644    -0.38605809    -0.61357756     0.00036184    -0.00071583     0.00054817
H         0.80173496    -0.53050926     1.77448983    -0.00029838     0.00039174    -0.00066712
H        -0.86794810    -0.58147975     1.73144611    -0.00025154    -0.00059568    -0.00099819
H        -0.99197385    -0.29742423    -0.63082909    -0.00025756    -0.00007797     0.00045312
