 Fermi distribution function

Calculation with static geometry


********************************************************************************
 iSCC Total electronic   Diff electronic      SCC error    
   10   -0.53977383E+01   -0.78781426E-12    0.75518521E-07
********************************************************************************

 Total charge:     1.00000000

 Atomic gross charges (e)
 Atom           Charge
    1       0.16033684
    2      -0.05449196
    3       0.19377635
    4       0.27241446
    5       0.27928289
    6       0.14868143

Nr. of electrons (up):     12.00000000
Atom populations (up)
 Atom       Population
    1       3.83966316
    2       5.05449196
    3       0.80622365
    4       0.72758554
    5       0.72071711
    6       0.85131857

l-shell populations (up)
 Atom Sh.   l       Population
    1   1   0       1.32121781
    1   2   1       2.51844535
    2   1   0       1.42535367
    2   2   1       3.62913829
    3   1   0       0.80622365
    4   1   0       0.72758554
    5   1   0       0.72071711
    6   1   0       0.85131857

Orbital populations (up)
 Atom Sh.   l   m       Population  Label
    1   1   0   0       1.32121781  s
    1   2   1  -1       0.60303368  p_y
    1   2   1   0       0.87820153  p_z
    1   2   1   1       1.03721015  p_x
    2   1   0   0       1.42535367  s
    2   2   1  -1       1.32093917  p_y
    2   2   1   0       1.12226085  p_z
    2   2   1   1       1.18593827  p_x
    3   1   0   0       0.80622365  s
    4   1   0   0       0.72758554  s
    5   1   0   0       0.72071711  s
    6   1   0   0       0.85131857  s

Fermi level:                        -0.4974914548 H          -13.5374 eV
Band energy:                        -8.9167425467 H         -242.6369 eV
TS:                                  0.0000000000 H            0.0000 eV
Band free energy (E-TS):            -8.9167425467 H         -242.6369 eV
Extrapolated E(0K):                 -8.9167425467 H         -242.6369 eV
Input / Output electrons (q):     12.0000000000     12.0000000000

Energy H0:                          -5.5314009347 H         -150.5171 eV
Energy SCC:                          0.1336626084 H            3.6371 eV
Total Electronic energy:            -5.3977383263 H         -146.8799 eV
Repulsive energy:                    0.1832832633 H            4.9874 eV
Total energy:                       -5.2144550630 H         -141.8925 eV
Extrapolated to 0:                  -5.2144550630 H         -141.8925 eV
Total Mermin free energy:           -5.2144550630 H         -141.8925 eV
Force related energy:               -5.2144550630 H         -141.8925 eV

SCC converged

Excitation Energy:                   0.1331244868 H            3.6225 eV

Total Forces
    1      0.006451567192     -0.012748976120      0.041727581222
    2      0.012326196135      0.005176904113     -0.048739451199
    3     -0.009827542247     -0.000849121690      0.000814514764
    4     -0.013613395356      0.007571985045      0.000531426639
    5      0.001745308191     -0.007011378025      0.005268838827
    6      0.002917866084      0.007860586678      0.000397089748

Maximal derivative component:        0.487395E-01 au


