|===============================================================================
|
|  DFTB+ release 20.1
|
|  Copyright (C) 2006 - 2020  DFTB+ developers group
|
|===============================================================================
|
|  When publishing results obtained with DFTB+, please cite the following
|  reference:
|
|  * DFTB+, a software package for efficient approximate density functional
|    theory based atomistic simulations, J. Chem. Phys. 152, 124101 (2020).
|    [doi: 10.1063/1.5143190]
|
|  You should also cite additional publications crediting the parametrization
|  data you use. Please consult the documentation of the SK-files for the
|  references.
|
|===============================================================================

Reading input file 'dftb_in.hsd'
Parser version: 8

--------------------------------------------------------------------------------
Reading SK-files:
Done.


Processed input in HSD format written to 'dftb_pin.hsd'

Starting initialization...
--------------------------------------------------------------------------------
OpenMP threads:              1
Chosen random seed:          498599934
Mode:                        Static calculation
Self consistent charges:     Yes
SCC-tolerance:                 0.100000E-05
Max. scc iterations:                   1000
Shell resolved Hubbard:      No
Spin polarisation:           No
Nr. of up electrons:            16.000000
Nr. of down electrons:          16.000000
Periodic boundaries:         No
Electronic solver:           Relatively robust
Maximal SCC-cycles:                    1000
Initial charges:             Set automatically (system chrg:   0.100E+01)
Included shells:             C:  s, p
                             H:  s
                             N:  s, p
Spin coupling constants:     C   1(s)-1(s):  -0.455900E-01
                             C   1(s)-2(p):  -0.293000E-01
                             C   2(p)-1(s):  -0.293000E-01
                             C   2(p)-2(p):  -0.275500E-01
                             H   1(s)-1(s):  -0.792500E-01
                             N   1(s)-1(s):  -0.468700E-01
                             N   1(s)-2(p):  -0.317000E-01
                             N   2(p)-1(s):  -0.317000E-01
                             N   2(p)-2(p):  -0.307200E-01
Range separated hybrid:      Yes
  Screening parameter omega:   0.300000E+00
  Range separated algorithm:   MatrixBased
Extra options:
                             Mulliken analysis
                             Force calculation
Force type                   original
                             Eigenvector printing


REKS Calcuation:             Yes
SSR(2,2) Calcuation:         Yes
Energy Functional:           (PPS+OSS)/2
Number of Core Orbitals:                 15
Number of Active Orbitals:                2
Number of Basis:                         32
Number of States:                         2
State-Averaging Weight:          0.500000
                                 0.500000
State of Interest:                        1
Initial Guess:               Diagonalize H0 matrix
Newton-Raphson for FON opt:  Yes
NR max. Iterations:                      50
Level Shifting:              Yes
Shift Value:                     0.300000
W Scale Factor:              C  =    3.200000
                             H  =    3.200000
                             N  =    3.200000
Transition Dipole:           No
Gradient of Microstate:      No
CP-REKS Solver:              Preconditioned Conjugate-Gradient
CG max. Iterations:                     100
CG Tolerance:                  0.100000E-07
Memory for A and Hxc:        Direct Updating Without Saving
Non-Adiabatic Coupling:      Yes

--------------------------------------------------------------------------------

***  Geometry step: 0

  iSCC       reks energy        Diff energy         x_a       SCC error   
    1      -16.3988666352       0.0000000000     0.999429    1.22696989
    2      -16.4151023612      -0.0162357261     0.999849    0.04488075
    3      -16.4182669360      -0.0031645748     0.999926    0.02115374
    4      -16.4193845638      -0.0011176277     0.999952    0.01153213
    5      -16.4199002250      -0.0005156612     0.999964    0.00735391
    6      -16.4201696629      -0.0002694379     0.999971    0.00512667
    7      -16.4203210599      -0.0001513971     0.999976    0.00375872
    8      -16.4204106744      -0.0000896144     0.999979    0.00283309
    9      -16.4204661481      -0.0000554737     0.999981    0.00218515
   10      -16.4205019868      -0.0000358388     0.999982    0.00172148
   11      -16.4205261274      -0.0000241406     0.999983    0.00139025
   12      -16.4205430504      -0.0000169230     0.999984    0.00115308
   13      -16.4205553574      -0.0000123069     0.999985    0.00096697
   14      -16.4205646013      -0.0000092440     0.999985    0.00082020
   15      -16.4205717374      -0.0000071360     0.999986    0.00070353
   16      -16.4205773712      -0.0000056339     0.999986    0.00060986
   17      -16.4205818998      -0.0000045286     0.999986    0.00053381
   18      -16.4205855919      -0.0000036921     0.999986    0.00047132
   19      -16.4205886356      -0.0000030436     0.999987    0.00041934
   20      -16.4205911663      -0.0000025307     0.999987    0.00037557
   21      -16.4205932847      -0.0000021184     0.999987    0.00033828
   22      -16.4205950673      -0.0000017826     0.999987    0.00030616
   23      -16.4205965735      -0.0000015062     0.999987    0.00027822
   24      -16.4205978503      -0.0000012768     0.999987    0.00025368
   25      -16.4205989354      -0.0000010851     0.999988    0.00023196
   26      -16.4205998595      -0.0000009242     0.999988    0.00021261
   27      -16.4206006479      -0.0000007884     0.999988    0.00019525
   28      -16.4206013215      -0.0000006735     0.999988    0.00017961
   29      -16.4206018975      -0.0000005760     0.999988    0.00016544
   30      -16.4206023906      -0.0000004931     0.999988    0.00015256
   31      -16.4206028131      -0.0000004225     0.999988    0.00014082
   32      -16.4206031753      -0.0000003622     0.999988    0.00013009
   33      -16.4206034860      -0.0000003107     0.999988    0.00012025
   34      -16.4206037527      -0.0000002666     0.999988    0.00011137
   35      -16.4206039816      -0.0000002289     0.999988    0.00010346
   36      -16.4206041782      -0.0000001966     0.999988    0.00009610
   37      -16.4206043471      -0.0000001689     0.999988    0.00008925
   38      -16.4206044923      -0.0000001452     0.999988    0.00008288
   39      -16.4206046171      -0.0000001248     0.999988    0.00007696
   40      -16.4206047244      -0.0000001073     0.999988    0.00007146
   41      -16.4206048167      -0.0000000923     0.999988    0.00006635
   42      -16.4206048960      -0.0000000793     0.999988    0.00006160
   43      -16.4206049643      -0.0000000683     0.999988    0.00005719
   44      -16.4206050230      -0.0000000587     0.999989    0.00005309
   45      -16.4206050735      -0.0000000505     0.999989    0.00004938
   46      -16.4206051170      -0.0000000435     0.999989    0.00004595
   47      -16.4206051544      -0.0000000374     0.999989    0.00004273
   48      -16.4206051866      -0.0000000322     0.999989    0.00003974
   49      -16.4206052143      -0.0000000277     0.999989    0.00003695
   50      -16.4206052381      -0.0000000239     0.999989    0.00003434
   51      -16.4206052587      -0.0000000205     0.999989    0.00003192
   52      -16.4206052764      -0.0000000177     0.999989    0.00002966
   53      -16.4206052916      -0.0000000152     0.999989    0.00002756
   54      -16.4206053047      -0.0000000131     0.999989    0.00002560
   55      -16.4206053160      -0.0000000113     0.999989    0.00002378
   56      -16.4206053257      -0.0000000097     0.999989    0.00002209
   57      -16.4206053340      -0.0000000084     0.999989    0.00002052
   58      -16.4206053412      -0.0000000072     0.999989    0.00001905
   59      -16.4206053474      -0.0000000062     0.999989    0.00001769
   60      -16.4206053528      -0.0000000053     0.999989    0.00001643
   61      -16.4206053574      -0.0000000046     0.999989    0.00001526
   62      -16.4206053613      -0.0000000040     0.999989    0.00001417
   63      -16.4206053647      -0.0000000034     0.999989    0.00001315
   64      -16.4206053677      -0.0000000029     0.999989    0.00001221
   65      -16.4206053702      -0.0000000025     0.999989    0.00001134
   66      -16.4206053724      -0.0000000022     0.999989    0.00001052
   67      -16.4206053743      -0.0000000019     0.999989    0.00000977
   68      -16.4206053759      -0.0000000016     0.999989    0.00000907
   69      -16.4206053773      -0.0000000014     0.999989    0.00000842
   70      -16.4206053785      -0.0000000012     0.999989    0.00000782
   71      -16.4206053795      -0.0000000010     0.999989    0.00000725
   72      -16.4206053804      -0.0000000009     0.999989    0.00000673
   73      -16.4206053812      -0.0000000008     0.999989    0.00000625
   74      -16.4206053818      -0.0000000007     0.999989    0.00000580
   75      -16.4206053824      -0.0000000006     0.999989    0.00000539
   76      -16.4206053829      -0.0000000005     0.999989    0.00000500
   77      -16.4206053833      -0.0000000004     0.999989    0.00000464
   78      -16.4206053837      -0.0000000004     0.999989    0.00000431
   79      -16.4206053840      -0.0000000003     0.999989    0.00000400
   80      -16.4206053842      -0.0000000003     0.999989    0.00000371
   81      -16.4206053845      -0.0000000002     0.999989    0.00000344
   82      -16.4206053847      -0.0000000002     0.999989    0.00000320
   83      -16.4206053848      -0.0000000002     0.999989    0.00000297
   84      -16.4206053850      -0.0000000001     0.999989    0.00000275
   85      -16.4206053851      -0.0000000001     0.999989    0.00000256
   86      -16.4206053852      -0.0000000001     0.999989    0.00000237
   87      -16.4206053853      -0.0000000001     0.999989    0.00000220
   88      -16.4206053854      -0.0000000001     0.999989    0.00000204
   89      -16.4206053855      -0.0000000001     0.999989    0.00000190
   90      -16.4206053855      -0.0000000001     0.999989    0.00000176
   91      -16.4206053856      -0.0000000001     0.999989    0.00000163
   92      -16.4206053856      -0.0000000000     0.999989    0.00000152
   93      -16.4206053857      -0.0000000000     0.999989    0.00000141
   94      -16.4206053857      -0.0000000000     0.999989    0.00000131
   95      -16.4206053857      -0.0000000000     0.999989    0.00000121
   96      -16.4206053858      -0.0000000000     0.999989    0.00000113
   97      -16.4206053858      -0.0000000000     0.999989    0.00000104
   98      -16.4206053858      -0.0000000000     0.999989    0.00000097
  
--------------------------------------------------
 Final SA-REKS(2,2) energy:     -16.42060539
  
 State     Energy      FON(1)    FON(2)   Spin
  PPS  -16.48790895   1.999978  0.000022  0.00
  OSS  -16.35330183   1.000000  1.000000  0.00
 Trip  -16.39333866   1.000000  1.000000  1.00
--------------------------------------------------

 Lagrangian Wab:   0.00684500  0.00684425

--------------------------------------------------
 SSR: 2SI-2SA-REKS(2,2) Hamiltonian matrix
               PPS           OSS
   PPS   -16.48790895    0.00964783
   OSS     0.00964783  -16.35330183
--------------------------------------------------

----------------------------------------------------------------
 SSR: 2SI-2SA-REKS(2,2) states
                    E_n       C_{PPS}    C_{OSS}
 SSR state  1  -16.48859693  -0.997467   0.071129
 SSR state  2  -16.35261384  -0.071129  -0.997467
----------------------------------------------------------------

 unrelaxed SSR FONs for S0:  1.994918  0.005082

Total Energy:                      -16.4885969278 H         -448.6776 eV
Extrapolated to 0:                 -16.4885969278 H         -448.6776 eV

----------------------------------------------------------------------------------
 Solving CP-REKS equation for  1 state vector...
----------------------------------------------------------------------------------
  CG solver: Constructing Y initial guess
  CG solver: Iteration    1    eps =    0.000767370544
  CG solver: Iteration    2    eps =    0.000222991128
  CG solver: Iteration    3    eps =    0.000085224863
  CG solver: Iteration    4    eps =    0.000045621715
  CG solver: Iteration    5    eps =    0.000003552095
  CG solver: Iteration    6    eps =    0.000001597306
  CG solver: Iteration    7    eps =    0.000000261511
  CG solver: Iteration    8    eps =    0.000000004991
  Convergence reached in CG solver after    8 iterations
  CG solver: Calculating converged R, Z, Q2 matrix
----------------------------------------------------------------------------------

----------------------------------------------------------------------------------
 Solving CP-REKS equation for SI between  1 and  2 state vectors...
----------------------------------------------------------------------------------
  CG solver: Constructing Y initial guess
  CG solver: Iteration    1    eps =    0.062613570498
  CG solver: Iteration    2    eps =    0.004960347924
  CG solver: Iteration    3    eps =    0.004054856017
  CG solver: Iteration    4    eps =    0.002039394787
  CG solver: Iteration    5    eps =    0.000113566399
  CG solver: Iteration    6    eps =    0.000025021354
  CG solver: Iteration    7    eps =    0.000008920854
  CG solver: Iteration    8    eps =    0.000000376769
  CG solver: Iteration    9    eps =    0.000000049632
  CG solver: Iteration   10    eps =    0.000000009834
  Convergence reached in CG solver after   10 iterations
  CG solver: Calculating converged R, Z, Q2 matrix
----------------------------------------------------------------------------------

--------------------------------------------------
 Gradient Information
--------------------------------------------------
           1 st state (SSR)
     0.00703960    -0.04767879    -0.01775756
     0.01789335     0.09916786    -0.00567528
    -0.00416810    -0.00939613     0.00229427
     0.01276332     0.00555257     0.01076798
     0.03062158    -0.02087257     0.01760752
     0.01951238     0.03703312    -0.00831061
    -0.03951643     0.01574530    -0.02934163
     0.00981803    -0.02733645     0.00893811
     0.00648556    -0.01620887    -0.00328360
    -0.00701240    -0.02729642     0.05833468
     0.00272450     0.01265324    -0.03279227
    -0.05983120     0.01455684     0.00424017
     0.00358768    -0.02219822     0.03742481
     0.00008213    -0.01372147    -0.04244660

           2 st state (SSR)
     0.01902725    -0.01524365    -0.01605351
     0.00276839     0.06059088    -0.02059499
    -0.00322167    -0.00839275     0.00035587
     0.01199686     0.00596211     0.01569990
     0.03291279    -0.02182685     0.01817572
     0.07819595     0.07907774    -0.05651222
    -0.09987678    -0.03845451     0.00298583
     0.00857049    -0.01116428     0.01944908
     0.00001509    -0.00358215    -0.00112204
     0.04147058    -0.00670930     0.04622252
     0.00465348     0.01046343    -0.03197189
    -0.09575092    -0.02208368     0.02760827
     0.00183329    -0.01764940     0.03990891
    -0.00259480    -0.01098759    -0.04415144
--------------------------------------------------
 Coupling Information
--------------------------------------------------
 between  1 and  2 states
--------------------------------------------------
 g vector - difference gradient
    -0.00288552    -0.01107471     0.00172790
     0.00448978     0.01798211     0.00924393
    -0.00052110    -0.00033011     0.00082477
     0.00070277     0.00029164    -0.00258127
    -0.00025817     0.00016280    -0.00213446
    -0.03522520    -0.02937015     0.02872347
     0.03605264     0.03283638    -0.02122788
     0.00109028    -0.01066813    -0.00680021
     0.00431221    -0.00828751    -0.00154886
    -0.02678622    -0.00454715     0.00559590
    -0.00080238     0.00097383    -0.00029723
     0.01744697     0.01497584    -0.01082532
     0.00128306    -0.00227169    -0.00105861
     0.00110088    -0.00067315     0.00035787

 h vector - derivative coupling
     0.02211103     0.03703323     0.01805838
    -0.02197457    -0.01048881     0.01191381
    -0.00030029     0.00123274    -0.00107670
     0.00220181     0.00347759    -0.00062855
     0.00627247    -0.00222686    -0.01288789
    -0.03895055    -0.05673569     0.03052925
     0.03881434     0.03808539    -0.03417508
     0.00320986    -0.01743583    -0.01040126
     0.00728236    -0.01332153    -0.00318830
    -0.01602348     0.04082121    -0.00364209
     0.00119970    -0.00092276     0.00081726
    -0.00485867    -0.02463720     0.00682370
     0.00276882     0.00018117     0.00136824
    -0.00175284     0.00493736    -0.00351078

 G vector - GDV
    -0.00599382    -0.01621757    -0.00085202
     0.00756248     0.01928849     0.00745986
    -0.00047322    -0.00050169     0.00096920
     0.00038323    -0.00020477    -0.00246596
    -0.00114560     0.00047714    -0.00028410
    -0.02934178    -0.02102231     0.02410081
     0.03018018     0.02709990    -0.01616373
     0.00062377    -0.00808608    -0.00525548
     0.00323523    -0.00631336    -0.00108078
    -0.02424149    -0.01029356     0.00605608
    -0.00096449     0.00109491    -0.00041019
     0.01795986     0.01832026    -0.01168405
     0.00087719    -0.00227441    -0.00124205
     0.00133846    -0.00136694     0.00085242

 H vector - DCV - non-adiabatic coupling
     0.15794501     0.25802499     0.13325805
    -0.15527763    -0.05758854     0.09637187
    -0.00272969     0.00862918    -0.00697711
     0.01676127     0.02561924    -0.00726902
     0.04539073    -0.01604043    -0.09604401
    -0.32029560    -0.44365192     0.25220874
     0.32016755     0.31150502    -0.27092678
     0.02450369    -0.13805526    -0.08281139
     0.05751133    -0.10562133    -0.02482526
    -0.14459327     0.29241085    -0.02067309
     0.00789585    -0.00570098     0.00563904
    -0.01716263    -0.16371799     0.03837662
     0.02149436    -0.00105165     0.00885540
    -0.01161097     0.03523882    -0.02518306
--------------------------------------------------


--------------------------------------------------------------------------------
DFTB+ running times                          cpu [s]             wall clock [s]
--------------------------------------------------------------------------------
SCC                                    +     0.14  ( 34.0%)      0.14  ( 34.0%)
      Dense to sparse                        0.03  (  6.3%)      0.02  (  5.2%)
      Range separated Hamiltonian            0.01  (  3.0%)      0.01  (  3.1%)
  Density matrix creation                    0.02  (  3.7%)      0.01  (  2.4%)
Post-SCC processing                    +     0.27  ( 65.5%)      0.27  ( 65.0%)
  Force calculation                          0.27  ( 65.4%)      0.27  ( 64.8%)
--------------------------------------------------------------------------------
Missing                                +     0.00  (  0.5%)      0.00  (  1.0%)
Total                                  =     0.41  (100.0%)      0.42  (100.0%)
--------------------------------------------------------------------------------
