|===============================================================================
|
|  DFTB+ release 20.1
|
|  Copyright (C) 2006 - 2020  DFTB+ developers group
|
|===============================================================================
|
|  When publishing results obtained with DFTB+, please cite the following
|  reference:
|
|  * DFTB+, a software package for efficient approximate density functional
|    theory based atomistic simulations, J. Chem. Phys. 152, 124101 (2020).
|    [doi: 10.1063/1.5143190]
|
|  You should also cite additional publications crediting the parametrization
|  data you use. Please consult the documentation of the SK-files for the
|  references.
|
|===============================================================================

Reading input file 'dftb_in.hsd'
Parser version: 8

--------------------------------------------------------------------------------
Reading SK-files:
Done.


Processed input in HSD format written to 'dftb_pin.hsd'

Starting initialization...
--------------------------------------------------------------------------------
OpenMP threads:              1
Chosen random seed:          450122371
Mode:                        Static calculation
Self consistent charges:     Yes
SCC-tolerance:                 0.100000E-05
Max. scc iterations:                   1000
Shell resolved Hubbard:      No
Spin polarisation:           No
Nr. of up electrons:             6.000000
Nr. of down electrons:           6.000000
Periodic boundaries:         No
Electronic solver:           Relatively robust
Maximal SCC-cycles:                    1000
Initial charges:             Set automatically (system chrg:   0.100E+01)
Included shells:             C:  s, p
                             N:  s, p
                             H:  s
Spin coupling constants:     C   1(s)-1(s):  -0.455900E-01
                             C   1(s)-2(p):  -0.293000E-01
                             C   2(p)-1(s):  -0.293000E-01
                             C   2(p)-2(p):  -0.275500E-01
                             N   1(s)-1(s):  -0.468700E-01
                             N   1(s)-2(p):  -0.317000E-01
                             N   2(p)-1(s):  -0.317000E-01
                             N   2(p)-2(p):  -0.307200E-01
                             H   1(s)-1(s):  -0.792500E-01
Range separated hybrid:      Yes
  Screening parameter omega:   0.300000E+00
  Range separated algorithm:   MatrixBased
Extra options:
                             Mulliken analysis
                             Force calculation
Force type                   original
                             Eigenvector printing


REKS Calcuation:             Yes
SSR(2,2) Calcuation:         Yes
Energy Functional:           (PPS+OSS)/2
Number of Core Orbitals:                  5
Number of Active Orbitals:                2
Number of Basis:                         12
Number of States:                         2
State-Averaging Weight:          0.500000
                                 0.500000
State of Interest:                        1
Initial Guess:               Diagonalize H0 matrix
Newton-Raphson for FON opt:  Yes
NR max. Iterations:                      50
Level Shifting:              Yes
Shift Value:                     0.300000
W Scale Factor:              C  =    3.200000
                             N  =    3.200000
                             H  =    3.200000
Transition Dipole:           No
Gradient of Microstate:      No
CP-REKS Solver:              Preconditioned Conjugate-Gradient
CG max. Iterations:                     100
CG Tolerance:                  0.100000E-07
Memory for A and Hxc:        Direct Updating Without Saving
Non-Adiabatic Coupling:      Yes

--------------------------------------------------------------------------------

***  Geometry step: 0

  iSCC       reks energy        Diff energy         x_a       SCC error   
    1       -6.1002983520       0.0000000000     0.850035    1.18981513
    2       -6.1173471723      -0.0170488203     0.926490    0.14487875
    3       -6.1299444069      -0.0125972346     0.998003    0.10108507
    4       -6.1367976317      -0.0068532248     0.999976    0.05475784
    5       -6.1393179147      -0.0025202830     0.999996    0.02999107
    6       -6.1408936556      -0.0015757408     0.999998    0.02049111
    7       -6.1419221984      -0.0010285428     0.999999    0.01830954
    8       -6.1425906619      -0.0006684635     0.999999    0.01448620
    9       -6.1430204096      -0.0004297477     1.000000    0.01211431
   10       -6.1432941893      -0.0002737797     1.000000    0.00947657
   11       -6.1434676324      -0.0001734431     1.000000    0.00772844
   12       -6.1435773468      -0.0001097144     1.000000    0.00594982
   13       -6.1436468553      -0.0000695086     1.000000    0.00482740
   14       -6.1436910810      -0.0000442256     1.000000    0.00366443
   15       -6.1437193843      -0.0000283033     1.000000    0.00300322
   16       -6.1437376295      -0.0000182453     1.000000    0.00224125
   17       -6.1437494822      -0.0000118527     1.000000    0.00188352
   18       -6.1437572469      -0.0000077647     1.000000    0.00136755
   19       -6.1437623756      -0.0000051287     1.000000    0.00120137
   20       -6.1437657920      -0.0000034164     1.000000    0.00083098
   21       -6.1437680859      -0.0000022940     1.000000    0.00078535
   22       -6.1437696385      -0.0000015526     1.000000    0.00049852
   23       -6.1437706970      -0.0000010585     1.000000    0.00053055
   24       -6.1437714237      -0.0000007267     1.000000    0.00032487
   25       -6.1437719258      -0.0000005021     1.000000    0.00037391
   26       -6.1437722747      -0.0000003489     1.000000    0.00023651
   27       -6.1437725185      -0.0000002438     1.000000    0.00027765
   28       -6.1437726896      -0.0000001711     1.000000    0.00017442
   29       -6.1437728102      -0.0000001206     1.000000    0.00021902
   30       -6.1437728955      -0.0000000853     1.000000    0.00013096
   31       -6.1437729559      -0.0000000605     1.000000    0.00018422
   32       -6.1437729989      -0.0000000430     1.000000    0.00010074
   33       -6.1437730295      -0.0000000306     1.000000    0.00016481
   34       -6.1437730512      -0.0000000218     1.000000    0.00009920
   35       -6.1437730667      -0.0000000155     1.000000    0.00015558
   36       -6.1437730776      -0.0000000109     1.000000    0.00010149
   37       -6.1437730853      -0.0000000077     1.000000    0.00015326
   38       -6.1437730907      -0.0000000054     1.000000    0.00010991
   39       -6.1437730944      -0.0000000037     1.000000    0.00015581
   40       -6.1437730968      -0.0000000024     1.000000    0.00012796
   41       -6.1437730984      -0.0000000015     1.000000    0.00016197
   42       -6.1437730992      -0.0000000008     1.000000    0.00014486
   43       -6.1437730996      -0.0000000003     1.000000    0.00017092
   44       -6.1437730995       0.0000000001     1.000000    0.00016138
   45       -6.1437730991       0.0000000004     1.000000    0.00018218
   46       -6.1437730985       0.0000000006     1.000000    0.00017809
   47       -6.1437730977       0.0000000008     1.000000    0.00019546
   48       -6.1437730967       0.0000000010     1.000000    0.00019540
   49       -6.1437730955       0.0000000012     1.000000    0.00021060
   50       -6.1437730941       0.0000000014     1.000000    0.00021360
   51       -6.1437730927       0.0000000015     1.000000    0.00022755
   52       -6.1437730910       0.0000000017     1.000000    0.00023297
   53       -6.1437730892       0.0000000018     1.000000    0.00024631
   54       -6.1437730871       0.0000000020     1.000000    0.00025373
   55       -6.1437730849       0.0000000022     1.000000    0.00026694
   56       -6.1437730825       0.0000000024     1.000000    0.00027608
   57       -6.1437730800       0.0000000026     1.000000    0.00028951
   58       -6.1437730771       0.0000000029     1.000000    0.00030021
   59       -6.1437730740       0.0000000030     1.000000    0.00031414
   60       -6.1437730706       0.0000000034     1.000000    0.00032632
   61       -6.1437730671       0.0000000036     1.000000    0.00034099
   62       -6.1437730630       0.0000000040     1.000000    0.00035461
   63       -6.1437730588       0.0000000042     1.000000    0.00037021
   64       -6.1437730540       0.0000000048     1.000000    0.00038529
   65       -6.1437730491       0.0000000050     1.000000    0.00040199
   66       -6.1437730434       0.0000000056     1.000000    0.00041858
   67       -6.1437730376       0.0000000059     1.000000    0.00043654
   68       -6.1437730309       0.0000000066     1.000000    0.00045471
   69       -6.1437730240       0.0000000069     1.000000    0.00047409
   70       -6.1437730162       0.0000000079     1.000000    0.00049393
   71       -6.1437730081       0.0000000081     1.000000    0.00051489
   72       -6.1437729988       0.0000000093     1.000000    0.00053652
   73       -6.1437729892       0.0000000096     1.000000    0.00055922
   74       -6.1437729782       0.0000000110     1.000000    0.00058277
   75       -6.1437729670       0.0000000113     1.000000    0.00060737
   76       -6.1437729540       0.0000000130     1.000000    0.00063300
   77       -6.1437729407       0.0000000133     1.000000    0.00065967
   78       -6.1437729254       0.0000000153     1.000000    0.00068754
   79       -6.1437729098       0.0000000156     1.000000    0.00071648
   80       -6.1437728917       0.0000000181     1.000000    0.00074678
   81       -6.1437728733       0.0000000183     1.000000    0.00077818
   82       -6.1437728519       0.0000000215     1.000000    0.00081112
   83       -6.1437728303       0.0000000216     1.000000    0.00084519
   84       -6.1437728049       0.0000000254     1.000000    0.00088099
   85       -6.1437727796       0.0000000253     1.000000    0.00091798
   86       -6.1437727495       0.0000000301     1.000000    0.00095688
   87       -6.1437727197       0.0000000298     1.000000    0.00099702
   88       -6.1437726841       0.0000000356     1.000000    0.00103929
   89       -6.1437726492       0.0000000350     1.000000    0.00108286
   90       -6.1437726070       0.0000000422     1.000000    0.00112880
   91       -6.1437725659       0.0000000410     1.000000    0.00117609
   92       -6.1437725160       0.0000000500     1.000000    0.00122600
   93       -6.1437724678       0.0000000482     1.000000    0.00127732
   94       -6.1437724086       0.0000000592     1.000000    0.00133155
   95       -6.1437723521       0.0000000565     1.000000    0.00138725
   96       -6.1437722820       0.0000000702     1.000000    0.00144618
   97       -6.1437722158       0.0000000662     1.000000    0.00150662
   98       -6.1437721326       0.0000000832     1.000000    0.00157065
   99       -6.1437720550       0.0000000776     1.000000    0.00163624
  100       -6.1437719563       0.0000000987     1.000000    0.00170581
  101       -6.1437718655       0.0000000908     1.000000    0.00177696
  102       -6.1437717484       0.0000001171     1.000000    0.00185256
  103       -6.1437716422       0.0000001062     1.000000    0.00192974
  104       -6.1437715031       0.0000001390     1.000000    0.00201188
  105       -6.1437713790       0.0000001241     1.000000    0.00209559
  106       -6.1437712139       0.0000001651     1.000000    0.00218484
  107       -6.1437710689       0.0000001449     1.000000    0.00227562
  108       -6.1437708727       0.0000001962     1.000000    0.00237259
  109       -6.1437707037       0.0000001690     1.000000    0.00247102
  110       -6.1437704704       0.0000002333     1.000000    0.00257638
  111       -6.1437702736       0.0000001968     1.000000    0.00268307
  112       -6.1437699961       0.0000002775     1.000000    0.00279753
  113       -6.1437697672       0.0000002290     1.000000    0.00291315
  114       -6.1437694370       0.0000003302     1.000000    0.00303749
  115       -6.1437691711       0.0000002659     1.000000    0.00316275
  116       -6.1437687780       0.0000003931     1.000000    0.00329782
  117       -6.1437684697       0.0000003083     1.000000    0.00343347
  118       -6.1437680015       0.0000004682     1.000000    0.00358018
  119       -6.1437676448       0.0000003567     1.000000    0.00372704
  120       -6.1437670868       0.0000005580     1.000000    0.00388635
  121       -6.1437666750       0.0000004118     1.000000    0.00404527
  122       -6.1437660097       0.0000006653     1.000000    0.00421824
  123       -6.1437655355       0.0000004742     1.000000    0.00439012
  124       -6.1437647419       0.0000007936     1.000000    0.00457789
  125       -6.1437641974       0.0000005444     1.000000    0.00476368
  126       -6.1437632503       0.0000009471     1.000000    0.00496744
  127       -6.1437626274       0.0000006229     1.000000    0.00516814
  128       -6.1437614966       0.0000011308     1.000000    0.00538918
  129       -6.1437607867       0.0000007099     1.000000    0.00560581
  130       -6.1437594362       0.0000013506     1.000000    0.00584548
  131       -6.1437586308       0.0000008053     1.000000    0.00607911
  132       -6.1437570174       0.0000016135     1.000000    0.00633886
  133       -6.1437561087       0.0000009086     1.000000    0.00659055
  134       -6.1437541807       0.0000019280     1.000000    0.00687187
  135       -6.1437531621       0.0000010186     1.000000    0.00714270
  136       -6.1437508581       0.0000023040     1.000000    0.00744715
  137       -6.1437497249       0.0000011333     1.000000    0.00773819
  138       -6.1437469717       0.0000027531     1.000000    0.00806737
  139       -6.1437457225       0.0000012492     1.000000    0.00837963
  140       -6.1437424334       0.0000032891     1.000000    0.00873515
  141       -6.1437410720       0.0000013614     1.000000    0.00906957
  142       -6.1437371443       0.0000039277     1.000000    0.00945304
  143       -6.1437356813       0.0000014629     1.000000    0.00981045
  144       -6.1437309941       0.0000046872     1.000000    0.01022341
  145       -6.1437294503       0.0000015438     1.000000    0.01060449
  146       -6.1437238621       0.0000055882     1.000000    0.01104838
  147       -6.1437222712       0.0000015909     1.000000    0.01145357
  148       -6.1437156173       0.0000066538     1.000000    0.01192969
  149       -6.1437140306       0.0000015867     1.000000    0.01235915
  150       -6.1437061210       0.0000079097     1.000000    0.01286852
  151       -6.1437046121       0.0000015089     1.000000    0.01332209
  152       -6.1436952291       0.0000093830     1.000000    0.01386542
  153       -6.1436938999       0.0000013292     1.000000    0.01434247
  154       -6.1436827975       0.0000111024     1.000000    0.01492002
  155       -6.1436817846       0.0000010129     1.000000    0.01541943
  156       -6.1436686879       0.0000130967     1.000000    0.01603090
  157       -6.1436681690       0.0000005188     1.000000    0.01655096
  158       -6.1436527759       0.0000153931     1.000000    0.01719538
  159       -6.1436529770      -0.0000002012     1.000000    0.01773373
  160       -6.1436349614       0.0000180156     1.000000    0.01840933
  161       -6.1436361622      -0.0000012008     1.000000    0.01896289
  162       -6.1436151799       0.0000209823     1.000000    0.01966698
  163       -6.1436177177      -0.0000025378     1.000000    0.02023197
  164       -6.1435934150       0.0000243027     1.000000    0.02096087
  165       -6.1435976861      -0.0000042710     1.000000    0.02153280
  166       -6.1435697109       0.0000279751     1.000000    0.02228179
  167       -6.1435761670      -0.0000064561     1.000000    0.02285556
  168       -6.1435441828       0.0000319841     1.000000    0.02361887
  169       -6.1435533229      -0.0000091401     1.000000    0.02418888
  170       -6.1435170244       0.0000362985     0.999999    0.02495984
  171       -6.1435293804      -0.0000123559     1.000000    0.02552017
  172       -6.1434885095       0.0000408708     0.999999    0.02629131
  173       -6.1435046257      -0.0000161161     1.000000    0.02683600
  174       -6.1434589873       0.0000456384     0.999999    0.02759934
  175       -6.1434793951      -0.0000204079     1.000000    0.02812263
  176       -6.1434288695       0.0000505256     0.999999    0.02886997
  177       -6.1434540593      -0.0000251898     1.000000    0.02936661
  178       -6.1433986111       0.0000554482     0.999999    0.03008994
  179       -6.1434290029      -0.0000303918     1.000000    0.03055541
  180       -6.1433686842       0.0000603187     0.999999    0.03124730
  181       -6.1434046027      -0.0000359185     1.000000    0.03167808
  182       -6.1433395504       0.0000650523     0.999999    0.03233198
  183       -6.1433812050      -0.0000416545     1.000000    0.03272568
  184       -6.1433116325       0.0000695724     0.999999    0.03333628
  185       -6.1433591067      -0.0000474741     1.000000    0.03369167
  186       -6.1432852911       0.0000738155     0.999999    0.03425508
  187       -6.1433385413      -0.0000532502     1.000000    0.03457210
  188       -6.1432608075       0.0000777338     0.999999    0.03508595
  189       -6.1433196717      -0.0000588642     1.000000    0.03536553
  190       -6.1432383749       0.0000812968     0.999999    0.03582895
  191       -6.1433025884      -0.0000642135     1.000000    0.03607288
  192       -6.1432180980       0.0000844904     0.999999    0.03648637
  193       -6.1432873153      -0.0000692172     1.000000    0.03669711
  194       -6.1431999998       0.0000873155     0.999999    0.03706233
  195       -6.1432738181      -0.0000738183     1.000000    0.03724276
  196       -6.1431840332       0.0000897849     0.999999    0.03756232
  197       -6.1432620167      -0.0000779834     1.000000    0.03771553
  198       -6.1431700962       0.0000919205     0.999999    0.03799273
  199       -6.1432517969      -0.0000817007     1.000000    0.03812188
  200       -6.1431580470       0.0000937499     0.999999    0.03836041
  201       -6.1432430233      -0.0000849764     1.000000    0.03846858
  202       -6.1431477193       0.0000953041     0.999999    0.03867235
  203       -6.1432355494      -0.0000878302     1.000000    0.03876245
  204       -6.1431389346       0.0000966148     0.999999    0.03893540
  205       -6.1432292262      -0.0000902916     1.000000    0.03901008
  206       -6.1431315128       0.0000977134     0.999999    0.03915600
  207       -6.1432239087      -0.0000923959     1.000000    0.03921764
  208       -6.1431252795       0.0000986292     0.999999    0.03934012
  209       -6.1432194607      -0.0000941811     1.000000    0.03939082
  210       -6.1431200716       0.0000993891     0.999999    0.03949315
  211       -6.1432157570      -0.0000956854     1.000000    0.03953473
  212       -6.1431157398       0.0001000172     0.999999    0.03961987
  213       -6.1432126854      -0.0000969456     1.000000    0.03965388
  214       -6.1431121509       0.0001005346     0.999999    0.03972446
  215       -6.1432101470      -0.0000979961     1.000000    0.03975223
  216       -6.1431091874       0.0001009596     0.999999    0.03981056
  217       -6.1432080553      -0.0000988680     1.000000    0.03983320
  218       -6.1431067474       0.0001013080     0.999999    0.03988127
  219       -6.1432063363      -0.0000995889     1.000000    0.03989969
  220       -6.1431047434       0.0001015929     0.999999    0.03993921
  221       -6.1432049266      -0.0001001832     1.000000    0.03995418
  222       -6.1431031011       0.0001018256     0.999999    0.03998661
  223       -6.1432037728      -0.0001006717     1.000000    0.03999877
  224       -6.1431017575       0.0001020153     0.999999    0.04002532
  225       -6.1432028299      -0.0001010724     1.000000    0.04003519
  226       -6.1431006601       0.0001021698     0.999999    0.04005690
  227       -6.1432020605      -0.0001014004     1.000000    0.04006491
  228       -6.1430997650       0.0001022956     0.999999    0.04008264
  229       -6.1432014334      -0.0001016684     1.000000    0.04008913
  230       -6.1430990356       0.0001023978     0.999999    0.04010358
  231       -6.1432009228      -0.0001018871     1.000000    0.04010884
  232       -6.1430984419       0.0001024808     0.999999    0.04012062
  233       -6.1432005073      -0.0001020654     1.000000    0.04012488
  234       -6.1430979591       0.0001025483     0.999999    0.04013447
  235       -6.1432001696      -0.0001022105     1.000000    0.04013792
  236       -6.1430975666       0.0001026030     0.999999    0.04014572
  237       -6.1431998952      -0.0001023286     1.000000    0.04014852
  238       -6.1430972479       0.0001026474     0.999999    0.04015485
  239       -6.1431996725      -0.0001024246     1.000000    0.04015712
  240       -6.1430969891       0.0001026834     0.999999    0.04016227
  241       -6.1431994916      -0.0001025026     1.000000    0.04016410
  242       -6.1430967790       0.0001027126     0.999999    0.04016828
  243       -6.1431993449      -0.0001025659     1.000000    0.04016976
  244       -6.1430966087       0.0001027362     0.999999    0.04017316
  245       -6.1431992259      -0.0001026173     1.000000    0.04017436
  246       -6.1430964705       0.0001027554     0.999999    0.04017711
  247       -6.1431991295      -0.0001026589     1.000000    0.04017808
  248       -6.1430963585       0.0001027709     0.999999    0.04018032
  249       -6.1431990513      -0.0001026927     1.000000    0.04018110
  250       -6.1430962677       0.0001027835     0.999999    0.04018291
  251       -6.1431989879      -0.0001027202     1.000000    0.04018355
  252       -6.1430961942       0.0001027937     0.999999    0.04018502
  253       -6.1431989365      -0.0001027424     1.000000    0.04018553
  254       -6.1430961346       0.0001028020     0.999999    0.04018672
  255       -6.1431988949      -0.0001027604     1.000000    0.04018714
  256       -6.1430960863       0.0001028087     0.999999    0.04018810
  257       -6.1431988612      -0.0001027750     1.000000    0.04018844
  258       -6.1430960472       0.0001028141     0.999999    0.04018922
  259       -6.1431988339      -0.0001027868     1.000000    0.04018949
  260       -6.1430960155       0.0001028185     0.999999    0.04019013
  261       -6.1431988118      -0.0001027964     1.000000    0.04019035
  262       -6.1430959898       0.0001028220     0.999999    0.04019086
  263       -6.1431987939      -0.0001028041     1.000000    0.04019104
  264       -6.1430959690       0.0001028249     0.999999    0.04019145
  265       -6.1431987794      -0.0001028104     1.000000    0.04019160
  266       -6.1430959522       0.0001028272     0.999999    0.04019194
  267       -6.1431987677      -0.0001028155     1.000000    0.04019205
  268       -6.1430959386       0.0001028291     0.999999    0.04019232
  269       -6.1431987582      -0.0001028196     1.000000    0.04019242
  270       -6.1430959276       0.0001028306     0.999999    0.04019264
  271       -6.1431987505      -0.0001028229     1.000000    0.04019272
  272       -6.1430959187       0.0001028318     0.999999    0.04019290
  273       -6.1431987443      -0.0001028256     1.000000    0.04019296
  274       -6.1430959114       0.0001028328     0.999999    0.04019310
  275       -6.1431987392      -0.0001028278     1.000000    0.04019315
  276       -6.1430959056       0.0001028337     0.999999    0.04019327
  277       -6.1431987351      -0.0001028296     1.000000    0.04019331
  278       -6.1430959008       0.0001028343     0.999999    0.04019340
  279       -6.1431987318      -0.0001028310     1.000000    0.04019344
  280       -6.1430958970       0.0001028348     0.999999    0.04019351
  281       -6.1431987292      -0.0001028322     1.000000    0.04019354
  282       -6.1430958939       0.0001028353     0.999999    0.04019360
  283       -6.1431987270      -0.0001028331     1.000000    0.04019362
  284       -6.1430958914       0.0001028356     0.999999    0.04019367
  285       -6.1431987253      -0.0001028339     1.000000    0.04019369
  286       -6.1430958894       0.0001028359     0.999999    0.04019373
  287       -6.1431987238      -0.0001028345     1.000000    0.04019375
  288       -6.1430958877       0.0001028361     0.999999    0.04019378
  289       -6.1431987227      -0.0001028350     1.000000    0.04019379
  290       -6.1430958864       0.0001028363     0.999999    0.04019382
  291       -6.1431987218      -0.0001028354     1.000000    0.04019383
  292       -6.1430958853       0.0001028365     0.999999    0.04019385
  293       -6.1431987210      -0.0001028357     1.000000    0.04019386
  294       -6.1430958844       0.0001028366     0.999999    0.04019387
  295       -6.1431987204      -0.0001028360     1.000000    0.04019388
  296       -6.1430958837       0.0001028367     0.999999    0.04019389
  297       -6.1431987199      -0.0001028362     1.000000    0.04019390
  298       -6.1430958832       0.0001028368     0.999999    0.04019391
  299       -6.1431987195      -0.0001028364     1.000000    0.04019391
  300       -6.1430958827       0.0001028368     0.999999    0.04019392
  301       -6.1431987192      -0.0001028365     1.000000    0.04019393
  302       -6.1430958823       0.0001028369     0.999999    0.04019393
  303       -6.1431987189      -0.0001028366     1.000000    0.04019394
  304       -6.1430958820       0.0001028369     0.999999    0.04019394
  305       -6.1431987187      -0.0001028367     1.000000    0.04019394
  306       -6.1430958818       0.0001028369     0.999999    0.04019395
  307       -6.1431987185      -0.0001028368     1.000000    0.04019395
  308       -6.1430958816       0.0001028370     0.999999    0.04019396
  309       -6.1431987184      -0.0001028368     1.000000    0.04019396
  310       -6.1430958814       0.0001028370     0.999999    0.04019396
  311       -6.1431987183      -0.0001028369     1.000000    0.04019396
  312       -6.1430958813       0.0001028370     0.999999    0.04019396
  313       -6.1431987182      -0.0001028369     1.000000    0.04019396
  314       -6.1430958812       0.0001028370     0.999999    0.04019397
  315       -6.1431987181      -0.0001028370     1.000000    0.04019397
  316       -6.1430958811       0.0001028370     0.999999    0.04019397
  317       -6.1431987181      -0.0001028370     1.000000    0.04019397
  318       -6.1430958810       0.0001028370     0.999999    0.04019397
  319       -6.1431987180      -0.0001028370     1.000000    0.04019397
  320       -6.1430958810       0.0001028371     0.999999    0.04019397
  321       -6.1431987180      -0.0001028370     1.000000    0.04019397
  322       -6.1430958809       0.0001028371     0.999999    0.04019397
  323       -6.1431987179      -0.0001028370     1.000000    0.04019397
  324       -6.1430958809       0.0001028371     0.999999    0.04019397
  325       -6.1431987179      -0.0001028370     1.000000    0.04019397
  326       -6.1430958809       0.0001028371     0.999999    0.04019398
  327       -6.1431987179      -0.0001028371     1.000000    0.04019398
  328       -6.1430958808       0.0001028371     0.999999    0.04019398
  329       -6.1431987179      -0.0001028371     1.000000    0.04019398
  330       -6.1430958808       0.0001028371     0.999999    0.04019398
  331       -6.1431987179      -0.0001028371     1.000000    0.04019398
  332       -6.1430958808       0.0001028371     0.999999    0.04019398
  333       -6.1431987179      -0.0001028371     1.000000    0.04019398
  334       -6.1430958808       0.0001028371     0.999999    0.04019398
  335       -6.1431987179      -0.0001028371     1.000000    0.04019398
  336       -6.1430958808       0.0001028371     0.999999    0.04019398
  337       -6.1431987178      -0.0001028371     1.000000    0.04019398
  338       -6.1430958808       0.0001028371     0.999999    0.04019398
  339       -6.1431987178      -0.0001028371     1.000000    0.04019398
  340       -6.1430958808       0.0001028371     0.999999    0.04019398
  341       -6.1431987178      -0.0001028371     1.000000    0.04019398
  342       -6.1430958807       0.0001028371     0.999999    0.04019398
  343       -6.1431987178      -0.0001028371     1.000000    0.04019398
  344       -6.1430958807       0.0001028371     0.999999    0.04019398
  345       -6.1431987178      -0.0001028371     1.000000    0.04019398
  346       -6.1430958807       0.0001028371     0.999999    0.04019398
  347       -6.1431987178      -0.0001028371     1.000000    0.04019398
  348       -6.1430958807       0.0001028371     0.999999    0.04019398
  349       -6.1431987178      -0.0001028371     1.000000    0.04019398
  350       -6.1430958807       0.0001028371     0.999999    0.04019398
  351       -6.1431987178      -0.0001028371     1.000000    0.04019398
  352       -6.1430958807       0.0001028371     0.999999    0.04019398
  353       -6.1431987178      -0.0001028371     1.000000    0.04019398
  354       -6.1430958807       0.0001028371     0.999999    0.04019398
  355       -6.1431987178      -0.0001028371     1.000000    0.04019398
  356       -6.1430958807       0.0001028371     0.999999    0.04019398
  357       -6.1431987178      -0.0001028371     1.000000    0.04019398
  358       -6.1430958807       0.0001028371     0.999999    0.04019398
  359       -6.1431987178      -0.0001028371     1.000000    0.04019398
  360       -6.1430958807       0.0001028371     0.999999    0.04019398
  361       -6.1431987178      -0.0001028371     1.000000    0.04019398
  362       -6.1430958807       0.0001028371     0.999999    0.04019398
  363       -6.1431987178      -0.0001028371     1.000000    0.04019398
  364       -6.1430958807       0.0001028371     0.999999    0.04019398
  365       -6.1431987178      -0.0001028371     1.000000    0.04019398
  366       -6.1430958807       0.0001028371     0.999999    0.04019398
  367       -6.1431987178      -0.0001028371     1.000000    0.04019398
  368       -6.1430958807       0.0001028371     0.999999    0.04019398
  369       -6.1431987178      -0.0001028371     1.000000    0.04019398
  370       -6.1430958807       0.0001028371     0.999999    0.04019398
  371       -6.1431987178      -0.0001028371     1.000000    0.04019398
  372       -6.1430958807       0.0001028371     0.999999    0.04019398
  373       -6.1431987178      -0.0001028371     1.000000    0.04019398
  374       -6.1430958807       0.0001028371     0.999999    0.04019398
  375       -6.1431987178      -0.0001028371     1.000000    0.04019398
  376       -6.1430958807       0.0001028371     0.999999    0.04019398
  377       -6.1431987178      -0.0001028371     1.000000    0.04019398
  378       -6.1430958807       0.0001028371     0.999999    0.04019398
  379       -6.1431987178      -0.0001028371     1.000000    0.04019398
  380       -6.1430958807       0.0001028371     0.999999    0.04019398
  381       -6.1431987178      -0.0001028371     1.000000    0.04019398
  382       -6.1430958807       0.0001028371     0.999999    0.04019398
  383       -6.1431987178      -0.0001028371     1.000000    0.04019398
  384       -6.1430958807       0.0001028371     0.999999    0.04019398
  385       -6.1431987178      -0.0001028371     1.000000    0.04019398
  386       -6.1430958807       0.0001028371     0.999999    0.04019398
  387       -6.1431987178      -0.0001028371     1.000000    0.04019398
  388       -6.1430958807       0.0001028371     0.999999    0.04019398
  389       -6.1431987178      -0.0001028371     1.000000    0.04019398
  390       -6.1430958807       0.0001028371     0.999999    0.04019398
  391       -6.1431987178      -0.0001028371     1.000000    0.04019398
  392       -6.1430958807       0.0001028371     0.999999    0.04019398
  393       -6.1431987178      -0.0001028371     1.000000    0.04019398
  394       -6.1430958807       0.0001028371     0.999999    0.04019398
  395       -6.1431987178      -0.0001028371     1.000000    0.04019398
  396       -6.1430958807       0.0001028371     0.999999    0.04019398
  397       -6.1431987178      -0.0001028371     1.000000    0.04019398
  398       -6.1430958807       0.0001028371     0.999999    0.04019398
  399       -6.1431987178      -0.0001028371     1.000000    0.04019398
  400       -6.1430958807       0.0001028371     0.999999    0.04019398
  401       -6.1431987178      -0.0001028371     1.000000    0.04019398
  402       -6.1430958807       0.0001028371     0.999999    0.04019398
  403       -6.1431987178      -0.0001028371     1.000000    0.04019398
  404       -6.1430958807       0.0001028371     0.999999    0.04019398
  405       -6.1431987178      -0.0001028371     1.000000    0.04019398
  406       -6.1430958807       0.0001028371     0.999999    0.04019398
  407       -6.1431987178      -0.0001028371     1.000000    0.04019398
  408       -6.1430958807       0.0001028371     0.999999    0.04019398
  409       -6.1431987178      -0.0001028371     1.000000    0.04019398
  410       -6.1430958807       0.0001028371     0.999999    0.04019398
  411       -6.1431987178      -0.0001028371     1.000000    0.04019398
  412       -6.1430958807       0.0001028371     0.999999    0.04019398
  413       -6.1431987178      -0.0001028371     1.000000    0.04019398
  414       -6.1430958807       0.0001028371     0.999999    0.04019398
  415       -6.1431987178      -0.0001028371     1.000000    0.04019398
  416       -6.1430958807       0.0001028371     0.999999    0.04019398
  417       -6.1431987178      -0.0001028371     1.000000    0.04019398
  418       -6.1430958807       0.0001028371     0.999999    0.04019398
  419       -6.1431987178      -0.0001028371     1.000000    0.04019398
  420       -6.1430958807       0.0001028371     0.999999    0.04019398
  421       -6.1431987178      -0.0001028371     1.000000    0.04019398
  422       -6.1430958807       0.0001028371     0.999999    0.04019398
  423       -6.1431987178      -0.0001028371     1.000000    0.04019398
  424       -6.1430958807       0.0001028371     0.999999    0.04019398
  425       -6.1431987178      -0.0001028371     1.000000    0.04019398
  426       -6.1430958807       0.0001028371     0.999999    0.04019398
  427       -6.1431987178      -0.0001028371     1.000000    0.04019398
  428       -6.1430958807       0.0001028371     0.999999    0.04019398
  429       -6.1431987178      -0.0001028371     1.000000    0.04019398
  430       -6.1430958807       0.0001028371     0.999999    0.04019398
  431       -6.1431987178      -0.0001028371     1.000000    0.04019398
  432       -6.1430958807       0.0001028371     0.999999    0.04019398
  433       -6.1431987178      -0.0001028371     1.000000    0.04019398
  434       -6.1430958807       0.0001028371     0.999999    0.04019398
  435       -6.1431987178      -0.0001028371     1.000000    0.04019398
  436       -6.1430958807       0.0001028371     0.999999    0.04019398
  437       -6.1431987178      -0.0001028371     1.000000    0.04019398
  438       -6.1430958807       0.0001028371     0.999999    0.04019398
  439       -6.1431987178      -0.0001028371     1.000000    0.04019398
  440       -6.1430958807       0.0001028371     0.999999    0.04019398
  441       -6.1431987178      -0.0001028371     1.000000    0.04019398
  442       -6.1430958807       0.0001028371     0.999999    0.04019398
  443       -6.1431987178      -0.0001028371     1.000000    0.04019398
  444       -6.1430958807       0.0001028371     0.999999    0.04019398
  445       -6.1431987178      -0.0001028371     1.000000    0.04019398
  446       -6.1430958807       0.0001028371     0.999999    0.04019398
  447       -6.1431987178      -0.0001028371     1.000000    0.04019398
  448       -6.1430958807       0.0001028371     0.999999    0.04019398
  449       -6.1431987178      -0.0001028371     1.000000    0.04019398
  450       -6.1430958807       0.0001028371     0.999999    0.04019398
  451       -6.1431987178      -0.0001028371     1.000000    0.04019398
  452       -6.1430958807       0.0001028371     0.999999    0.04019398
  453       -6.1431987178      -0.0001028371     1.000000    0.04019398
  454       -6.1430958807       0.0001028371     0.999999    0.04019398
  455       -6.1431987178      -0.0001028371     1.000000    0.04019398
  456       -6.1430958807       0.0001028371     0.999999    0.04019398
  457       -6.1431987178      -0.0001028371     1.000000    0.04019398
  458       -6.1430958807       0.0001028371     0.999999    0.04019398
  459       -6.1431987178      -0.0001028371     1.000000    0.04019398
  460       -6.1430958807       0.0001028371     0.999999    0.04019398
  461       -6.1431987178      -0.0001028371     1.000000    0.04019398
  462       -6.1430958807       0.0001028371     0.999999    0.04019398
  463       -6.1431987178      -0.0001028371     1.000000    0.04019398
  464       -6.1430958807       0.0001028371     0.999999    0.04019398
  465       -6.1431987178      -0.0001028371     1.000000    0.04019398
  466       -6.1430958807       0.0001028371     0.999999    0.04019398
  467       -6.1431987178      -0.0001028371     1.000000    0.04019398
  468       -6.1430958807       0.0001028371     0.999999    0.04019398
  469       -6.1431987178      -0.0001028371     1.000000    0.04019398
  470       -6.1430958807       0.0001028371     0.999999    0.04019398
  471       -6.1431987178      -0.0001028371     1.000000    0.04019398
  472       -6.1430958807       0.0001028371     0.999999    0.04019398
  473       -6.1431987178      -0.0001028371     1.000000    0.04019398
  474       -6.1430958807       0.0001028371     0.999999    0.04019398
  475       -6.1431987178      -0.0001028371     1.000000    0.04019398
  476       -6.1430958807       0.0001028371     0.999999    0.04019398
  477       -6.1431987178      -0.0001028371     1.000000    0.04019398
  478       -6.1430958807       0.0001028371     0.999999    0.04019398
  479       -6.1431987178      -0.0001028371     1.000000    0.04019398
  480       -6.1430958807       0.0001028371     0.999999    0.04019398
  481       -6.1431987178      -0.0001028371     1.000000    0.04019398
  482       -6.1430958807       0.0001028371     0.999999    0.04019398
  483       -6.1431987178      -0.0001028371     1.000000    0.04019398
  484       -6.1430958807       0.0001028371     0.999999    0.04019398
  485       -6.1431987178      -0.0001028371     1.000000    0.04019398
  486       -6.1430958807       0.0001028371     0.999999    0.04019398
  487       -6.1431987178      -0.0001028371     1.000000    0.04019398
  488       -6.1430958807       0.0001028371     0.999999    0.04019398
  489       -6.1431987178      -0.0001028371     1.000000    0.04019398
  490       -6.1430958807       0.0001028371     0.999999    0.04019398
  491       -6.1431987178      -0.0001028371     1.000000    0.04019398
  492       -6.1430958807       0.0001028371     0.999999    0.04019398
  493       -6.1431987178      -0.0001028371     1.000000    0.04019398
  494       -6.1430958807       0.0001028371     0.999999    0.04019398
  495       -6.1431987178      -0.0001028371     1.000000    0.04019398
  496       -6.1430958807       0.0001028371     0.999999    0.04019398
  497       -6.1431987178      -0.0001028371     1.000000    0.04019398
  498       -6.1430958807       0.0001028371     0.999999    0.04019398
  499       -6.1431987178      -0.0001028371     1.000000    0.04019398
  500       -6.1430958807       0.0001028371     0.999999    0.04019398
  501       -6.1431987178      -0.0001028371     1.000000    0.04019398
  502       -6.1430958807       0.0001028371     0.999999    0.04019398
  503       -6.1431987178      -0.0001028371     1.000000    0.04019398
  504       -6.1430958807       0.0001028371     0.999999    0.04019398
  505       -6.1431987178      -0.0001028371     1.000000    0.04019398
  506       -6.1430958807       0.0001028371     0.999999    0.04019398
  507       -6.1431987178      -0.0001028371     1.000000    0.04019398
  508       -6.1430958807       0.0001028371     0.999999    0.04019398
  509       -6.1431987178      -0.0001028371     1.000000    0.04019398
  510       -6.1430958807       0.0001028371     0.999999    0.04019398
  511       -6.1431987178      -0.0001028371     1.000000    0.04019398
  512       -6.1430958807       0.0001028371     0.999999    0.04019398
  513       -6.1431987178      -0.0001028371     1.000000    0.04019398
  514       -6.1430958807       0.0001028371     0.999999    0.04019398
  515       -6.1431987178      -0.0001028371     1.000000    0.04019398
  516       -6.1430958807       0.0001028371     0.999999    0.04019398
  517       -6.1431987178      -0.0001028371     1.000000    0.04019398
  518       -6.1430958807       0.0001028371     0.999999    0.04019398
  519       -6.1431987178      -0.0001028371     1.000000    0.04019398
  520       -6.1430958807       0.0001028371     0.999999    0.04019398
  521       -6.1431987178      -0.0001028371     1.000000    0.04019398
  522       -6.1430958807       0.0001028371     0.999999    0.04019398
  523       -6.1431987178      -0.0001028371     1.000000    0.04019398
  524       -6.1430958807       0.0001028371     0.999999    0.04019398
  525       -6.1431987178      -0.0001028371     1.000000    0.04019398
  526       -6.1430958807       0.0001028371     0.999999    0.04019398
  527       -6.1431987178      -0.0001028371     1.000000    0.04019398
  528       -6.1430958807       0.0001028371     0.999999    0.04019398
  529       -6.1431987178      -0.0001028371     1.000000    0.04019398
  530       -6.1430958807       0.0001028371     0.999999    0.04019398
  531       -6.1431987178      -0.0001028371     1.000000    0.04019398
  532       -6.1430958807       0.0001028371     0.999999    0.04019398
  533       -6.1431987178      -0.0001028371     1.000000    0.04019398
  534       -6.1430958807       0.0001028371     0.999999    0.04019398
  535       -6.1431987178      -0.0001028371     1.000000    0.04019398
  536       -6.1430958807       0.0001028371     0.999999    0.04019398
  537       -6.1431987178      -0.0001028371     1.000000    0.04019398
  538       -6.1430958807       0.0001028371     0.999999    0.04019398
  539       -6.1431987178      -0.0001028371     1.000000    0.04019398
  540       -6.1430958807       0.0001028371     0.999999    0.04019398
  541       -6.1431987178      -0.0001028371     1.000000    0.04019398
  542       -6.1430958807       0.0001028371     0.999999    0.04019398
  543       -6.1431987178      -0.0001028371     1.000000    0.04019398
  544       -6.1430958807       0.0001028371     0.999999    0.04019398
  545       -6.1431987178      -0.0001028371     1.000000    0.04019398
  546       -6.1430958807       0.0001028371     0.999999    0.04019398
  547       -6.1431987178      -0.0001028371     1.000000    0.04019398
  548       -6.1430958807       0.0001028371     0.999999    0.04019398
  549       -6.1431987178      -0.0001028371     1.000000    0.04019398
  550       -6.1430958807       0.0001028371     0.999999    0.04019398
  551       -6.1431987178      -0.0001028371     1.000000    0.04019398
  552       -6.1430958807       0.0001028371     0.999999    0.04019398
  553       -6.1431987178      -0.0001028371     1.000000    0.04019398
  554       -6.1430958807       0.0001028371     0.999999    0.04019398
  555       -6.1431987178      -0.0001028371     1.000000    0.04019398
  556       -6.1430958807       0.0001028371     0.999999    0.04019398
  557       -6.1431987178      -0.0001028371     1.000000    0.04019398
  558       -6.1430958807       0.0001028371     0.999999    0.04019398
  559       -6.1431987178      -0.0001028371     1.000000    0.04019398
  560       -6.1430958807       0.0001028371     0.999999    0.04019398
  561       -6.1431987178      -0.0001028371     1.000000    0.04019398
  562       -6.1430958807       0.0001028371     0.999999    0.04019398
  563       -6.1431987178      -0.0001028371     1.000000    0.04019398
  564       -6.1430958807       0.0001028371     0.999999    0.04019398
  565       -6.1431987178      -0.0001028371     1.000000    0.04019398
  566       -6.1430958807       0.0001028371     0.999999    0.04019398
  567       -6.1431987178      -0.0001028371     1.000000    0.04019398
  568       -6.1430958807       0.0001028371     0.999999    0.04019398
  569       -6.1431987178      -0.0001028371     1.000000    0.04019398
  570       -6.1430958807       0.0001028371     0.999999    0.04019398
  571       -6.1431987178      -0.0001028371     1.000000    0.04019398
  572       -6.1430958807       0.0001028371     0.999999    0.04019398
  573       -6.1431987178      -0.0001028371     1.000000    0.04019398
  574       -6.1430958807       0.0001028371     0.999999    0.04019398
  575       -6.1431987178      -0.0001028371     1.000000    0.04019398
  576       -6.1430958807       0.0001028371     0.999999    0.04019398
  577       -6.1431987178      -0.0001028371     1.000000    0.04019398
  578       -6.1430958807       0.0001028371     0.999999    0.04019398
  579       -6.1431987178      -0.0001028371     1.000000    0.04019398
  580       -6.1430958807       0.0001028371     0.999999    0.04019398
  581       -6.1431987178      -0.0001028371     1.000000    0.04019398
  582       -6.1430958807       0.0001028371     0.999999    0.04019398
  583       -6.1431987178      -0.0001028371     1.000000    0.04019398
  584       -6.1430958807       0.0001028371     0.999999    0.04019398
  585       -6.1431987178      -0.0001028371     1.000000    0.04019398
  586       -6.1430958807       0.0001028371     0.999999    0.04019398
  587       -6.1431987178      -0.0001028371     1.000000    0.04019398
  588       -6.1430958807       0.0001028371     0.999999    0.04019398
  589       -6.1431987178      -0.0001028371     1.000000    0.04019398
  590       -6.1430958807       0.0001028371     0.999999    0.04019398
  591       -6.1431987178      -0.0001028371     1.000000    0.04019398
  592       -6.1430958807       0.0001028371     0.999999    0.04019398
  593       -6.1431987178      -0.0001028371     1.000000    0.04019398
  594       -6.1430958807       0.0001028371     0.999999    0.04019398
  595       -6.1431987178      -0.0001028371     1.000000    0.04019398
  596       -6.1430958807       0.0001028371     0.999999    0.04019398
  597       -6.1431987178      -0.0001028371     1.000000    0.04019398
  598       -6.1430958807       0.0001028371     0.999999    0.04019398
  599       -6.1431987178      -0.0001028371     1.000000    0.04019398
  600       -6.1430958807       0.0001028371     0.999999    0.04019398
  601       -6.1431987178      -0.0001028371     1.000000    0.04019398
  602       -6.1430958807       0.0001028371     0.999999    0.04019398
  603       -6.1431987178      -0.0001028371     1.000000    0.04019398
  604       -6.1430958807       0.0001028371     0.999999    0.04019398
  605       -6.1431987178      -0.0001028371     1.000000    0.04019398
  606       -6.1430958807       0.0001028371     0.999999    0.04019398
  607       -6.1431987178      -0.0001028371     1.000000    0.04019398
  608       -6.1430958807       0.0001028371     0.999999    0.04019398
  609       -6.1431987178      -0.0001028371     1.000000    0.04019398
  610       -6.1430958807       0.0001028371     0.999999    0.04019398
  611       -6.1431987178      -0.0001028371     1.000000    0.04019398
  612       -6.1430958807       0.0001028371     0.999999    0.04019398
  613       -6.1431987178      -0.0001028371     1.000000    0.04019398
  614       -6.1430958807       0.0001028371     0.999999    0.04019398
  615       -6.1431987178      -0.0001028371     1.000000    0.04019398
  616       -6.1430958807       0.0001028371     0.999999    0.04019398
  617       -6.1431987178      -0.0001028371     1.000000    0.04019398
  618       -6.1430958807       0.0001028371     0.999999    0.04019398
  619       -6.1431987178      -0.0001028371     1.000000    0.04019398
  620       -6.1430958807       0.0001028371     0.999999    0.04019398
  621       -6.1431987178      -0.0001028371     1.000000    0.04019398
  622       -6.1430958807       0.0001028371     0.999999    0.04019398
  623       -6.1431987178      -0.0001028371     1.000000    0.04019398
  624       -6.1430958807       0.0001028371     0.999999    0.04019398
  625       -6.1431987178      -0.0001028371     1.000000    0.04019398
  626       -6.1430958807       0.0001028371     0.999999    0.04019398
  627       -6.1431987178      -0.0001028371     1.000000    0.04019398
  628       -6.1430958807       0.0001028371     0.999999    0.04019398
  629       -6.1431987178      -0.0001028371     1.000000    0.04019398
  630       -6.1430958807       0.0001028371     0.999999    0.04019398
  631       -6.1431987178      -0.0001028371     1.000000    0.04019398
  632       -6.1430958807       0.0001028371     0.999999    0.04019398
  633       -6.1431987178      -0.0001028371     1.000000    0.04019398
  634       -6.1430958807       0.0001028371     0.999999    0.04019398
  635       -6.1431987178      -0.0001028371     1.000000    0.04019398
  636       -6.1430958807       0.0001028371     0.999999    0.04019398
  637       -6.1431987178      -0.0001028371     1.000000    0.04019398
  638       -6.1430958807       0.0001028371     0.999999    0.04019398
  639       -6.1431987178      -0.0001028371     1.000000    0.04019398
  640       -6.1430958807       0.0001028371     0.999999    0.04019398
  641       -6.1431987178      -0.0001028371     1.000000    0.04019398
  642       -6.1430958807       0.0001028371     0.999999    0.04019398
  643       -6.1431987178      -0.0001028371     1.000000    0.04019398
  644       -6.1430958807       0.0001028371     0.999999    0.04019398
  645       -6.1431987178      -0.0001028371     1.000000    0.04019398
  646       -6.1430958807       0.0001028371     0.999999    0.04019398
  647       -6.1431987178      -0.0001028371     1.000000    0.04019398
  648       -6.1430958807       0.0001028371     0.999999    0.04019398
  649       -6.1431987178      -0.0001028371     1.000000    0.04019398
  650       -6.1430958807       0.0001028371     0.999999    0.04019398
  651       -6.1431987178      -0.0001028371     1.000000    0.04019398
  652       -6.1430958807       0.0001028371     0.999999    0.04019398
  653       -6.1431987178      -0.0001028371     1.000000    0.04019398
  654       -6.1430958807       0.0001028371     0.999999    0.04019398
  655       -6.1431987178      -0.0001028371     1.000000    0.04019398
  656       -6.1430958807       0.0001028371     0.999999    0.04019398
  657       -6.1431987178      -0.0001028371     1.000000    0.04019398
  658       -6.1430958807       0.0001028371     0.999999    0.04019398
  659       -6.1431987178      -0.0001028371     1.000000    0.04019398
  660       -6.1430958807       0.0001028371     0.999999    0.04019398
  661       -6.1431987178      -0.0001028371     1.000000    0.04019398
  662       -6.1430958807       0.0001028371     0.999999    0.04019398
  663       -6.1431987178      -0.0001028371     1.000000    0.04019398
  664       -6.1430958807       0.0001028371     0.999999    0.04019398
  665       -6.1431987178      -0.0001028371     1.000000    0.04019398
  666       -6.1430958807       0.0001028371     0.999999    0.04019398
  667       -6.1431987178      -0.0001028371     1.000000    0.04019398
  668       -6.1430958807       0.0001028371     0.999999    0.04019398
  669       -6.1431987178      -0.0001028371     1.000000    0.04019398
  670       -6.1430958807       0.0001028371     0.999999    0.04019398
  671       -6.1431987178      -0.0001028371     1.000000    0.04019398
  672       -6.1430958807       0.0001028371     0.999999    0.04019398
  673       -6.1431987178      -0.0001028371     1.000000    0.04019398
  674       -6.1430958807       0.0001028371     0.999999    0.04019398
  675       -6.1431987178      -0.0001028371     1.000000    0.04019398
  676       -6.1430958807       0.0001028371     0.999999    0.04019398
  677       -6.1431987178      -0.0001028371     1.000000    0.04019398
  678       -6.1430958807       0.0001028371     0.999999    0.04019398
  679       -6.1431987178      -0.0001028371     1.000000    0.04019398
  680       -6.1430958807       0.0001028371     0.999999    0.04019398
  681       -6.1431987178      -0.0001028371     1.000000    0.04019398
  682       -6.1430958807       0.0001028371     0.999999    0.04019398
  683       -6.1431987178      -0.0001028371     1.000000    0.04019398
  684       -6.1430958807       0.0001028371     0.999999    0.04019398
  685       -6.1431987178      -0.0001028371     1.000000    0.04019398
  686       -6.1430958807       0.0001028371     0.999999    0.04019398
  687       -6.1431987178      -0.0001028371     1.000000    0.04019398
  688       -6.1430958807       0.0001028371     0.999999    0.04019398
  689       -6.1431987178      -0.0001028371     1.000000    0.04019398
  690       -6.1430958807       0.0001028371     0.999999    0.04019398
  691       -6.1431987178      -0.0001028371     1.000000    0.04019398
  692       -6.1430958807       0.0001028371     0.999999    0.04019398
  693       -6.1431987178      -0.0001028371     1.000000    0.04019398
  694       -6.1430958807       0.0001028371     0.999999    0.04019398
  695       -6.1431987178      -0.0001028371     1.000000    0.04019398
  696       -6.1430958807       0.0001028371     0.999999    0.04019398
  697       -6.1431987178      -0.0001028371     1.000000    0.04019398
  698       -6.1430958807       0.0001028371     0.999999    0.04019398
  699       -6.1431987178      -0.0001028371     1.000000    0.04019398
  700       -6.1430958807       0.0001028371     0.999999    0.04019398
  701       -6.1431987178      -0.0001028371     1.000000    0.04019398
  702       -6.1430958807       0.0001028371     0.999999    0.04019398
  703       -6.1431987178      -0.0001028371     1.000000    0.04019398
  704       -6.1430958807       0.0001028371     0.999999    0.04019398
  705       -6.1431987178      -0.0001028371     1.000000    0.04019398
  706       -6.1430958807       0.0001028371     0.999999    0.04019398
  707       -6.1431987178      -0.0001028371     1.000000    0.04019398
  708       -6.1430958807       0.0001028371     0.999999    0.04019398
  709       -6.1431987178      -0.0001028371     1.000000    0.04019398
  710       -6.1430958807       0.0001028371     0.999999    0.04019398
  711       -6.1431987178      -0.0001028371     1.000000    0.04019398
  712       -6.1430958807       0.0001028371     0.999999    0.04019398
  713       -6.1431987178      -0.0001028371     1.000000    0.04019398
  714       -6.1430958807       0.0001028371     0.999999    0.04019398
  715       -6.1431987178      -0.0001028371     1.000000    0.04019398
  716       -6.1430958807       0.0001028371     0.999999    0.04019398
  717       -6.1431987178      -0.0001028371     1.000000    0.04019398
  718       -6.1430958807       0.0001028371     0.999999    0.04019398
  719       -6.1431987178      -0.0001028371     1.000000    0.04019398
  720       -6.1430958807       0.0001028371     0.999999    0.04019398
  721       -6.1431987178      -0.0001028371     1.000000    0.04019398
  722       -6.1430958807       0.0001028371     0.999999    0.04019398
  723       -6.1431987178      -0.0001028371     1.000000    0.04019398
  724       -6.1430958807       0.0001028371     0.999999    0.04019398
  725       -6.1431987178      -0.0001028371     1.000000    0.04019398
  726       -6.1430958807       0.0001028371     0.999999    0.04019398
  727       -6.1431987178      -0.0001028371     1.000000    0.04019398
  728       -6.1430958807       0.0001028371     0.999999    0.04019398
  729       -6.1431987178      -0.0001028371     1.000000    0.04019398
  730       -6.1430958807       0.0001028371     0.999999    0.04019398
  731       -6.1431987178      -0.0001028371     1.000000    0.04019398
  732       -6.1430958807       0.0001028371     0.999999    0.04019398
  733       -6.1431987178      -0.0001028371     1.000000    0.04019398
  734       -6.1430958807       0.0001028371     0.999999    0.04019398
  735       -6.1431987178      -0.0001028371     1.000000    0.04019398
  736       -6.1430958807       0.0001028371     0.999999    0.04019398
  737       -6.1431987178      -0.0001028371     1.000000    0.04019398
  738       -6.1430958807       0.0001028371     0.999999    0.04019398
  739       -6.1431987178      -0.0001028371     1.000000    0.04019398
  740       -6.1430958807       0.0001028371     0.999999    0.04019398
  741       -6.1431987178      -0.0001028371     1.000000    0.04019398
  742       -6.1430958807       0.0001028371     0.999999    0.04019398
  743       -6.1431987178      -0.0001028371     1.000000    0.04019398
  744       -6.1430958807       0.0001028371     0.999999    0.04019398
  745       -6.1431987178      -0.0001028371     1.000000    0.04019398
  746       -6.1430958807       0.0001028371     0.999999    0.04019398
  747       -6.1431987178      -0.0001028371     1.000000    0.04019398
  748       -6.1430958807       0.0001028371     0.999999    0.04019398
  749       -6.1431987178      -0.0001028371     1.000000    0.04019398
  750       -6.1430958807       0.0001028371     0.999999    0.04019398
  751       -6.1431987178      -0.0001028371     1.000000    0.04019398
  752       -6.1430958807       0.0001028371     0.999999    0.04019398
  753       -6.1431987178      -0.0001028371     1.000000    0.04019398
  754       -6.1430958807       0.0001028371     0.999999    0.04019398
  755       -6.1431987178      -0.0001028371     1.000000    0.04019398
  756       -6.1430958807       0.0001028371     0.999999    0.04019398
  757       -6.1431987178      -0.0001028371     1.000000    0.04019398
  758       -6.1430958807       0.0001028371     0.999999    0.04019398
  759       -6.1431987178      -0.0001028371     1.000000    0.04019398
  760       -6.1430958807       0.0001028371     0.999999    0.04019398
  761       -6.1431987178      -0.0001028371     1.000000    0.04019398
  762       -6.1430958807       0.0001028371     0.999999    0.04019398
  763       -6.1431987178      -0.0001028371     1.000000    0.04019398
  764       -6.1430958807       0.0001028371     0.999999    0.04019398
  765       -6.1431987178      -0.0001028371     1.000000    0.04019398
  766       -6.1430958807       0.0001028371     0.999999    0.04019398
  767       -6.1431987178      -0.0001028371     1.000000    0.04019398
  768       -6.1430958807       0.0001028371     0.999999    0.04019398
  769       -6.1431987178      -0.0001028371     1.000000    0.04019398
  770       -6.1430958807       0.0001028371     0.999999    0.04019398
  771       -6.1431987178      -0.0001028371     1.000000    0.04019398
  772       -6.1430958807       0.0001028371     0.999999    0.04019398
  773       -6.1431987178      -0.0001028371     1.000000    0.04019398
  774       -6.1430958807       0.0001028371     0.999999    0.04019398
  775       -6.1431987178      -0.0001028371     1.000000    0.04019398
  776       -6.1430958807       0.0001028371     0.999999    0.04019398
  777       -6.1431987178      -0.0001028371     1.000000    0.04019398
  778       -6.1430958807       0.0001028371     0.999999    0.04019398
  779       -6.1431987178      -0.0001028371     1.000000    0.04019398
  780       -6.1430958807       0.0001028371     0.999999    0.04019398
  781       -6.1431987178      -0.0001028371     1.000000    0.04019398
  782       -6.1430958807       0.0001028371     0.999999    0.04019398
  783       -6.1431987178      -0.0001028371     1.000000    0.04019398
  784       -6.1430958807       0.0001028371     0.999999    0.04019398
  785       -6.1431987178      -0.0001028371     1.000000    0.04019398
  786       -6.1430958807       0.0001028371     0.999999    0.04019398
  787       -6.1431987178      -0.0001028371     1.000000    0.04019398
  788       -6.1430958807       0.0001028371     0.999999    0.04019398
  789       -6.1431987178      -0.0001028371     1.000000    0.04019398
  790       -6.1430958807       0.0001028371     0.999999    0.04019398
  791       -6.1431987178      -0.0001028371     1.000000    0.04019398
  792       -6.1430958807       0.0001028371     0.999999    0.04019398
  793       -6.1431987178      -0.0001028371     1.000000    0.04019398
  794       -6.1430958807       0.0001028371     0.999999    0.04019398
  795       -6.1431987178      -0.0001028371     1.000000    0.04019398
  796       -6.1430958807       0.0001028371     0.999999    0.04019398
  797       -6.1431987178      -0.0001028371     1.000000    0.04019398
  798       -6.1430958807       0.0001028371     0.999999    0.04019398
  799       -6.1431987178      -0.0001028371     1.000000    0.04019398
  800       -6.1430958807       0.0001028371     0.999999    0.04019398
  801       -6.1431987178      -0.0001028371     1.000000    0.04019398
  802       -6.1430958807       0.0001028371     0.999999    0.04019398
  803       -6.1431987178      -0.0001028371     1.000000    0.04019398
  804       -6.1430958807       0.0001028371     0.999999    0.04019398
  805       -6.1431987178      -0.0001028371     1.000000    0.04019398
  806       -6.1430958807       0.0001028371     0.999999    0.04019398
  807       -6.1431987178      -0.0001028371     1.000000    0.04019398
  808       -6.1430958807       0.0001028371     0.999999    0.04019398
  809       -6.1431987178      -0.0001028371     1.000000    0.04019398
  810       -6.1430958807       0.0001028371     0.999999    0.04019398
  811       -6.1431987178      -0.0001028371     1.000000    0.04019398
  812       -6.1430958807       0.0001028371     0.999999    0.04019398
  813       -6.1431987178      -0.0001028371     1.000000    0.04019398
  814       -6.1430958807       0.0001028371     0.999999    0.04019398
  815       -6.1431987178      -0.0001028371     1.000000    0.04019398
  816       -6.1430958807       0.0001028371     0.999999    0.04019398
  817       -6.1431987178      -0.0001028371     1.000000    0.04019398
  818       -6.1430958807       0.0001028371     0.999999    0.04019398
  819       -6.1431987178      -0.0001028371     1.000000    0.04019398
  820       -6.1430958807       0.0001028371     0.999999    0.04019398
  821       -6.1431987178      -0.0001028371     1.000000    0.04019398
  822       -6.1430958807       0.0001028371     0.999999    0.04019398
  823       -6.1431987178      -0.0001028371     1.000000    0.04019398
  824       -6.1430958807       0.0001028371     0.999999    0.04019398
  825       -6.1431987178      -0.0001028371     1.000000    0.04019398
  826       -6.1430958807       0.0001028371     0.999999    0.04019398
  827       -6.1431987178      -0.0001028371     1.000000    0.04019398
  828       -6.1430958807       0.0001028371     0.999999    0.04019398
  829       -6.1431987178      -0.0001028371     1.000000    0.04019398
  830       -6.1430958807       0.0001028371     0.999999    0.04019398
  831       -6.1431987178      -0.0001028371     1.000000    0.04019398
  832       -6.1430958807       0.0001028371     0.999999    0.04019398
  833       -6.1431987178      -0.0001028371     1.000000    0.04019398
  834       -6.1430958807       0.0001028371     0.999999    0.04019398
  835       -6.1431987178      -0.0001028371     1.000000    0.04019398
  836       -6.1430958807       0.0001028371     0.999999    0.04019398
  837       -6.1431987178      -0.0001028371     1.000000    0.04019398
  838       -6.1430958807       0.0001028371     0.999999    0.04019398
  839       -6.1431987178      -0.0001028371     1.000000    0.04019398
  840       -6.1430958807       0.0001028371     0.999999    0.04019398
  841       -6.1431987178      -0.0001028371     1.000000    0.04019398
  842       -6.1430958807       0.0001028371     0.999999    0.04019398
  843       -6.1431987178      -0.0001028371     1.000000    0.04019398
  844       -6.1430958807       0.0001028371     0.999999    0.04019398
  845       -6.1431987178      -0.0001028371     1.000000    0.04019398
  846       -6.1430958807       0.0001028371     0.999999    0.04019398
  847       -6.1431987178      -0.0001028371     1.000000    0.04019398
  848       -6.1430958807       0.0001028371     0.999999    0.04019398
  849       -6.1431987178      -0.0001028371     1.000000    0.04019398
  850       -6.1430958807       0.0001028371     0.999999    0.04019398
  851       -6.1431987178      -0.0001028371     1.000000    0.04019398
  852       -6.1430958807       0.0001028371     0.999999    0.04019398
  853       -6.1431987178      -0.0001028371     1.000000    0.04019398
  854       -6.1430958807       0.0001028371     0.999999    0.04019398
  855       -6.1431987178      -0.0001028371     1.000000    0.04019398
  856       -6.1430958807       0.0001028371     0.999999    0.04019398
  857       -6.1431987178      -0.0001028371     1.000000    0.04019398
  858       -6.1430958807       0.0001028371     0.999999    0.04019398
  859       -6.1431987178      -0.0001028371     1.000000    0.04019398
  860       -6.1430958807       0.0001028371     0.999999    0.04019398
  861       -6.1431987178      -0.0001028371     1.000000    0.04019398
  862       -6.1430958807       0.0001028371     0.999999    0.04019398
  863       -6.1431987178      -0.0001028371     1.000000    0.04019398
  864       -6.1430958807       0.0001028371     0.999999    0.04019398
  865       -6.1431987178      -0.0001028371     1.000000    0.04019398
  866       -6.1430958807       0.0001028371     0.999999    0.04019398
  867       -6.1431987178      -0.0001028371     1.000000    0.04019398
  868       -6.1430958807       0.0001028371     0.999999    0.04019398
  869       -6.1431987178      -0.0001028371     1.000000    0.04019398
  870       -6.1430958807       0.0001028371     0.999999    0.04019398
  871       -6.1431987178      -0.0001028371     1.000000    0.04019398
  872       -6.1430958807       0.0001028371     0.999999    0.04019398
  873       -6.1431987178      -0.0001028371     1.000000    0.04019398
  874       -6.1430958807       0.0001028371     0.999999    0.04019398
  875       -6.1431987178      -0.0001028371     1.000000    0.04019398
  876       -6.1430958807       0.0001028371     0.999999    0.04019398
  877       -6.1431987178      -0.0001028371     1.000000    0.04019398
  878       -6.1430958807       0.0001028371     0.999999    0.04019398
  879       -6.1431987178      -0.0001028371     1.000000    0.04019398
  880       -6.1430958807       0.0001028371     0.999999    0.04019398
  881       -6.1431987178      -0.0001028371     1.000000    0.04019398
  882       -6.1430958807       0.0001028371     0.999999    0.04019398
  883       -6.1431987178      -0.0001028371     1.000000    0.04019398
  884       -6.1430958807       0.0001028371     0.999999    0.04019398
  885       -6.1431987178      -0.0001028371     1.000000    0.04019398
  886       -6.1430958807       0.0001028371     0.999999    0.04019398
  887       -6.1431987178      -0.0001028371     1.000000    0.04019398
  888       -6.1430958807       0.0001028371     0.999999    0.04019398
  889       -6.1431987178      -0.0001028371     1.000000    0.04019398
  890       -6.1430958807       0.0001028371     0.999999    0.04019398
  891       -6.1431987178      -0.0001028371     1.000000    0.04019398
  892       -6.1430958807       0.0001028371     0.999999    0.04019398
  893       -6.1431987178      -0.0001028371     1.000000    0.04019398
  894       -6.1430958807       0.0001028371     0.999999    0.04019398
  895       -6.1431987178      -0.0001028371     1.000000    0.04019398
  896       -6.1430958807       0.0001028371     0.999999    0.04019398
  897       -6.1431987178      -0.0001028371     1.000000    0.04019398
  898       -6.1430958807       0.0001028371     0.999999    0.04019398
  899       -6.1431987178      -0.0001028371     1.000000    0.04019398
  900       -6.1430958807       0.0001028371     0.999999    0.04019398
  901       -6.1431987178      -0.0001028371     1.000000    0.04019398
  902       -6.1430958807       0.0001028371     0.999999    0.04019398
  903       -6.1431987178      -0.0001028371     1.000000    0.04019398
  904       -6.1430958807       0.0001028371     0.999999    0.04019398
  905       -6.1431987178      -0.0001028371     1.000000    0.04019398
  906       -6.1430958807       0.0001028371     0.999999    0.04019398
  907       -6.1431987178      -0.0001028371     1.000000    0.04019398
  908       -6.1430958807       0.0001028371     0.999999    0.04019398
  909       -6.1431987178      -0.0001028371     1.000000    0.04019398
  910       -6.1430958807       0.0001028371     0.999999    0.04019398
  911       -6.1431987178      -0.0001028371     1.000000    0.04019398
  912       -6.1430958807       0.0001028371     0.999999    0.04019398
  913       -6.1431987178      -0.0001028371     1.000000    0.04019398
  914       -6.1430958807       0.0001028371     0.999999    0.04019398
  915       -6.1431987178      -0.0001028371     1.000000    0.04019398
  916       -6.1430958807       0.0001028371     0.999999    0.04019398
  917       -6.1431987178      -0.0001028371     1.000000    0.04019398
  918       -6.1430958807       0.0001028371     0.999999    0.04019398
  919       -6.1431987178      -0.0001028371     1.000000    0.04019398
  920       -6.1430958807       0.0001028371     0.999999    0.04019398
  921       -6.1431987178      -0.0001028371     1.000000    0.04019398
  922       -6.1430958807       0.0001028371     0.999999    0.04019398
  923       -6.1431987178      -0.0001028371     1.000000    0.04019398
  924       -6.1430958807       0.0001028371     0.999999    0.04019398
  925       -6.1431987178      -0.0001028371     1.000000    0.04019398
  926       -6.1430958807       0.0001028371     0.999999    0.04019398
  927       -6.1431987178      -0.0001028371     1.000000    0.04019398
  928       -6.1430958807       0.0001028371     0.999999    0.04019398
  929       -6.1431987178      -0.0001028371     1.000000    0.04019398
  930       -6.1430958807       0.0001028371     0.999999    0.04019398
  931       -6.1431987178      -0.0001028371     1.000000    0.04019398
  932       -6.1430958807       0.0001028371     0.999999    0.04019398
  933       -6.1431987178      -0.0001028371     1.000000    0.04019398
  934       -6.1430958807       0.0001028371     0.999999    0.04019398
  935       -6.1431987178      -0.0001028371     1.000000    0.04019398
  936       -6.1430958807       0.0001028371     0.999999    0.04019398
  937       -6.1431987178      -0.0001028371     1.000000    0.04019398
  938       -6.1430958807       0.0001028371     0.999999    0.04019398
  939       -6.1431987178      -0.0001028371     1.000000    0.04019398
  940       -6.1430958807       0.0001028371     0.999999    0.04019398
  941       -6.1431987178      -0.0001028371     1.000000    0.04019398
  942       -6.1430958807       0.0001028371     0.999999    0.04019398
  943       -6.1431987178      -0.0001028371     1.000000    0.04019398
  944       -6.1430958807       0.0001028371     0.999999    0.04019398
  945       -6.1431987178      -0.0001028371     1.000000    0.04019398
  946       -6.1430958807       0.0001028371     0.999999    0.04019398
  947       -6.1431987178      -0.0001028371     1.000000    0.04019398
  948       -6.1430958807       0.0001028371     0.999999    0.04019398
  949       -6.1431987178      -0.0001028371     1.000000    0.04019398
  950       -6.1430958807       0.0001028371     0.999999    0.04019398
  951       -6.1431987178      -0.0001028371     1.000000    0.04019398
  952       -6.1430958807       0.0001028371     0.999999    0.04019398
  953       -6.1431987178      -0.0001028371     1.000000    0.04019398
  954       -6.1430958807       0.0001028371     0.999999    0.04019398
  955       -6.1431987178      -0.0001028371     1.000000    0.04019398
  956       -6.1430958807       0.0001028371     0.999999    0.04019398
  957       -6.1431987178      -0.0001028371     1.000000    0.04019398
  958       -6.1430958807       0.0001028371     0.999999    0.04019398
  959       -6.1431987178      -0.0001028371     1.000000    0.04019398
  960       -6.1430958807       0.0001028371     0.999999    0.04019398
  961       -6.1431987178      -0.0001028371     1.000000    0.04019398
  962       -6.1430958807       0.0001028371     0.999999    0.04019398
  963       -6.1431987178      -0.0001028371     1.000000    0.04019398
  964       -6.1430958807       0.0001028371     0.999999    0.04019398
  965       -6.1431987178      -0.0001028371     1.000000    0.04019398
  966       -6.1430958807       0.0001028371     0.999999    0.04019398
  967       -6.1431987178      -0.0001028371     1.000000    0.04019398
  968       -6.1430958807       0.0001028371     0.999999    0.04019398
  969       -6.1431987178      -0.0001028371     1.000000    0.04019398
  970       -6.1430958807       0.0001028371     0.999999    0.04019398
  971       -6.1431987178      -0.0001028371     1.000000    0.04019398
  972       -6.1430958807       0.0001028371     0.999999    0.04019398
  973       -6.1431987178      -0.0001028371     1.000000    0.04019398
  974       -6.1430958807       0.0001028371     0.999999    0.04019398
  975       -6.1431987178      -0.0001028371     1.000000    0.04019398
  976       -6.1430958807       0.0001028371     0.999999    0.04019398
  977       -6.1431987178      -0.0001028371     1.000000    0.04019398
  978       -6.1430958807       0.0001028371     0.999999    0.04019398
  979       -6.1431987178      -0.0001028371     1.000000    0.04019398
  980       -6.1430958807       0.0001028371     0.999999    0.04019398
  981       -6.1431987178      -0.0001028371     1.000000    0.04019398
  982       -6.1430958807       0.0001028371     0.999999    0.04019398
  983       -6.1431987178      -0.0001028371     1.000000    0.04019398
  984       -6.1430958807       0.0001028371     0.999999    0.04019398
  985       -6.1431987178      -0.0001028371     1.000000    0.04019398
  986       -6.1430958807       0.0001028371     0.999999    0.04019398
  987       -6.1431987178      -0.0001028371     1.000000    0.04019398
  988       -6.1430958807       0.0001028371     0.999999    0.04019398
  989       -6.1431987178      -0.0001028371     1.000000    0.04019398
  990       -6.1430958807       0.0001028371     0.999999    0.04019398
  991       -6.1431987178      -0.0001028371     1.000000    0.04019398
  992       -6.1430958807       0.0001028371     0.999999    0.04019398
  993       -6.1431987178      -0.0001028371     1.000000    0.04019398
  994       -6.1430958807       0.0001028371     0.999999    0.04019398
  995       -6.1431987178      -0.0001028371     1.000000    0.04019398
  996       -6.1430958807       0.0001028371     0.999999    0.04019398
  997       -6.1431987178      -0.0001028371     1.000000    0.04019398
  998       -6.1430958807       0.0001028371     0.999999    0.04019398
  999       -6.1431987178      -0.0001028371     1.000000    0.04019398
 1000       -6.1430958807       0.0001028371     0.999999    0.04019398

Total Energy:                       -6.1430958807 H         -167.1621 eV
Extrapolated to 0:                  -6.1872043465 H         -168.3624 eV

----------------------------------------------------------------------------------
 Solving CP-REKS equation for  1 state vector...
----------------------------------------------------------------------------------
  CG solver: Constructing Y initial guess
  CG solver: Iteration    1    eps =    0.073725882584
  CG solver: Iteration    2    eps =    0.007843702540
  CG solver: Iteration    3    eps =    0.000756011981
  CG solver: Iteration    4    eps =    0.000076838111
  CG solver: Iteration    5    eps =    0.000026813128
  CG solver: Iteration    6    eps =    0.000004993476
  CG solver: Iteration    7    eps =    0.000000451119
  CG solver: Iteration    8    eps =    0.000000067337
  CG solver: Iteration    9    eps =    0.000000006155
  Convergence reached in CG solver after    9 iterations
  CG solver: Calculating converged R, Z, Q2 matrix
----------------------------------------------------------------------------------

----------------------------------------------------------------------------------
 Solving CP-REKS equation for SI between  1 and  2 state vectors...
----------------------------------------------------------------------------------
  CG solver: Constructing Y initial guess
  CG solver: Iteration    1    eps =    0.003943426116
  CG solver: Iteration    2    eps =    0.001700600136
  CG solver: Iteration    3    eps =    0.000154893330
  CG solver: Iteration    4    eps =    0.000027319522
  CG solver: Iteration    5    eps =    0.000004228004
  CG solver: Iteration    6    eps =    0.000000192224
  CG solver: Iteration    7    eps =    0.000000012020
  CG solver: Iteration    8    eps =    0.000000001783
  Convergence reached in CG solver after    8 iterations
  CG solver: Calculating converged R, Z, Q2 matrix
----------------------------------------------------------------------------------

--------------------------------------------------
 Gradient Information
--------------------------------------------------
           1 st state (SSR)
     0.00000000     0.00000000     0.00000000
     0.00000000     0.00000000     0.00000000
     0.00000000     0.00000000     0.00000000
     0.00000000     0.00000000     0.00000000
     0.00000000     0.00000000     0.00000000
     0.00000000     0.00000000     0.00000000

           2 st state (SSR)
     0.00000000     0.00000000     0.00000000
     0.00000000     0.00000000     0.00000000
     0.00000000     0.00000000     0.00000000
     0.00000000     0.00000000     0.00000000
     0.00000000     0.00000000     0.00000000
     0.00000000     0.00000000     0.00000000
--------------------------------------------------
 Coupling Information
--------------------------------------------------
 between  1 and  2 states
--------------------------------------------------
 g vector - difference gradient
    -0.25793447     0.59643668    -0.17327426
     0.63040906    -0.80642567     0.06237131
    -0.38725372     0.00579991    -0.24564665
    -0.10613975     0.11636324     0.23053635
     0.03910308     0.00111971     0.13548050
     0.08181580     0.08670612    -0.00946726

 h vector - derivative coupling
     0.00338532     0.00537005    -0.01928204
    -0.00379852    -0.00065098     0.03361389
    -0.00800844     0.00426271    -0.00490640
    -0.01576826    -0.00719683     0.00171141
     0.01062417     0.00830926    -0.01000450
     0.01356572    -0.01009421    -0.00113236

 G vector - GDV
     0.00000000     0.00000000     0.00000000
     0.00000000     0.00000000     0.00000000
     0.00000000     0.00000000     0.00000000
     0.00000000     0.00000000     0.00000000
     0.00000000     0.00000000     0.00000000
     0.00000000     0.00000000     0.00000000

 H vector - DCV - non-adiabatic coupling
    -0.00000000    -0.00000000    -0.00000000
    -0.00000000    -0.00000000    -0.00000000
    -0.00000000    -0.00000000    -0.00000000
    -0.00000000    -0.00000000    -0.00000000
    -0.00000000    -0.00000000    -0.00000000
    -0.00000000    -0.00000000    -0.00000000
--------------------------------------------------

WARNING!
-> SCC is NOT converged, maximal SCC iterations exceeded

--------------------------------------------------------------------------------
DFTB+ running times                          cpu [s]             wall clock [s]
--------------------------------------------------------------------------------
SCC                                    +     0.43  ( 97.2%)      0.43  ( 96.6%)
      Sparse to dense                        0.02  (  4.6%)      0.02  (  3.6%)
      Dense to sparse                        0.07  ( 15.3%)      0.07  ( 16.0%)
      Range separated Hamiltonian            0.03  (  6.4%)      0.04  (  7.9%)
  Density matrix creation                    0.05  ( 11.8%)      0.05  ( 11.0%)
  Force calculation                          0.01  (  2.5%)      0.01  (  2.5%)
--------------------------------------------------------------------------------
Missing                                +     0.01  (  2.8%)      0.01  (  3.4%)
Total                                  =     0.44  (100.0%)      0.44  (100.0%)
--------------------------------------------------------------------------------
