     6
  Step:     0            Position(A)                                  Velocity(au)
C        -0.03159628     0.01662124     0.03586567    -0.00008505     0.00010315    -0.00006498
N        -0.04306759    -0.03794283     1.28139713     0.00023112    -0.00003627     0.00007808
H         0.89837970    -0.04457282    -0.55977932     0.00115396    -0.00034510    -0.00060455
H         0.75642746    -0.19416729     1.86617183    -0.00149997     0.00017990    -0.00086308
H        -0.89453823    -0.16562996     1.83871826    -0.00163916    -0.00008616     0.00093478
H        -0.99822137     0.06379843    -0.48719187    -0.00021305    -0.00047378     0.00022221
     6
  Step:     1            Position(A)                                  Velocity(au)
C        -0.03205836     0.01723020     0.03506318    -0.00008290     0.00011942    -0.00022769
N        -0.04182097    -0.03813237     1.28220281     0.00022132    -0.00003292     0.00021521
H         0.90483965    -0.04663496    -0.56301221     0.00119633    -0.00040788    -0.00057123
H         0.74875270    -0.19338717     1.86157675    -0.00128213     0.00010019    -0.00080009
H        -0.90375862    -0.16624871     1.84378559    -0.00170924    -0.00013643     0.00090435
H        -0.99960322     0.06107673    -0.48606428    -0.00029266    -0.00052151     0.00018953
     6
  Step:     2            Position(A)                                  Velocity(au)
C        -0.03250331     0.01792792     0.03337431    -0.00007878     0.00013538    -0.00038764
N        -0.04064595    -0.03830298     1.28375197     0.00020485    -0.00002925     0.00034864
H         0.91146971    -0.04903578    -0.56602963     0.00121460    -0.00046824    -0.00052594
H         0.74239861    -0.19307102     1.85741743    -0.00101732     0.00001033    -0.00070331
H        -0.91324042    -0.16712281     1.84861349    -0.00173363    -0.00017966     0.00084762
H        -1.00142358     0.05809212    -0.48511804    -0.00037158    -0.00056921     0.00015600
     6
  Step:     3            Position(A)                                  Velocity(au)
C        -0.03292093     0.01871257     0.03081860    -0.00007289     0.00015084    -0.00054251
N        -0.03957790    -0.03845264     1.28602037     0.00018219    -0.00002517     0.00047638
H         0.91813916    -0.05176202    -0.56877114     0.00120872    -0.00052567    -0.00047044
H         0.73761328    -0.19327406     1.85387571    -0.00071044    -0.00008897    -0.00057485
H        -0.92274142    -0.16821595     1.85306675    -0.00171458    -0.00021642     0.00076772
H        -1.00367197     0.05484408    -0.48435610    -0.00044689    -0.00061660     0.00012228
     6
  Step:     4            Position(A)                                  Velocity(au)
C        -0.03330221     0.01958126     0.02742804    -0.00006546     0.00016554    -0.00068971
N        -0.03864903    -0.03857890     1.28897341     0.00015406    -0.00002065     0.00059634
H         0.92471814    -0.05479747    -0.57118604     0.00117888    -0.00057938    -0.00040649
H         0.73461166    -0.19404614     1.85111670    -0.00036934    -0.00019613    -0.00041898
H        -0.93203343    -0.16949492     1.85702823    -0.00165482    -0.00024713     0.00066817
H        -1.00632178     0.05133375    -0.48377772    -0.00051551    -0.00066307     0.00008905
     6
  Step:     5            Position(A)                                  Velocity(au)
C        -0.03363945     0.02052957     0.02324837    -0.00005677     0.00017913    -0.00082636
N        -0.03788692    -0.03867927     1.29256577     0.00012147    -0.00001570     0.00070632
H         0.93107862    -0.05812126    -0.57323277     0.00112564    -0.00062822    -0.00033584
H         0.73355941    -0.19542682     1.84927698    -0.00000504    -0.00030861    -0.00024225
H        -0.94090481    -0.17092850     1.86040059    -0.00155766    -0.00027203     0.00055283
H        -1.00933026     0.04756625    -0.48337864    -0.00057451    -0.00070753     0.00005693
     6
  Step:     6            Position(A)                                  Velocity(au)
C        -0.03392646     0.02155114     0.01834064    -0.00004709     0.00019118    -0.00094932
N        -0.03731319    -0.03875155     1.29674081     0.00008570    -0.00001043     0.00080408
H         0.93709678    -0.06170601    -0.57487926     0.00105024    -0.00067080    -0.00026052
H         0.73455619    -0.19743985     1.84845265     0.00036832    -0.00042278    -0.00005337
H        -0.94916295    -0.17248638     1.86310769    -0.00142702    -0.00029113     0.00042589
H        -1.01263961     0.04355313    -0.48315161    -0.00062125    -0.00074849     0.00002644
     6
  Step:     7            Position(A)                                  Velocity(au)
C        -0.03415865     0.02263723     0.01278260    -0.00003677     0.00020123    -0.00105535
N        -0.03694210    -0.03879424     1.30143034     0.00004826    -0.00000500     0.00088739
H         0.94265697    -0.06551651    -0.57610492     0.00095479    -0.00070558    -0.00018287
H         0.73761990    -0.20008775     1.84868864     0.00073414    -0.00053418     0.00013733
H        -0.95663694    -0.17413810     1.86509579    -0.00126755    -0.00030438     0.00029178
H        -1.01617926     0.03931452    -0.48308718    -0.00065373    -0.00078419    -0.00000208
     6
  Step:     8            Position(A)                                  Velocity(au)
C        -0.03433316     0.02377658     0.00666919    -0.00002615     0.00020884    -0.00114147
N        -0.03677948    -0.03880688     1.30655476     0.00001082     0.00000036     0.00095434
H         0.94765606    -0.06950924    -0.57690167     0.00084240    -0.00073118    -0.00010537
H         0.74267523    -0.20334752     1.84997143     0.00107466    -0.00063787     0.00031874
H        -0.96318122    -0.17585261     1.86633455    -0.00108500    -0.00031175     0.00015521
H        -1.01986943     0.03488053    -0.48317462    -0.00067078    -0.00081285    -0.00002844
     6
  Step:     9            Position(A)                                  Velocity(au)
C        -0.03444897     0.02495562     0.00011093    -0.00001559     0.00021372    -0.00120554
N        -0.03682194    -0.03879021     1.31202457    -0.00002488     0.00000544     0.00100366
H         0.95200854    -0.07363340    -0.57727467     0.00071722    -0.00074670    -0.00003059
H         0.74954985    -0.20716887     1.85222697     0.00137299    -0.00072912     0.00048028
H        -0.96868170    -0.17759883     1.86681883    -0.00088638    -0.00031346     0.00002109
H        -1.02362566     0.03029095    -0.48340291    -0.00067229    -0.00083308    -0.00005265
     6
  Step:    10            Position(A)                                  Velocity(au)
C        -0.03450698     0.02615919    -0.00677066    -0.00000544     0.00021578    -0.00124690
N        -0.03705682    -0.03874619     1.31774397    -0.00005727     0.00001004     0.00103526
H         0.95565195    -0.07783368    -0.57724265     0.00058433    -0.00075211     0.00003907
H         0.75798179    -0.21147601     1.85532581     0.00161559    -0.00080420     0.00061344
H        -0.97306295    -0.17934720     1.86656971    -0.00067983    -0.00031018    -0.00010585
H        -1.02736436     0.02559309    -0.48376162    -0.00065937    -0.00084428    -0.00007491
     6
  Step:    11            Position(A)                                  Velocity(au)
C        -0.03450993     0.02737182    -0.01385111     0.00000398     0.00021528    -0.00126692
N        -0.03746319    -0.03867783     1.32361687    -0.00008514     0.00001400     0.00105058
H         0.95855155    -0.08205509    -0.57683720     0.00044924    -0.00074852     0.00010161
H         0.76764028    -0.21617382     1.85909597     0.00179466    -0.00086120     0.00071303
H        -0.97629404    -0.18107202     1.86563362    -0.00047389    -0.00030303    -0.00022160
H        -1.03100892     0.02083718    -0.48424172    -0.00063430    -0.00084706    -0.00009558
     6
  Step:    12            Position(A)                                  Velocity(au)
C        -0.03446224     0.02857947    -0.02101417     0.00001245     0.00021277    -0.00126920
N        -0.03801397    -0.03858880     1.32955529    -0.00010781     0.00001728     0.00105272
H         0.96070257    -0.08624904    -0.57610028     0.00031718    -0.00073818     0.00015580
H         0.77815856    -0.22115821     1.86334217     0.00190944    -0.00090049     0.00077787
H        -0.97839074    -0.18275410     1.86407830    -0.00027645    -0.00029362    -0.00032350
H        -1.03449562     0.01606992    -0.48483622    -0.00060027    -0.00084327    -0.00011520
     6
  Step:    13            Position(A)                                  Velocity(au)
C        -0.03436953     0.02977127    -0.02816391     0.00001986     0.00020906    -0.00125886
N        -0.03867900    -0.03848298     1.33548838    -0.00012521     0.00001991     0.00104588
H         0.96212841    -0.09037952    -0.57508021     0.00019230    -0.00072404     0.00020128
H         0.78917309    -0.22632867     1.86786807     0.00196538    -0.00092439     0.00081040
H        -0.97941162    -0.18438314     1.86198554    -0.00009358    -0.00028373    -0.00041044
H        -1.03777817     0.01132763    -0.48554081    -0.00056073    -0.00083564    -0.00013441
     6
  Step:    14            Position(A)                                  Velocity(au)
C        -0.03423797     0.03094075    -0.03523276     0.00002618     0.00020492    -0.00124115
N        -0.03942817    -0.03836396     1.34136827    -0.00013765     0.00002198     0.00103428
H         0.96287462    -0.09442690    -0.57382690     0.00007720    -0.00070904     0.00023835
H         0.80035714    -0.23159908     1.87249551     0.00197142    -0.00093624     0.00081521
H        -0.97944772    -0.18595878     1.85944240     0.00007098    -0.00027508    -0.00048267
H        -1.04082898     0.00663154    -0.48635435    -0.00051869    -0.00082698    -0.00015387
     6
  Step:    15            Position(A)                                  Velocity(au)
C        -0.03407383     0.03208572    -0.04218201     0.00003146     0.00020093    -0.00122009
N        -0.04023368    -0.03823469     1.34716994    -0.00014563     0.00002364     0.00102104
H         0.96300037    -0.09838773    -0.57238823    -0.00002693    -0.00069537     0.00026758
H         0.81143907    -0.23690290     1.87707535     0.00193656    -0.00093906     0.00079725
H        -0.97860995    -0.18748999     1.85653410     0.00021533    -0.00026900    -0.00054089
H        -1.04363643     0.00198736    -0.48727872    -0.00047608    -0.00081935    -0.00017408
     6
  Step:    16            Position(A)                                  Velocity(au)
C        -0.03388315     0.03320717    -0.04899494     0.00003571     0.00019735    -0.00119772
N        -0.04107079    -0.03809734     1.35288533    -0.00014954     0.00002498     0.00100767
H         0.96257090    -0.10227051    -0.57080864    -0.00011965    -0.00068412     0.00028940
H         0.82220091    -0.24219139     1.88148820     0.00186754    -0.00093480     0.00076061
H        -0.97701887    -0.18899302     1.85334130     0.00033838    -0.00026637    -0.00058555
H        -1.04619906    -0.00261044    -0.48831789    -0.00043371    -0.00081358    -0.00019518
     6
  Step:    17            Position(A)                                  Velocity(au)
C        -0.03367180     0.03430755    -0.05566617     0.00003893     0.00019418    -0.00117442
N        -0.04191721    -0.03795342     1.35851441    -0.00014962     0.00002611     0.00099420
H         0.96165331    -0.10608966    -0.56913006    -0.00020068    -0.00067543     0.00030389
H         0.83246418    -0.24742701     1.88563846     0.00176868    -0.00092422     0.00070835
H        -0.97480043    -0.19048888     1.84994193     0.00043895    -0.00026771    -0.00061640
H        -1.04851925    -0.00717204    -0.48947612    -0.00039161    -0.00080945    -0.00021712
     6
  Step:    18            Position(A)                                  Velocity(au)
C        -0.03344570     0.03538924    -0.06219214     0.00004107     0.00019127    -0.00114958
N        -0.04275210    -0.03780388     1.36405736    -0.00014599     0.00002710     0.00097992
H         0.96031582    -0.10986041    -0.56739378    -0.00026953    -0.00066894     0.00031087
H         0.84207586    -0.25257705     1.88944807     0.00164296    -0.00090745     0.00064289
H        -0.97208636    -0.19200129     1.84641467     0.00051554    -0.00027327    -0.00063279
H        -1.05059964    -0.01170640    -0.49075767    -0.00034956    -0.00080615    -0.00023972
     6
  Step:    19            Position(A)                                  Velocity(au)
C        -0.03321097     0.03645380    -0.06856593     0.00004207     0.00018843    -0.00112241
N        -0.04355540    -0.03764928     1.36951031    -0.00013876     0.00002801     0.00096391
H         0.95862881    -0.11359594    -0.56564169    -0.00032558    -0.00066416     0.00031014
H         0.85090023    -0.25760970     1.89285243     0.00149331    -0.00088448     0.00056652
H        -0.96901548    -0.19355531     1.84284122     0.00056665    -0.00028322    -0.00063404
H        -1.05244172    -0.01621799    -0.49216612    -0.00030739    -0.00080271    -0.00026277
     6
  Step:    20            Position(A)                                  Velocity(au)
C        -0.03297400     0.03750179    -0.07477617     0.00004191     0.00018552    -0.00109234
N        -0.04430786    -0.03748982     1.37486439    -0.00012813     0.00002890     0.00094549
H         0.95666554    -0.11730675    -0.56391664    -0.00036822    -0.00066074     0.00030158
H         0.85881830    -0.26249347     1.89579965     0.00132330    -0.00085556     0.00048172
H        -0.96573327    -0.19517663     1.83930604     0.00059126    -0.00029764    -0.00061986
H        -1.05404599    -0.02070607    -0.49370374    -0.00026510    -0.00079836    -0.00028599
     6
  Step:    21            Position(A)                                  Velocity(au)
C        -0.03274131     0.03853302    -0.08080835     0.00004056     0.00018248    -0.00105919
N        -0.04499145    -0.03732536     1.38010698    -0.00011440     0.00002983     0.00092431
H         0.95450201    -0.12100128    -0.56226172    -0.00039705    -0.00065850     0.00028531
H         0.86573119    -0.26719848     1.89825133     0.00113722    -0.00082132     0.00039114
H        -0.96238888    -0.19689109     1.83589413     0.00058915    -0.00031654    -0.00059053
H        -1.05541290    -0.02516566    -0.49537139    -0.00022288    -0.00079260    -0.00030916
     6
  Step:    22            Position(A)                                  Velocity(au)
C        -0.03251942     0.03954687    -0.08664694     0.00003807     0.00017928    -0.00102315
N        -0.04558998    -0.03715547     1.38522359    -0.00009797     0.00003086     0.00090038
H         0.95221559    -0.12468688    -0.56071904    -0.00041206    -0.00065743     0.00026168
H         0.87156365    -0.27169840     1.90018328     0.00093983    -0.00078269     0.00029743
H        -0.95913041    -0.19872422     1.83268774     0.00056108    -0.00033987    -0.00054696
H        -1.05654385    -0.02958905    -0.49716865    -0.00018101    -0.00078520    -0.00033211
     6
  Step:    23            Position(A)                                  Velocity(au)
C        -0.03231460     0.04054263    -0.09227738     0.00003449     0.00017596    -0.00098470
N        -0.04608963    -0.03697940     1.39019973    -0.00007932     0.00003205     0.00087395
H         0.94988299    -0.12837074    -0.55932842    -0.00041363    -0.00065764     0.00023126
H         0.87626615    -0.27597199     1.90158539     0.00073594    -0.00074079     0.00020314
H        -0.95609949    -0.20070082     1.82976301     0.00050882    -0.00036747    -0.00049062
H        -1.05744191    -0.03396738    -0.49909417    -0.00013988    -0.00077619    -0.00035474
     6
  Step:    24            Position(A)                                  Velocity(au)
C        -0.03213266     0.04151975    -0.09768756     0.00002994     0.00017258    -0.00094442
N        -0.04647935    -0.03679615     1.39502246    -0.00005899     0.00003343     0.00084547
H         0.94757791    -0.13206048    -0.55812611    -0.00040251    -0.00065930     0.00019478
H         0.87981523    -0.28000427     1.90246092     0.00053021    -0.00069686     0.00011054
H        -0.95342545    -0.20284433     1.82718685     0.00043513    -0.00039906    -0.00042344
H        -1.05811219    -0.03829190    -0.50114605    -0.00009987    -0.00076574    -0.00037701
     6
  Step:    25            Position(A)                                  Velocity(au)
C        -0.03197879     0.04247798    -0.10286866     0.00002454     0.00016920    -0.00090300
N        -0.04675118    -0.03660452     1.39968130    -0.00003755     0.00003504     0.00081548
H         0.94536899    -0.13576449    -0.55714400    -0.00037982    -0.00066258     0.00015310
H         0.88221225    -0.28378693     1.90282506     0.00032689    -0.00065214     0.00002162
H        -0.95121975    -0.20517613     1.82501429     0.00034362    -0.00043425    -0.00034774
H        -1.05856190    -0.04255485    -0.50332220    -0.00006135    -0.00075412    -0.00039896
     6
  Step:    26            Position(A)                                  Velocity(au)
C        -0.03185742     0.04341745    -0.10781539     0.00001843     0.00016589    -0.00086105
N        -0.04690045    -0.03640317     1.40416868    -0.00001557     0.00003690     0.00078450
H         0.94331797    -0.13949186    -0.55640893    -0.00034691    -0.00066761     0.00010714
H         0.88348157    -0.28731853     1.90270342     0.00012981    -0.00060784    -0.00006192
H        -0.94957153    -0.20771475     1.82328673     0.00023853    -0.00047248    -0.00026598
H        -1.05880025    -0.04674997    -0.50562064    -0.00002463    -0.00074164    -0.00042062
     6
  Step:    27            Position(A)                                  Velocity(au)
C        -0.03177211     0.04433859    -0.11252587     0.00001176     0.00016272    -0.00081913
N        -0.04692580    -0.03619069     1.40847997     0.00000636     0.00003902     0.00075304
H         0.94147817    -0.14325216    -0.55594237    -0.00030539    -0.00067443     0.00005784
H         0.88366811    -0.29060418     1.90213053    -0.00005766    -0.00056506    -0.00013867
H        -0.94854455    -0.21047522     1.82203116     0.00012451    -0.00051308    -0.00018074
H        -1.05883811    -0.05087273    -0.50803966     0.00001003    -0.00072858    -0.00044206
     6
  Step:    28            Position(A)                                  Velocity(au)
C        -0.03172550     0.04524213    -0.11700112     0.00000472     0.00015970    -0.00077768
N        -0.04682916    -0.03596562     1.41261321     0.00002767     0.00004140     0.00072149
H         0.93989338    -0.14705492    -0.55576028    -0.00025698    -0.00068297     0.00000618
H         0.88283494    -0.29365515     1.90114836    -0.00023256    -0.00052485    -0.00020743
H        -0.94817530    -0.21346837     1.82125993     0.00000643    -0.00055526    -0.00009454
H        -1.05868782    -0.05492022    -0.51057787     0.00004239    -0.00071521    -0.00046333
     6
  Step:    29            Position(A)                                  Velocity(au)
C        -0.03171922     0.04612899    -0.12124458    -0.00000254     0.00015686    -0.00073705
N        -0.04661559    -0.03572655     1.41656867     0.00004783     0.00004403     0.00069019
H         0.93859714    -0.15090906    -0.55587311    -0.00020353    -0.00069306    -0.00004690
H         0.88106091    -0.29648838     1.89980500    -0.00039226    -0.00048816    -0.00026721
H        -0.94847248    -0.21670027     1.82097130    -0.00011086    -0.00059812    -0.00000976
H        -1.05836283    -0.05889106    -0.51323412     0.00007230    -0.00070177    -0.00048446
     6
  Step:    30            Position(A)                                  Velocity(au)
C        -0.03175393     0.04700014    -0.12526152    -0.00000982     0.00015421    -0.00069749
N        -0.04629315    -0.03547211     1.42034840     0.00006632     0.00004691     0.00065939
H         0.93761234    -0.15482223    -0.55628592    -0.00014693    -0.00070437    -0.00010048
H         0.87843872    -0.29912609     1.89815367    -0.00053445    -0.00045589    -0.00031717
H        -0.94941777    -0.22017175     1.82115051    -0.00022273    -0.00064070     0.00007141
H        -1.05787754    -0.06278520    -0.51600740     0.00009959    -0.00068848    -0.00050544
     6
  Step:    31            Position(A)                                  Velocity(au)
C        -0.03182923     0.04785654    -0.12905854    -0.00001694     0.00015172    -0.00065916
N        -0.04587266    -0.03520101     1.42395571     0.00008266     0.00005002     0.00062923
H         0.93695108    -0.15880005    -0.55699872    -0.00008910    -0.00071642    -0.00015369
H         0.87507354    -0.30159566     1.89625181    -0.00065699    -0.00042901    -0.00035663
H        -0.95096771    -0.22387799     1.82177134    -0.00032495    -0.00068190     0.00014714
H        -1.05724713    -0.06660397    -0.51889653     0.00012412    -0.00067561    -0.00052618
     6
  Step:    32            Position(A)                                  Velocity(au)
C        -0.03194358     0.04869907    -0.13264289    -0.00002363     0.00014936    -0.00062215
N        -0.04536747    -0.03491200     1.42739457     0.00009642     0.00005335     0.00059979
H         0.93661458    -0.16284481    -0.55800693    -0.00003205    -0.00072819    -0.00020586
H         0.87108167    -0.30393018     1.89416009    -0.00075799    -0.00040890    -0.00038523
H        -0.95305658    -0.22780777     1.82279821    -0.00041381    -0.00072021     0.00021608
H        -1.05648767    -0.07035078    -0.52189966     0.00014561    -0.00066392    -0.00054639
     6
  Step:    33            Position(A)                                  Velocity(au)
C        -0.03209371     0.04952837    -0.13602230    -0.00002482     0.00014707    -0.00057802
N        -0.04479348    -0.03460383     1.43066929     0.00010419     0.00005688     0.00056496
H         0.93659235    -0.16695082    -0.55930299     0.00002377    -0.00071252    -0.00027795
H         0.86658924    -0.30617254     1.89193983    -0.00083117    -0.00042307    -0.00041246
H        -0.95559959    -0.23193944     1.82418996    -0.00048446    -0.00072177     0.00029226
H        -1.05561731    -0.07403532    -0.52501237     0.00013974    -0.00068553    -0.00056496
     6
  Step:    34            Position(A)                                  Velocity(au)
C        -0.03222125     0.05034443    -0.13910976    -0.00002462     0.00015624    -0.00053497
N        -0.04420178    -0.03427561     1.43371529     0.00011563     0.00006401     0.00054144
H         0.93688048    -0.17081643    -0.56111663     0.00012468    -0.00075636    -0.00042943
H         0.86178255    -0.30866349     1.88954553    -0.00093268    -0.00046726    -0.00045042
H        -0.95847666    -0.23588294     1.82606797    -0.00058358    -0.00075333     0.00040137
H        -1.05492428    -0.07802045    -0.52822039     0.00007808    -0.00077431    -0.00067086
     6
  Step:    35            Position(A)                                  Velocity(au)
C        -0.03237695     0.05121060    -0.14200851    -0.00003063     0.00015362    -0.00050296
N        -0.04353683    -0.03390755     1.43666530     0.00012047     0.00006776     0.00051442
H         0.93771094    -0.17508623    -0.56362695     0.00016853    -0.00076972    -0.00046663
H         0.85645585    -0.31124774     1.88703955    -0.00096001    -0.00046208    -0.00044028
H        -0.96186130    -0.24019259     1.82842918    -0.00061646    -0.00078529     0.00043839
H        -1.05442842    -0.08229285    -0.53201804     0.00009884    -0.00075511    -0.00068668
     6
  Step:    36            Position(A)                                  Velocity(au)
C        -0.03256362     0.05206178    -0.14473233    -0.00003577     0.00015099    -0.00047279
N        -0.04285508    -0.03351814     1.43946593     0.00012181     0.00007169     0.00048841
H         0.93876448    -0.17942110    -0.56633302     0.00020440    -0.00078072    -0.00049949
H         0.85105067    -0.31382909     1.88462366    -0.00096169    -0.00046603    -0.00041844
H        -0.96536800    -0.24466164     1.83096868    -0.00062786    -0.00081150     0.00046531
H        -1.05381936    -0.08646180    -0.53589675     0.00011877    -0.00073727    -0.00070070
     6
  Step:    37            Position(A)                                  Velocity(au)
C        -0.03277670     0.05289788    -0.14729168    -0.00004010     0.00014834    -0.00044447
N        -0.04217570    -0.03310641     1.44212303     0.00011980     0.00007580     0.00046344
H         0.93999507    -0.18381044    -0.56920853     0.00023183    -0.00078987    -0.00052752
H         0.84570944    -0.31645545     1.88236362    -0.00093836    -0.00047841    -0.00038510
H        -0.96887739    -0.24926076     1.83362881    -0.00061836    -0.00083264     0.00048209
H        -1.05310123    -0.09053151    -0.53984799     0.00013796    -0.00072005    -0.00071329
     6
  Step:    38            Position(A)                                  Velocity(au)
C        -0.03301151     0.05371869    -0.14969708    -0.00004358     0.00014564    -0.00041800
N        -0.04151695    -0.03267143     1.44464260     0.00011463     0.00008008     0.00043952
H         0.94135400    -0.18824399    -0.57222545     0.00025041    -0.00079718    -0.00055050
H         0.84056916    -0.31917291     1.88032207    -0.00089133    -0.00049889    -0.00034099
H        -0.97227507    -0.25396221     1.83635364    -0.00058911    -0.00084897     0.00048920
H        -1.05227833    -0.09450474    -0.54386422     0.00015637    -0.00070330    -0.00072462
     6
  Step:    39            Position(A)                                  Velocity(au)
C        -0.03326329     0.05452396    -0.15195869    -0.00004622     0.00014289    -0.00039329
N        -0.04089581    -0.03221225     1.44703041     0.00010658     0.00008453     0.00041662
H         0.94279099    -0.19271112    -0.57535493     0.00025999    -0.00080258    -0.00056834
H         0.83575760    -0.32202565     1.87855636    -0.00082258    -0.00052706    -0.00028723
H        -0.97545488    -0.25873969     1.83909080    -0.00054179    -0.00086080     0.00048736
H        -1.05135529    -0.09838395    -0.54793852     0.00017395    -0.00068699    -0.00073479
     6
  Step:    40            Position(A)                                  Velocity(au)
C        -0.03352727     0.05531336    -0.15408624    -0.00004800     0.00014009    -0.00037029
N        -0.04032747    -0.03172802     1.44929211     0.00009600     0.00008913     0.00039472
H         0.94425551    -0.19720084    -0.57856816     0.00026061    -0.00080602    -0.00058110
H         0.83138919    -0.32505487     1.87711653    -0.00073480    -0.00056226    -0.00022527
H        -0.97832146    -0.26356872     1.84179256    -0.00047845    -0.00086847     0.00047745
H        -1.05033705    -0.10217160    -0.55206446     0.00019064    -0.00067115    -0.00074387
     6
  Step:    41            Position(A)                                  Velocity(au)
C        -0.03379873     0.05608655    -0.15608909    -0.00004896     0.00013722    -0.00034891
N        -0.03982501    -0.03121801     1.45143334     0.00008327     0.00009385     0.00037383
H         0.94569795    -0.20170193    -0.58183687     0.00025251    -0.00080747    -0.00058892
H         0.82756123    -0.32829744     1.87604359    -0.00063132    -0.00060364    -0.00015682
H        -0.98079180    -0.26842705     1.84441659    -0.00040139    -0.00087241     0.00046048
H        -1.04922883    -0.10587032    -0.55623603     0.00020640    -0.00065580    -0.00075194
     6
  Step:    42            Position(A)                                  Velocity(au)
C        -0.03407311     0.05684315    -0.15797613    -0.00004912     0.00013428    -0.00032907
N        -0.03939906    -0.03068166     1.45345979     0.00006887     0.00009866     0.00035395
H         0.94707067    -0.20620315    -0.58513388     0.00023611    -0.00080694    -0.00059201
H         0.82435078    -0.33178466     1.87536814    -0.00051596    -0.00065007    -0.00008386
H        -0.98279644    -0.27329503     1.84692637    -0.00031305    -0.00087311     0.00043749
H        -1.04803596    -0.10948290    -0.56044758     0.00022122    -0.00064096    -0.00075904
     6
  Step:    43            Position(A)                                  Velocity(au)
C        -0.03434610     0.05758279    -0.15975581    -0.00004854     0.00013128    -0.00031069
N        -0.03905761    -0.03011872     1.45537731     0.00005327     0.00010348     0.00033512
H         0.94832888    -0.21069337    -0.58843340     0.00021196    -0.00080444    -0.00059062
H         0.82181207    -0.33554095     1.87510922    -0.00039294    -0.00070023    -0.00000849
H        -0.98428005    -0.27815581     1.84929137    -0.00021597    -0.00087106     0.00040953
H        -1.04676383    -0.11301227    -0.56469373     0.00023510    -0.00062664    -0.00076521
     6
  Step:    44            Position(A)                                  Velocity(au)
C        -0.03461367     0.05830512    -0.16143610    -0.00004726     0.00012821    -0.00029367
N        -0.03880581    -0.02952923     1.45719187     0.00003698     0.00010827     0.00031737
H         0.94943116    -0.21516175    -0.59171126     0.00018069    -0.00080003    -0.00058505
H         0.81997481    -0.33958275     1.87527360    -0.00026671    -0.00075262     0.00006705
H        -0.98520161    -0.28299554     1.85148705    -0.00011269    -0.00086680     0.00037766
H        -1.04541784    -0.11646139    -0.56896925     0.00024802    -0.00061283    -0.00077045
     6