     6
  Step:     0            Position(A)                                  Velocity(au)
C        -0.03177023     0.00692334     0.00538592    -0.00012172     0.00019611    -0.00029301
N        -0.03698395    -0.04847810     1.30521725    -0.00011666    -0.00018010     0.00017456
H         0.90811036     0.01143614    -0.53316423     0.00051038    -0.00066088    -0.00033902
H         0.75486137    -0.13417556     1.85510773     0.00099275     0.00079685     0.00100610
H        -0.96064295    -0.09554490     1.85666676     0.00058055     0.00055588    -0.00038671
H        -1.02274903     0.13967602    -0.48850594     0.00098796    -0.00052599     0.00078544
     6
  Step:     1            Position(A)                                  Velocity(au)
C        -0.03246126     0.00801190     0.00344572    -0.00012937     0.00020160    -0.00041430
N        -0.03771332    -0.04946937     1.30644794    -0.00014775    -0.00018261     0.00027470
H         0.91103529     0.00782322    -0.53511844     0.00055300    -0.00065886    -0.00037242
H         0.76119990    -0.12991905     1.86115977     0.00130256     0.00076304     0.00119104
H        -0.95709970    -0.09249130     1.85431289     0.00070601     0.00056080    -0.00046829
H        -1.01718540     0.13678246    -0.48423228     0.00103336    -0.00052963     0.00076927
     6
  Step:     2            Position(A)                                  Velocity(au)
C        -0.03318597     0.00912942     0.00085223    -0.00013362     0.00020623    -0.00053004
N        -0.03860081    -0.05047640     1.30822324    -0.00017366    -0.00018540     0.00037243
H         0.91416179     0.00422624    -0.53723960     0.00058289    -0.00065376    -0.00039935
H         0.76911527    -0.12582567     1.86814125     0.00156218     0.00073543     0.00134056
H        -0.95291711    -0.08940803     1.85154225     0.00081028     0.00056530    -0.00053647
H        -1.01144104     0.13388026    -0.48008783     0.00105025    -0.00052802     0.00073580
     6
  Step:     3            Position(A)                                  Velocity(au)
C        -0.03392509     0.01027117    -0.00236077    -0.00013412     0.00020974    -0.00063788
N        -0.03961577    -0.05150046     1.31052788    -0.00019337    -0.00018815     0.00046604
H         0.91742080     0.00066133    -0.53949334     0.00059965    -0.00064517    -0.00041972
H         0.77831344    -0.12186253     1.87584549     0.00176316     0.00071277     0.00144899
H        -0.94822312    -0.08629848     1.84843596     0.00088772     0.00056839    -0.00058757
H        -1.00568004     0.13099800    -0.47617169     0.00103484    -0.00052073     0.00068309
     6
  Step:     4            Position(A)                                  Velocity(au)
C        -0.03465762     0.01143088    -0.00614711    -0.00013061     0.00021185    -0.00073542
N        -0.04072260    -0.05254091     1.31333701    -0.00020609    -0.00019048     0.00055353
H         0.92074164    -0.00285307    -0.54184507     0.00060314    -0.00063271    -0.00043349
H         0.78846194    -0.11800459     1.88404066     0.00189985     0.00069355     0.00151287
H        -0.94317642    -0.08317122     1.84509498     0.00093293     0.00056919    -0.00061814
H        -1.00008598     0.12816640    -0.47259240     0.00098440    -0.00050749     0.00061012
     6
  Step:     5            Position(A)                                  Velocity(au)
C        -0.03536139     0.01260083    -0.01044785    -0.00012303     0.00021233    -0.00082034
N        -0.04188200    -0.05359511     1.31661474    -0.00021133    -0.00019207     0.00063275
H         0.92405326    -0.00629627    -0.54426017     0.00059355    -0.00061608    -0.00044066
H         0.79920518    -0.11423588     1.89248182     0.00196991     0.00067615     0.00153125
H        -0.93796412    -0.08003934     1.84163853     0.00094148     0.00056703    -0.00062534
H        -0.99485509     0.12541736    -0.46946244     0.00089784    -0.00048829     0.00051709
     6
  Step:     6            Position(A)                                  Velocity(au)
C        -0.03601410     0.01377202    -0.01519202    -0.00011150     0.00021103    -0.00089074
N        -0.04305266    -0.05465857     1.32031359    -0.00020898    -0.00019261     0.00070174
H         0.92728596    -0.00964585    -0.54670370     0.00057157    -0.00059519    -0.00044144
H         0.81018170    -0.11054954     1.90092389     0.00197440     0.00065909     0.00150570
H        -0.93279585    -0.07691924     1.83820012     0.00091050     0.00056155    -0.00060736
H        -0.99018664     0.12278262    -0.46689113     0.00077624    -0.00046347     0.00040564
     6
  Step:     7            Position(A)                                  Velocity(au)
C        -0.03659448     0.01493463    -0.02029889    -0.00009641     0.00020789    -0.00094540
N        -0.04419316    -0.05572527     1.32437553    -0.00019932    -0.00019194     0.00075895
H         0.93037450    -0.01287865    -0.54914221     0.00053856    -0.00057017    -0.00043640
H         0.82104080    -0.10694680     1.90913384     0.00191769     0.00064119     0.00144009
H        -0.92789457    -0.07382896     1.83492148     0.00083921     0.00055274    -0.00056379
H        -0.98627036     0.12029173    -0.46497636     0.00062316    -0.00043375     0.00027892
     6
  Step:     8            Position(A)                                  Velocity(au)
C        -0.03708379     0.01607866    -0.02568183    -0.00007838     0.00020302    -0.00098405
N        -0.04526418    -0.05678823     1.32873463    -0.00018302    -0.00018999     0.00080358
H         0.93326160    -0.01597225    -0.55154586     0.00049644    -0.00054150    -0.00042649
H         0.83145956    -0.10343520     1.91690249     0.00180709     0.00062169     0.00134028
H        -0.92348433    -0.07078625     1.83194451     0.00072934     0.00054100    -0.00049584
H        -0.98327232     0.11796992    -0.46379639     0.00044448    -0.00040026     0.00014130
     6
  Step:     9            Position(A)                                  Velocity(au)
C        -0.03746701     0.01719469    -0.03125347    -0.00005823     0.00019668    -0.00100747
N        -0.04623057    -0.05784025     1.33332105    -0.00016112    -0.00018686     0.00083568
H         0.93590092    -0.01890670    -0.55389000     0.00044759    -0.00050994    -0.00041294
H         0.84115751    -0.10002603     1.92405400     0.00165225     0.00060035     0.00121358
H        -0.91977543    -0.06780652     1.82940171     0.00058521     0.00052708    -0.00040635
H        -0.98132233     0.11583596    -0.46340338     0.00024791    -0.00036444    -0.00000210
     6
  Step:    10            Position(A)                                  Velocity(au)
C        -0.03773396     0.01827474    -0.03693124    -0.00003687     0.00018923    -0.00101746
N        -0.04706330    -0.05887470     1.33806582    -0.00013491    -0.00018277     0.00085625
H         0.93825937    -0.02166624    -0.55615670     0.00039462    -0.00047650    -0.00039716
H         0.84990859    -0.09673164     1.93045337     0.00146421     0.00057739     0.00106806
H        -0.91694990    -0.06490085     1.82740720     0.00041327     0.00051206    -0.00029947
H        -0.98050420     0.11390055    -0.46381987     0.00004205    -0.00032789    -0.00014614
     6
  Step:    11            Position(A)                                  Velocity(au)
C        -0.03787975     0.01931289    -0.04264290    -0.00002641     0.00031434    -0.00176432
N        -0.04774073    -0.05988622     1.34290597    -0.00018352    -0.00030901     0.00150485
H         0.94031831    -0.02424068    -0.55833577     0.00059026    -0.00076761    -0.00066062
H         0.85754786    -0.09356275     1.93600985     0.00217644     0.00096037     0.00158199
H        -0.91514929    -0.06207455     1.82604942     0.00038416     0.00086276    -0.00031265
H        -0.98085165     0.11216552    -0.46503926    -0.00028578    -0.00050709    -0.00049691
     6
  Step:    12            Position(A)                                  Velocity(au)
C        -0.03796537     0.02102048    -0.05215493    -0.00000419     0.00028873    -0.00159241
N        -0.04867324    -0.06157501     1.35108568    -0.00014454    -0.00028722     0.00138060
H         0.94371757    -0.02846342    -0.56227330     0.00060661    -0.00072425    -0.00072541
H         0.86905583    -0.08826320     1.94439698     0.00187702     0.00091080     0.00137495
H        -0.91362353    -0.05739421     1.82472371     0.00014616     0.00079106    -0.00015034
H        -0.98330549     0.10952863    -0.46848531    -0.00057120    -0.00042680    -0.00070932
     6
  Step:    13            Position(A)                                  Velocity(au)
C        -0.03792731     0.02258748    -0.06070304     0.00001678     0.00026349    -0.00141848
N        -0.04937998    -0.06314371     1.35856395    -0.00010401    -0.00026536     0.00125224
H         0.94719810    -0.03245473    -0.56656297     0.00061516    -0.00068243    -0.00078069
H         0.87883587    -0.08323304     1.95160377     0.00156291     0.00086088     0.00116213
H        -0.91349160    -0.05310285     1.82434435    -0.00010134     0.00072198     0.00001746
H        -0.98732990     0.10732502    -0.47308393    -0.00083117    -0.00035263    -0.00089783
     6
  Step:    14            Position(A)                                  Velocity(au)
C        -0.03777463     0.02401633    -0.06828268     0.00003597     0.00024086    -0.00125627
N        -0.04985584    -0.06459215     1.36532337    -0.00006410    -0.00024565     0.00113187
H         0.95071182    -0.03622252    -0.57114956     0.00061965    -0.00064736    -0.00083225
H         0.88682572    -0.07847524     1.95761008     0.00125407     0.00081727     0.00095723
H        -0.91477574    -0.04918543     1.82492222    -0.00034744     0.00066132     0.00018357
H        -0.99275564     0.10551927    -0.47869338    -0.00106406    -0.00028764    -0.00106762
     6
  Step:    15            Position(A)                                  Velocity(au)
C        -0.03751905     0.02532153    -0.07496328     0.00005322     0.00022156    -0.00111043
N        -0.05010757    -0.06593219     1.37141210    -0.00002578    -0.00022885     0.00102402
H         0.95423189    -0.03980306    -0.57601002     0.00062165    -0.00062084    -0.00088366
H         0.89307118    -0.07395598     1.96246956     0.00095786     0.00078250     0.00076503
H        -0.91743544    -0.04559598     1.82642807    -0.00058510     0.00061067     0.00034395
H        -0.99940828     0.10405993    -0.48520272    -0.00127035    -0.00023219    -0.00122347
     6
  Step:    16            Position(A)                                  Velocity(au)
C        -0.03717285     0.02652153    -0.08083863     0.00006844     0.00020528    -0.00097962
N        -0.05014729    -0.06717987     1.37690225     0.00001049    -0.00021468     0.00092792
H         0.95774102    -0.04324255    -0.58114132     0.00062050    -0.00060210    -0.00093547
H         0.89765654    -0.06962731     1.96626049     0.00067438     0.00075582     0.00058502
H        -0.92139163    -0.04228043     1.82881131    -0.00080778     0.00056868     0.00049525
H        -1.00711980     0.10289389    -0.49252754    -0.00144828    -0.00018528    -0.00136627
     6
  Step:    17            Position(A)                                  Velocity(au)
C        -0.03674844     0.02763301    -0.08599417     0.00008145     0.00019133    -0.00086054
N        -0.04998947    -0.06834953     1.38186080     0.00004425    -0.00020243     0.00084089
H         0.96121888    -0.04658289    -0.58654374     0.00061435    -0.00058925    -0.00098626
H         0.90066492    -0.06544515     1.96905712     0.00040220     0.00073515     0.00041548
H        -0.92653131    -0.03919248     1.83200480    -0.00100793     0.00053294     0.00063364
H        -1.01571638     0.10197365    -0.50058735    -0.00159401    -0.00014567    -0.00149396
     6
  Step:    18            Position(A)                                  Velocity(au)
C        -0.03625876     0.02866879    -0.09049649     0.00009208     0.00017906    -0.00075026
N        -0.04965067    -0.06945174     1.38633961     0.00007497    -0.00019145     0.00076046
H         0.96463584    -0.04985571    -0.59221006     0.00060134    -0.00058042    -0.00103398
H         0.90217038    -0.06137677     1.97092342     0.00014111     0.00071838     0.00025544
H        -0.93270361    -0.03629923     1.83592266    -0.00117775     0.00050116     0.00075502
H        -1.02500939     0.10125902    -0.50929428    -0.00170369    -0.00011232    -0.00160396
     6
  Step:    19            Position(A)                                  Velocity(au)
C        -0.03571733     0.02963813    -0.09439560     0.00010023     0.00016801    -0.00064685
N        -0.04914997    -0.07049342     1.39037646     0.00010207    -0.00018127     0.00068493
H         0.96795267    -0.05308243    -0.59812219     0.00058010    -0.00057413    -0.00107681
H         0.90224505    -0.05740074     1.97191754    -0.00010750     0.00070397     0.00010504
H        -0.93971968    -0.03358047     1.84045945    -0.00131051     0.00047156     0.00085579
H        -1.03479423     0.10071588    -0.51854843    -0.00177480    -0.00008445    -0.00169414
     6
  Step:    20            Position(A)                                  Velocity(au)
C        -0.03513790     0.03054765    -0.09773041     0.00010588     0.00015785    -0.00054920
N        -0.04850916    -0.07147888     1.39399940     0.00012506    -0.00017156     0.00061329
H         0.97112327    -0.05627639    -0.60425233     0.00054987    -0.00056933    -0.00111342
H         0.90096823    -0.05350403     1.97209807    -0.00034114     0.00069093    -0.00003481
H        -0.94735937    -0.03102564     1.84549318    -0.00140152     0.00044288     0.00093341
H        -1.04485749     0.10031462    -0.52824033    -0.00180674    -0.00006146    -0.00176338
     6
  Step:    21            Position(A)                                  Velocity(au)
C        -0.03453398     0.03140226    -0.10053341     0.00010916     0.00014841    -0.00045674
N        -0.04775234    -0.07241072     1.39723054     0.00014356    -0.00016215     0.00054499
H         0.97409797    -0.05944518    -0.61056564     0.00051046    -0.00056530    -0.00114299
H         0.89843252    -0.04967904     1.97152850    -0.00055682     0.00067868    -0.00016275
H        -0.95538285    -0.02863086     1.85089115    -0.00144854     0.00041432     0.00098662
H        -1.05498615     0.10002905    -0.53825577    -0.00180071    -0.00004286    -0.00181159
     6
  Step:    22            Position(A)                                  Velocity(au)
C        -0.03391828     0.03220582    -0.10283366     0.00011024     0.00013956    -0.00036920
N        -0.04690518    -0.07329059     1.40008856     0.00015737    -0.00015296     0.00047970
H         0.97682662    -0.06259253    -0.61702304     0.00046210    -0.00056159    -0.00116516
H         0.89474689    -0.04592107     1.97027964    -0.00075140     0.00066702    -0.00027728
H        -0.96354399    -0.02639641     1.85651681    -0.00145171     0.00038540     0.00101541
H        -1.06497700     0.09983579    -0.54848132    -0.00175943    -0.00002820    -0.00183955
     6
  Step:    23            Position(A)                                  Velocity(au)
C        -0.03330230     0.03296151    -0.10465846     0.00010939     0.00013123    -0.00028643
N        -0.04599409    -0.07411973     1.40259013     0.00016644    -0.00014397     0.00041723
H         0.97926098    -0.06571976    -0.62358380     0.00040540    -0.00055795    -0.00117997
H         0.89003728    -0.04222653     1.96843048    -0.00092195     0.00065596    -0.00037694
H        -0.97160257    -0.02432486     1.86223612    -0.00141317     0.00035591     0.00102080
H        -1.07464398     0.09971394    -0.55880881    -0.00168669    -0.00001708    -0.00184879
     6
  Step:    24            Position(A)                                  Velocity(au)
C        -0.03269601     0.03367216    -0.10603413     0.00010690     0.00012340    -0.00020831
N        -0.04504541    -0.07489924     1.40475058     0.00017087    -0.00013519     0.00035743
H         0.98135644    -0.06882681    -0.63020754     0.00034115    -0.00055424    -0.00118773
H         0.88444541    -0.03859161     1.96606785    -0.00106592     0.00064569    -0.00046045
H        -0.97933427    -0.02241963     1.86792286    -0.00133661     0.00032582     0.00100467
H        -1.08382347     0.09964492    -0.56913900    -0.00158695    -0.00000909    -0.00184128
     6
  Step:    25            Position(A)                                  Velocity(au)
C        -0.03210772     0.03434040    -0.10698619     0.00010308     0.00011603    -0.00013471
N        -0.04408472    -0.07563036     1.40658422     0.00017085    -0.00012666     0.00030013
H         0.98307313    -0.07191299    -0.63685583     0.00027025    -0.00055043    -0.00118895
H         0.87812629    -0.03501139     1.96328525    -0.00118131     0.00063650    -0.00052680
H        -0.98653827    -0.02068404     1.87346261    -0.00122667     0.00029523     0.00096938
H        -1.09237705     0.09961235    -0.57938386    -0.00146473    -0.00000386    -0.00181919
     6
  Step:    26            Position(A)                                  Velocity(au)
C        -0.03154413     0.03496874    -0.10753940     0.00009821     0.00010912    -0.00006545
N        -0.04313633    -0.07631455     1.40810434     0.00016663    -0.00011843     0.00024513
H         0.98437626    -0.07497751    -0.64349314     0.00019360    -0.00054657    -0.00118425
H         0.87124521    -0.03147922     1.96018131    -0.00126649     0.00062875    -0.00057517
H        -0.99304139    -0.01912069     1.87875500    -0.00108854     0.00026429     0.00091761
H        -1.10019073     0.09960183    -0.58946708    -0.00132437    -0.00000103    -0.00178471
     6
  Step:    27            Position(A)                                  Velocity(au)
C        -0.03101042     0.03555961    -0.10771745     0.00009255     0.00010265    -0.00000030
N        -0.04222297    -0.07695357     1.40932306     0.00015852    -0.00011055     0.00019219
H         0.98523626    -0.07801980    -0.65008746     0.00011212    -0.00054271    -0.00117431
H         0.86397583    -0.02798637     1.95685889    -0.00132027     0.00062285    -0.00060497
H        -0.99870052    -0.01773111     1.88371505    -0.00092763     0.00023322     0.00085213
H        -1.10717420     0.09960082    -0.59932438    -0.00116990    -0.00000030    -0.00173995
     6
  Step:    28            Position(A)                                  Velocity(au)
C        -0.03051036     0.03611540    -0.10754275     0.00008632     0.00009661     0.00006101
N        -0.04136556    -0.07754946     1.41025112     0.00014687    -0.00010307     0.00014103
H         0.98562868    -0.08103975    -0.65661056     0.00002664    -0.00053894    -0.00115977
H         0.85649733    -0.02452184     1.95342357    -0.00134203     0.00061917    -0.00061592
H        -1.00340332    -0.01651558     1.88827362    -0.00074925     0.00020221     0.00077570
H        -1.11325886     0.09959851    -0.60890289    -0.00100489    -0.00000136    -0.00168684
     6
  Step:    29            Position(A)                                  Velocity(au)
C        -0.03004654     0.03663839    -0.10703621     0.00007972     0.00009098     0.00011877
N        -0.04058298    -0.07810450     1.41089790     0.00013203    -0.00009602     0.00009141
H         0.98553378    -0.08403773    -0.66303786    -0.00006205    -0.00053533    -0.00114125
H         0.84899032    -0.02107249     1.94998135    -0.00133188     0.00061808    -0.00060815
H        -1.00706691    -0.01547316     1.89237671    -0.00055837     0.00017147     0.00069084
H        -1.11839510     0.09958564    -0.61816012    -0.00083239    -0.00000395    -0.00162703
     6
  Step:    30            Position(A)                                  Velocity(au)
C        -0.02962056     0.03713081    -0.10621711     0.00007291     0.00008573     0.00017330
N        -0.03989196    -0.07862118     1.41127139     0.00011439    -0.00008943     0.00004307
H         0.98493618    -0.08701459    -0.66934814    -0.00015324    -0.00053195    -0.00111925
H         0.84163207    -0.01762334     1.94663590    -0.00129073     0.00061986    -0.00058228
H        -1.00963540    -0.01460182     1.89598419    -0.00035947     0.00014115     0.00059986
H        -1.12254921     0.09955437    -0.62706236    -0.00065491    -0.00000785    -0.00156191
     6
  Step:    31            Position(A)                                  Velocity(au)
C        -0.02923325     0.03759474    -0.10510309     0.00006599     0.00008085     0.00022487
N        -0.03930696    -0.07910213     1.41137839     0.00009436    -0.00008332    -0.00000419
H         0.98382436    -0.08997164    -0.67552309    -0.00024630    -0.00052886    -0.00109421
H         0.83459224    -0.01415799     1.94348605    -0.00122020     0.00062468    -0.00053932
H        -1.01107683    -0.01389859     1.89906820    -0.00015657     0.00011142     0.00050480
H        -1.12570058     0.09949805    -0.63558322    -0.00047448    -0.00001285    -0.00149257
     6
  Step:    32            Position(A)                                  Velocity(au)
C        -0.02888486     0.03803216    -0.10371024     0.00005906     0.00007631     0.00027374
N        -0.03884004    -0.07955003     1.41122468     0.00007237    -0.00007768    -0.00005054
H         0.98219034    -0.09291051    -0.68154673    -0.00034061    -0.00052609    -0.00106646
H         0.82802890    -0.01065924     1.94062340    -0.00112271     0.00063262    -0.00048078
H        -1.01138093    -0.01335972     1.90161188     0.00004662     0.00008238     0.00040751
H        -1.12783886     0.09941111    -0.64370196    -0.00029275    -0.00001877    -0.00141984
     6
  Step:    33            Position(A)                                  Velocity(au)
C        -0.02857520     0.03844491    -0.10205322     0.00005219     0.00007207     0.00032014
N        -0.03850067    -0.07996756     1.41081528     0.00004891    -0.00007250    -0.00009609
H         0.98002945    -0.09583301    -0.68740491    -0.00043559    -0.00052364    -0.00103623
H         0.82208373    -0.00710972     1.93812947    -0.00100152     0.00064361    -0.00040870
H        -1.01055743    -0.01298074     1.90360846     0.00024664     0.00005417     0.00030971
H        -1.12896219     0.09928893    -0.65140223    -0.00011111    -0.00002545    -0.00134437
     6
  Step:    34            Position(A)                                  Velocity(au)
C        -0.02830373     0.03883468    -0.10014556     0.00004543     0.00006812     0.00036423
N        -0.03829545    -0.08035734     1.41015481     0.00002451    -0.00006778    -0.00014085
H         0.97734025    -0.09874108    -0.69308482    -0.00053060    -0.00052150    -0.00100369
H         0.81687736    -0.00349282     1.93607271    -0.00086071     0.00065742    -0.00032560
H        -1.00863469    -0.01275652     1.90506040     0.00044018     0.00002691     0.00021301
H        -1.12907598     0.09912777    -0.65867107     0.00006921    -0.00003273    -0.00126664
     6
  Step:    35            Position(A)                                  Velocity(au)
C        -0.02806966     0.03920302    -0.09799989     0.00003881     0.00006443     0.00040610
N        -0.03822788    -0.08072183     1.40924787    -0.00000024    -0.00006347    -0.00018477
H         0.97412463    -0.10163657    -0.69857449    -0.00062501    -0.00051964    -0.00096892
H         0.81250528     0.00020641     1.93450597    -0.00070514     0.00067364    -0.00023453
H        -1.00565887    -0.01268130     1.90597897     0.00062402     0.00000071     0.00011899
H        -1.12819199     0.09892467    -0.66549801     0.00024705    -0.00004048    -0.00118699
     6
  Step:    36            Position(A)                                  Velocity(au)
C        -0.02787204     0.03955134    -0.09562832     0.00003237     0.00006096     0.00044580
N        -0.03829813    -0.08106332     1.40809949    -0.00002473    -0.00005953    -0.00022774
H         0.97038800    -0.10452119    -0.70386244    -0.00071810    -0.00051799    -0.00093196
H         0.80903390     0.00400031     1.93346395    -0.00054026     0.00069168    -0.00013892
H        -1.00169352    -0.01274865     1.90638394     0.00079495    -0.00002429     0.00002919
H        -1.12632790     0.09867746    -0.67187441     0.00042132    -0.00004856    -0.00110571
     6
  Step:    37            Position(A)                                  Velocity(au)
C        -0.02770973     0.03988092    -0.09304283     0.00002613     0.00005771     0.00048327
N        -0.03850282    -0.08138382     1.40671552    -0.00004828    -0.00005593    -0.00026953
H         0.96613969    -0.10739634    -0.70893740    -0.00080906    -0.00051648    -0.00089281
H         0.80649780     0.00789759     1.93296129    -0.00037200     0.00071079    -0.00004250
H        -0.99681937    -0.01295142     1.90630352     0.00094980    -0.00004795    -0.00005482
H        -1.12350710     0.09838469    -0.67779297     0.00059087    -0.00005683    -0.00102299
     6
  Step:    38            Position(A)                                  Velocity(au)
C        -0.02758154     0.04019290    -0.09025564     0.00002011     0.00005464     0.00051840
N        -0.03883491    -0.08168510     1.40510299    -0.00007025    -0.00005260    -0.00030988
H         0.96139338    -0.11026308    -0.71378814    -0.00089699    -0.00051503    -0.00085147
H         0.80489824     0.01190252     1.93299151    -0.00020639     0.00073010     0.00005089
H        -0.99113424    -0.01328168     1.90577445     0.00108540    -0.00007009    -0.00013147
H        -1.11975891     0.09804568    -0.68324748     0.00075451    -0.00006514    -0.00093907
     6
  Step:    39            Position(A)                                  Velocity(au)
C        -0.02748613     0.04048835    -0.08727958     0.00001434     0.00005174     0.00055104
N        -0.03928377    -0.08196857     1.40327050    -0.00008997    -0.00004949    -0.00034846
H         0.95616760    -0.11312202    -0.71840347    -0.00098093    -0.00051355    -0.00080799
H         0.80420334     0.01601429     1.93352699    -0.00004932     0.00074862     0.00013746
H        -0.98475272    -0.01373062     1.90484198     0.00119866    -0.00009055    -0.00019915
H        -1.11511902     0.09766050    -0.68823289     0.00091094    -0.00007336    -0.00085420
     6
  Step:    40            Position(A)                                  Velocity(au)
C        -0.02742208     0.04076823    -0.08412846     0.00000883     0.00004901     0.00058097
N        -0.03983528    -0.08223538     1.40122835    -0.00010684    -0.00004655    -0.00038493
H         0.95048613    -0.11597335    -0.72277235    -0.00105987    -0.00051198    -0.00076243
H         0.80434989     0.02022664     1.93451999     0.00009382     0.00076537     0.00021377
H        -0.97780600    -0.01428854     1.90356006     0.00128667    -0.00010916    -0.00025629
H        -1.10962999     0.09723002    -0.69274551     0.00105879    -0.00008132    -0.00076871
     6
  Step:    41            Position(A)                                  Velocity(au)
C        -0.02738786     0.04103348    -0.08081725     0.00000362     0.00004643     0.00060795
N        -0.04047217    -0.08248639     1.39898873    -0.00012034    -0.00004374    -0.00041895
H         0.94437831    -0.11881691    -0.72688422    -0.00113275    -0.00051026    -0.00071494
H         0.80524688     0.02452784     1.93590482     0.00021838     0.00077941     0.00027683
H        -0.97044061    -0.01494480     1.90199118     0.00134687    -0.00012574    -0.00030141
H        -1.10334173     0.09675593    -0.69678351     0.00119666    -0.00008889    -0.00068304
     6
  Step:    42            Position(A)                                  Velocity(au)
C        -0.02738179     0.04128500    -0.07736220    -0.00000128     0.00004402     0.00063179
N        -0.04117459    -0.08272219     1.39656565    -0.00013007    -0.00004102    -0.00045018
H         0.93787908    -0.12165228    -0.73072937    -0.00119862    -0.00050838    -0.00066579
H         0.80678041     0.02890116     1.93760100     0.00032081     0.00078992     0.00032435
H        -0.96281597    -0.01568794     1.90020551     0.00137734    -0.00014017    -0.00033328
H        -1.09631168     0.09624075    -0.70034742     0.00132318    -0.00009590    -0.00059774
     6
  Step:    43            Position(A)                                  Velocity(au)
C        -0.02740207     0.04152372    -0.07378072    -0.00000582     0.00004177     0.00065228
N        -0.04192082    -0.08294322     1.39397478    -0.00013578    -0.00003836    -0.00047837
H         0.93102865    -0.12447902    -0.73429944    -0.00125660    -0.00050638    -0.00061529
H         0.80881996     0.03332557     1.93951732     0.00039875     0.00079625     0.00035483
H        -0.95510040    -0.01650592     1.89827928     0.00137707    -0.00015237    -0.00035104
H        -1.08860471     0.09568784    -0.70344086     0.00143710    -0.00010222    -0.00051347
     6
  Step:    44            Position(A)                                  Velocity(au)
C        -0.02744672     0.04175063    -0.07009129    -0.00001000     0.00003971     0.00066932
N        -0.04268815    -0.08314977     1.39123328    -0.00013740    -0.00003575    -0.00050330
H         0.92387192    -0.12729686    -0.73758796    -0.00130600    -0.00050434    -0.00056389
H         0.81122520     0.03777694     1.94155630     0.00045106     0.00079803     0.00036760
H        -0.94746585    -0.01738645     1.89629250     0.00134611    -0.00016236    -0.00035431
H        -1.08029250     0.09510133    -0.70607104     0.00153734    -0.00010772    -0.00043097
     6