    14
  Step:     0            Position(A)                                  Velocity(au)
C        -6.04961474    -0.63069369    -0.08567244    -0.00033904    -0.00003173     0.00007785
C        -4.70334178    -0.79699951     0.12043426     0.00015257    -0.00000731    -0.00001616
H        -6.40434816     0.36656725    -0.26348967     0.00092050     0.00005474    -0.00081159
H        -6.65187109    -1.51901633    -0.26879618    -0.00087331    -0.00051232    -0.00077208
H        -4.30007996    -1.83331178     0.31744765    -0.00001442    -0.00070288     0.00018799
C        -3.86836123     0.32955679     0.02440458    -0.00008918     0.00015281     0.00000865
C        -2.48310425     0.45052673     0.12741171     0.00009707    -0.00032243    -0.00000289
H        -4.26981656     1.36183171    -0.18413867     0.00060986     0.00068479    -0.00029544
H        -1.82141085    -0.42658784     0.33632540     0.00104056    -0.00068944     0.00068195
C        -1.81850424     1.66976986    -0.07161346     0.00020225     0.00017769     0.00027189
H        -2.34996019     2.48253713    -0.68363751     0.00020182     0.00004193    -0.00012388
N        -0.59947952     1.88120636     0.24994844    -0.00005064     0.00015863    -0.00000547
H        -0.14459249     2.78982761     0.16173318    -0.00030700    -0.00092591    -0.00104750
H        -0.21403965     1.09700887     0.75503231    -0.00115637     0.00021398    -0.00178712
    14
  Step:     1            Position(A)                                  Velocity(au)
C        -6.05344259    -0.63111317    -0.08489683    -0.00035952    -0.00004723     0.00006350
C        -4.70144179    -0.79713776     0.12031303     0.00019275    -0.00001829    -0.00000598
H        -6.39506511     0.36759448    -0.27232340     0.00076958     0.00013754    -0.00080368
H        -6.66197159    -1.52429774    -0.27697624    -0.00095352    -0.00042712    -0.00071639
H        -4.30044695    -1.83960847     0.31926800    -0.00005416    -0.00043269     0.00014222
C        -3.86975842     0.33132820     0.02443505    -0.00016559     0.00016991    -0.00000319
C        -2.48148902     0.44689901     0.12743385     0.00020024    -0.00033982     0.00000727
H        -4.26393699     1.36786913    -0.18728247     0.00046316     0.00041258    -0.00027660
H        -1.81078683    -0.43353166     0.34399184     0.00088190    -0.00055936     0.00071282
C        -1.81692125     1.67178674    -0.06894071     0.00008489     0.00018873     0.00021630
H        -2.34713934     2.48196006    -0.68347994     0.00031028    -0.00014552     0.00015340
N        -0.59962001     1.88298405     0.25000449     0.00002127     0.00016682     0.00001356
H        -0.14786842     2.77922011     0.15032583    -0.00026260    -0.00096384    -0.00104166
H        -0.22544041     1.09968234     0.73589975    -0.00088727     0.00021680    -0.00167004
    14
  Step:     2            Position(A)                                  Velocity(au)
C        -6.05747991    -0.63172693    -0.08428335    -0.00037741    -0.00006635     0.00004822
C        -4.69912508    -0.79739955     0.12030347     0.00022852    -0.00002903     0.00000406
H        -6.38751203     0.36957617    -0.28107180     0.00060751     0.00022282    -0.00079497
H        -6.67273116    -1.52836043    -0.28446856    -0.00099589    -0.00029420    -0.00064702
H        -4.30126492    -1.84277775     0.32055908    -0.00009360    -0.00013997     0.00009287
C        -3.87198384     0.33327387     0.02433475    -0.00024002     0.00018390    -0.00001510
C        -2.47872371     0.44309257     0.12757070     0.00030596    -0.00035451     0.00001785
H        -4.25968399     1.37085759    -0.19018974     0.00031144     0.00013446    -0.00025318
H        -1.80211754    -0.43882497     0.35191968     0.00068977    -0.00039483     0.00073179
C        -1.81664720     1.67389877    -0.06688140    -0.00003442     0.00019470     0.00016087
H        -2.34317221     2.47935352    -0.68028153     0.00040578    -0.00032131     0.00042589
N        -0.59901424     1.88485593     0.25024505     0.00008451     0.00017516     0.00002836
H        -0.15033744     2.76874178     0.13894482    -0.00015839    -0.00090000    -0.00104450
H        -0.23345037     1.10175180     0.71849698    -0.00054240     0.00010865    -0.00147770
    14
  Step:     3            Position(A)                                  Velocity(au)
C        -6.06169920    -0.63256473    -0.08384201    -0.00039283    -0.00008721     0.00003204
C        -4.69644248    -0.79777292     0.12040193     0.00025947    -0.00003785     0.00001359
H        -6.38177462     0.37246913    -0.28971496     0.00044071     0.00029784    -0.00078327
H        -6.68375864    -1.53073387    -0.29113105    -0.00100551    -0.00012416    -0.00056575
H        -4.30249458    -1.84267063     0.32129980    -0.00012637     0.00015745     0.00004330
C        -3.87500942     0.33535141     0.02410461    -0.00031119     0.00019331    -0.00002676
C        -2.47479558     0.43914353     0.12782441     0.00041129    -0.00036539     0.00002839
H        -4.25712358     1.37081076    -0.19282135     0.00015276    -0.00013528    -0.00022725
H        -1.79569689    -0.44216938     0.36000122     0.00047752    -0.00021012     0.00074297
C        -1.81767424     1.67604619    -0.06542146    -0.00015039     0.00019483     0.00010785
H        -2.33826219     2.47493078    -0.67416281     0.00047689    -0.00046954     0.00068076
N        -0.59777112     1.88681599     0.25062499     0.00013725     0.00018206     0.00003952
H        -0.15133340     2.75953093     0.12747532     0.00000389    -0.00073702    -0.00105882
H        -0.23730637     1.10205921     0.70357215    -0.00013868    -0.00008984    -0.00122954
    14
  Step:     4            Position(A)                                  Velocity(au)
C        -6.06607392    -0.63363480    -0.08358245    -0.00040580    -0.00010788     0.00001503
C        -4.69344865    -0.79822764     0.12060075     0.00028517    -0.00004318     0.00002224
H        -6.37787057     0.37609201    -0.29820724     0.00027497     0.00035097    -0.00076617
H        -6.69472864    -1.53107666    -0.29684537    -0.00098885     0.00007063    -0.00047504
H        -4.30402944    -1.83933323     0.32150636    -0.00014644     0.00044166    -0.00000300
C        -3.87879177     0.33750291     0.02374932    -0.00037746     0.00019688    -0.00003780
C        -2.46972590     0.43509897     0.12819188     0.00051291    -0.00037159     0.00003841
H        -4.25634216     1.36789807    -0.19516132    -0.00001467    -0.00038259    -0.00020110
H        -1.79167084    -0.44342174     0.36817357     0.00025877    -0.00001940     0.00075036
C        -1.81993736     1.67816112    -0.06452203    -0.00025804     0.00018840     0.00005946
H        -2.33273927     2.46908135    -0.66538856     0.00051194    -0.00057385     0.00090438
N        -0.59601170     1.88883889     0.25110969     0.00017918     0.00018579     0.00004823
H        -0.15025244     2.75261813     0.11578108     0.00021411    -0.00049277    -0.00108518
H        -0.23648431     1.09978627     0.69159840     0.00029832    -0.00033920    -0.00095437
    14
  Step:     5            Position(A)                                  Velocity(au)
C        -6.07057695    -0.63492491    -0.08351327    -0.00041613    -0.00012664    -0.00000269
C        -4.69020378    -0.79871766     0.12088837     0.00030497    -0.00004374     0.00002965
H        -6.37575912     0.38014737    -0.30647632     0.00011503     0.00037329    -0.00074146
H        -6.70539168    -1.52918880    -0.30152343    -0.00095316     0.00027702    -0.00037780
H        -4.30569826    -1.83300855     0.32123416    -0.00014803     0.00069463    -0.00004245
C        -3.88326703     0.33965848     0.02327758    -0.00043672     0.00019373    -0.00004786
C        -2.46357462     0.43101431     0.12866461     0.00060711    -0.00037245     0.00004739
H        -4.25744441     1.36244094    -0.19722080    -0.00019235    -0.00059395    -0.00017731
H        -1.79003575    -0.44259382     0.37641683     0.00004725     0.00016306     0.00075788
C        -1.82331928     1.68016771    -0.06412057    -0.00035293     0.00017471     0.00001775
H        -2.32706257     2.46237670    -0.65437787     0.00049942    -0.00061781     0.00108271
N        -0.59385119     1.89088059     0.25168019     0.00021155     0.00018494     0.00005594
H        -0.14664934     2.74875066     0.10373489     0.00045396    -0.00019988    -0.00112104
H        -0.23078005     1.09463851     0.68269349     0.00073796    -0.00058809    -0.00068512
    14
  Step:     6            Position(A)                                  Velocity(au)
C        -6.07517763    -0.63640534    -0.08364125    -0.00042334    -0.00014206    -0.00002089
C        -4.68677690    -0.79918454     0.12124935     0.00031789    -0.00003856     0.00003548
H        -6.37535405     0.38425836    -0.31442803    -0.00003559     0.00035950    -0.00070750
H        -6.71558088    -1.52501630    -0.30511037    -0.00090618     0.00048170    -0.00027708
H        -4.30726784    -1.82413681     0.32057767    -0.00012571     0.00089869    -0.00007158
C        -3.88834591     0.34174112     0.02270238    -0.00048660     0.00018344    -0.00005654
C        -2.45644427     0.42695091     0.12922868     0.00068999    -0.00036749     0.00005486
H        -4.26055018     1.35490421    -0.19904038    -0.00038145    -0.00075701    -0.00015859
H        -1.79063717    -0.43985446     0.38475354    -0.00014332     0.00032280     0.00076948
C        -1.82765830     1.68198328    -0.06413376    -0.00043147     0.00015325    -0.00001560
H        -2.32181349     2.45556548    -0.64170223     0.00042912    -0.00058630     0.00120278
N        -0.59138370     1.89288483     0.25233338     0.00023666     0.00017889     0.00006385
H        -0.14032122     2.74824547     0.09125618     0.00069919     0.00009904    -0.00116062
H        -0.22033997     1.08692065     0.67661003     0.00114956    -0.00078473    -0.00045216
    14
  Step:     7            Position(A)                                  Velocity(au)
C        -6.07983822    -0.63803284    -0.08397036    -0.00042667    -0.00015310    -0.00003930
C        -4.68324942    -0.79956129     0.12166465     0.00032276    -0.00002704     0.00003943
H        -6.37653767     0.38801222    -0.32195429    -0.00017458     0.00030828    -0.00066344
H        -6.72521611    -1.51865077    -0.30758519    -0.00085591     0.00067157    -0.00017598
H        -4.30844841    -1.81334790     0.31966824    -0.00007474     0.00103741    -0.00008722
C        -3.89391239     0.34367166     0.02204071    -0.00052486     0.00016602    -0.00006352
C        -2.44847967     0.42297474     0.12986475     0.00075800    -0.00035629     0.00006032
H        -4.26578935     1.34587984    -0.20069036    -0.00058248    -0.00086154    -0.00014751
H        -1.79317108    -0.43553198     0.39325076    -0.00029963     0.00044539     0.00078937
C        -1.83275843     1.68352029    -0.06446193    -0.00049107     0.00012376    -0.00003941
H        -2.31767483     2.44955033    -0.62806486     0.00029396    -0.00046813     0.00125513
N        -0.58867391     1.89479413     0.25307703     0.00025719     0.00016805     0.00007262
H        -0.13135331     2.75091743     0.07834414     0.00092379     0.00035945    -0.00119583
H        -0.20563119     1.07747113     0.67280159     0.00150733    -0.00088837    -0.00027756
    14
  Step:     8            Position(A)                                  Velocity(au)
C        -6.08451191    -0.63975462    -0.08450097    -0.00042532    -0.00015904    -0.00005755
C        -4.67971590    -0.79977603     0.12211204     0.00031852    -0.00000891     0.00004126
H        -6.37917337     0.39100261    -0.32894212    -0.00030071     0.00022194    -0.00060927
H        -6.73430546    -1.51032445    -0.30896026    -0.00081032     0.00083424    -0.00007746
H        -4.30890298    -1.80144144     0.31866961     0.00000837     0.00109731    -0.00008682
C        -3.89982824     0.34537314     0.02131278    -0.00054992     0.00014186    -0.00006859
C        -2.43986165     0.41915640     0.13054819     0.00080833    -0.00033841     0.00006330
H        -4.27329303     1.33605637    -0.20226746    -0.00079480    -0.00090110    -0.00014599
H        -1.79719218    -0.43011080     0.40202244    -0.00040964     0.00051720     0.00082193
C        -1.83840145     1.68469068    -0.06499601    -0.00053036     0.00008656    -0.00005327
H        -2.31538251     2.44532417    -0.61424377     0.00009279    -0.00026036     0.00123734
N        -0.58575711     1.89656116     0.25392210     0.00027554     0.00015368     0.00008221
H        -0.12011150     2.75610922     0.06509512     0.00110481     0.00054381    -0.00121802
H        -0.18736421     1.06748584     0.67053791     0.00179369    -0.00087656    -0.00017233
    14
  Step:     9            Position(A)                                  Velocity(au)
C        -6.08914291    -0.64151215    -0.08522937    -0.00041853    -0.00015953    -0.00007527
C        -4.67628128    -0.79975621     0.12256726     0.00030444     0.00001560     0.00004084
H        -6.38311635     0.39286765    -0.33528321    -0.00041361     0.00010592    -0.00054578
H        -6.74294343    -1.50040024    -0.30927969    -0.00077705     0.00095846     0.00001571
H        -4.30826538    -1.78934206     0.31776881     0.00012495     0.00107049    -0.00006895
C        -3.90594289     0.34677518     0.02054018    -0.00056112     0.00011181    -0.00007172
C        -2.43079583     0.41557131     0.13124960     0.00083931    -0.00031351     0.00006343
H        -4.28317717     1.32616648    -0.20388426    -0.00101604    -0.00087479    -0.00015481
H        -1.80213276    -0.42421714     0.41123214    -0.00046381     0.00052693     0.00087151
C        -1.84436100     1.68541405    -0.06562725    -0.00054927     0.00004292    -0.00005772
H        -2.31564496     2.44385453    -0.60099561    -0.00016711     0.00002747     0.00115690
N        -0.58264601     1.89815626     0.25487550     0.00029332     0.00013750     0.00009204
H        -0.10718350     2.76281436     0.05169760     0.00122614     0.00062826    -0.00121992
H        -0.16639084     1.05829478     0.66903162     0.00200020    -0.00074613    -0.00013695
    14
  Step:    10            Position(A)                                  Velocity(au)
C        -6.09366801    -0.64324463    -0.08614764    -0.00040574    -0.00015452    -0.00009208
C        -4.67305572    -0.79943485     0.12300560     0.00028034     0.00004557     0.00003825
H        -6.38822191     0.39331984    -0.34088217    -0.00051355    -0.00003202    -0.00047448
H        -6.75130502    -1.48935626    -0.30861658    -0.00076284     0.00103487     0.00010113
H        -4.30616949    -1.77802236     0.31716118     0.00027317     0.00095744    -0.00003380
C        -3.91210380     0.34781922     0.01974381    -0.00055873     0.00007725    -0.00007308
C        -2.42150013     0.41229779     0.13193584     0.00085038    -0.00028155     0.00006046
H        -4.29552091     1.31691869    -0.20565418    -0.00124154    -0.00078860    -0.00017313
H        -1.80733898    -0.41858318     0.42108836    -0.00045697     0.00046792     0.00094142
C        -1.85041789     1.68562956    -0.06625883    -0.00054915    -0.00000477    -0.00005439
H        -2.31903843     2.44592507    -0.58893430    -0.00046870     0.00037072     0.00103225
N        -0.57934018     1.89956931     0.25593567     0.00031132     0.00012118     0.00010129
H        -0.09328740     2.76985360     0.03840693     0.00128023     0.00060501    -0.00119707
H        -0.14360610     1.05116291     0.66754189     0.00212657    -0.00050957    -0.00016402
    14
  Step:    11            Position(A)                                  Velocity(au)
C        -6.09801924    -0.64489263    -0.08724377    -0.00038668    -0.00014433    -0.00010764
C        -4.67014831    -0.79875923     0.12340410     0.00024663     0.00007925     0.00003375
H        -6.39435127     0.39216719    -0.34566330    -0.00060126    -0.00018255    -0.00039737
H        -6.75963192    -1.47776048    -0.30706724    -0.00077265     0.00105698     0.00017715
H        -4.30228934    -1.76839612     0.31702930     0.00044714     0.00076938     0.00001629
C        -3.91816607     0.34846520     0.01894148    -0.00054377     0.00004018    -0.00007304
C        -2.41219210     0.40941187     0.13257219     0.00084212    -0.00024313     0.00005439
H        -4.31033827     1.30891430    -0.20767190    -0.00146398    -0.00065603    -0.00019835
H        -1.81212984    -0.41398059     0.43182760    -0.00039021     0.00034096     0.00103279
C        -1.85637470     1.68530974    -0.06681710    -0.00053243    -0.00005297    -0.00004569
H        -2.32589874     2.45196481    -0.57841326    -0.00078662     0.00073145     0.00089029
N        -0.57583533     1.90080730     0.25709133     0.00032954     0.00010606     0.00010910
H        -0.07917593     2.77605016     0.02550940     0.00126764     0.00048076    -0.00114834
H        -0.11986808     1.04714703     0.66544345     0.00217866    -0.00018945    -0.00024143
    14
  Step:    12            Position(A)                                  Velocity(au)
C        -6.10212745    -0.64640207    -0.08850242    -0.00036144    -0.00012964    -0.00012168
C        -4.66766031    -0.79770119     0.12374392     0.00020429     0.00011395     0.00002781
H        -6.40137558     0.38932619    -0.34957540    -0.00067780    -0.00033545    -0.00031688
H        -6.76820814    -1.46623278    -0.30474111    -0.00080875     0.00102229     0.00024311
H        -4.29638737    -1.76119068     0.31751747     0.00063671     0.00052855     0.00007673
C        -3.92399971     0.34869819     0.01814584    -0.00051784     0.00000310    -0.00007216
C        -2.40307718     0.40697884     0.13312562     0.00081613    -0.00019970     0.00004557
H        -4.32754832     1.30256688    -0.20999353    -0.00167361    -0.00049678    -0.00022624
H        -1.81587549    -0.41112407     0.44368261    -0.00027223     0.00015659     0.00114320
C        -1.86206579     1.68447077    -0.06725837    -0.00050222    -0.00009761    -0.00003437
H        -2.33624727     2.46192700    -0.56945753    -0.00109154     0.00106512     0.00076065
N        -0.57213081     1.90188955     0.25832250     0.00034743     0.00009306     0.00011479
H        -0.06555525     2.78037106     0.01328489     0.00119525     0.00027278    -0.00107571
H        -0.09594374     1.04701827     0.66226013     0.00216642     0.00018667    -0.00035508
    14
  Step:    13            Position(A)                                  Velocity(au)
C        -6.10592637    -0.64772871    -0.08990580    -0.00033047    -0.00011157    -0.00013405
C        -4.66567915    -0.79626632     0.12401260     0.00015479     0.00014638     0.00002109
H        -6.40917940     0.38482857    -0.35259558    -0.00074449    -0.00048017    -0.00023566
H        -6.77732489    -1.45539592    -0.30174869    -0.00086980     0.00093312     0.00029964
H        -4.28836001    -1.75683310     0.31870789     0.00082819     0.00026569     0.00014114
C        -3.92949476     0.34853295     0.01736276    -0.00048290    -0.00003124    -0.00007108
C        -2.39433767     0.40504314     0.13356915     0.00077489    -0.00015357     0.00003477
H        -4.34695162     1.29804633    -0.21262132    -0.00185906    -0.00033393    -0.00025159
H        -1.81808530    -0.41055485     0.45683720    -0.00011912    -0.00006453     0.00126593
C        -1.86736165     1.68317444    -0.06756904    -0.00046170    -0.00013483    -0.00002290
H        -2.34977817     2.47526634    -0.56177258    -0.00135596     0.00133015     0.00066873
N        -0.56823453     1.90284309     0.25960251     0.00036407     0.00008273     0.00011783
H        -0.05302745     2.78201766     0.00197616     0.00107409     0.00000466    -0.00098365
H        -0.07247345     1.05123090     0.65767546     0.00210240     0.00058966    -0.00049046
    14
  Step:    14            Position(A)                                  Velocity(au)
C        -6.10935703    -0.64884280    -0.09143500    -0.00029465    -0.00009164    -0.00014470
C        -4.66427398    -0.79449879     0.12420540     0.00009991     0.00017308     0.00001430
H        -6.41766267     0.37882157    -0.35473086    -0.00080280    -0.00060640    -0.00015645
H        -6.78723669    -1.44581890    -0.29818595    -0.00095018     0.00079709     0.00034874
H        -4.27826921    -1.75537812     0.32060507     0.00100610     0.00001499     0.00020231
C        -3.93456404     0.34801467     0.01659076    -0.00044103    -0.00006023    -0.00007044
C        -2.38612487     0.40361918     0.13388627     0.00072142    -0.00010775     0.00002310
H        -4.36821878     1.29526156    -0.21549757    -0.00200874    -0.00019008    -0.00026915
H        -1.81848144    -0.41253579     0.47137727     0.00004786    -0.00029404     0.00139024
C        -1.87216635     1.68152115    -0.06775931    -0.00041362    -0.00016175    -0.00001298
H        -2.36591159     2.49102656    -0.55482767    -0.00155935     0.00149650     0.00063050
N        -0.56416602     1.90369934     0.26090023     0.00037829     0.00007537     0.00011790
H        -0.04205750     2.78047302    -0.00823423     0.00091749    -0.00029696    -0.00087839
H        -0.04994979     1.05991810     0.65153031     0.00200082     0.00099045    -0.00063353
    14
  Step:    15            Position(A)                                  Velocity(au)
C        -6.11237250    -0.64973352    -0.09307134    -0.00025528    -0.00007173    -0.00015370
C        -4.66349335    -0.79247984     0.12432538     0.00004154     0.00019103     0.00000808
H        -6.42674218     0.37156242    -0.35601822    -0.00085430    -0.00070466    -0.00008191
H        -6.79811197    -1.43795802    -0.29411934    -0.00104005     0.00062668     0.00039361
H        -4.26634975    -1.75650510     0.32313371     0.00115555    -0.00019231     0.00025350
C        -3.93914323     0.34721524     0.01582165    -0.00039427    -0.00008178    -0.00007079
C        -2.37855514     0.40268598     0.13407443     0.00065888    -0.00006541     0.00001189
H        -4.39089662     1.29388802    -0.21850955    -0.00211241    -0.00008363    -0.00027455
H        -1.81703818    -0.41698747     0.48725126     0.00020612    -0.00050078     0.00150283
C        -1.87641036     1.67963583    -0.06785300    -0.00036003    -0.00017684    -0.00000542
H        -2.38389193     2.50800515    -0.54797928    -0.00169042     0.00154979     0.00065091
N        -0.55995865     1.90449187     0.26218181     0.00038875     0.00007112     0.00011482
H        -0.03295564     2.77552101    -0.01724020     0.00073997    -0.00060445    -0.00076746
H        -0.02870176     1.07289888     0.64381586     0.00187730     0.00136081    -0.00077090
    14
  Step:    16            Position(A)                                  Velocity(au)
C        -6.11494187    -0.65041196    -0.09479756    -0.00021393    -0.00005384    -0.00016123
C        -4.66336520    -0.79031967     0.12438225    -0.00001854     0.00019814     0.00000296
H        -6.43635205     0.36340581    -0.35652274    -0.00090049    -0.00076701    -0.00001440
H        -6.80998973    -1.43210910    -0.28957497    -0.00112632     0.00043773     0.00043809
H        -4.25298934    -1.75958535     0.32615088     0.00126441    -0.00033319     0.00028954
C        -3.94318953     0.34622564     0.01504202    -0.00034443    -0.00009458    -0.00007251
C        -2.37171054     0.40218830     0.13414632     0.00059018    -0.00002936     0.00000247
H        -4.41443172     1.29343190    -0.22150396    -0.00216258    -0.00002625    -0.00026502
H        -1.81397209    -0.42349128     0.50425454     0.00033598    -0.00065692     0.00159037
C        -1.88004278     1.67765236    -0.06787791    -0.00030232    -0.00017991    -0.00000025
H        -2.40289284     2.52493116    -0.54058772    -0.00174675     0.00149051     0.00072576
N        -0.55566126     1.90525524     0.26341221     0.00039398     0.00007003     0.00010855
H        -0.02586930     2.76724941    -0.02502388     0.00055656    -0.00089019    -0.00065937
H        -0.00888027     1.08968835     0.63466549     0.00174870     0.00167361    -0.00089002
    14
  Step:    17            Position(A)                                  Velocity(au)
C        -6.11705265    -0.65091145    -0.09659852    -0.00017230    -0.00003990    -0.00016748
C        -4.66389897    -0.78814523     0.12439021    -0.00007877     0.00019351    -0.00000077
H        -6.44644202     0.35478262    -0.35633321    -0.00094262    -0.00078789     0.00004424
H        -6.82275240    -1.42838193    -0.28453525    -0.00119457     0.00024715     0.00048594
H        -4.23868833    -1.76379436     0.32946802     0.00132470    -0.00039558     0.00030745
C        -3.94667840     0.34514621     0.01423541    -0.00029305    -0.00009823    -0.00007576
C        -2.36564390     0.40204376     0.13412842     0.00051767    -0.00000157    -0.00000406
H        -4.43820714     1.29331385    -0.22430730    -0.00215528    -0.00002203    -0.00023963
H        -1.80968805    -0.43135882     0.52204373     0.00042373    -0.00074279     0.00164191
C        -1.88302425     1.67569998    -0.06785842    -0.00024134    -0.00017180     0.00000303
H        -2.42210546     2.54061296    -0.53210193    -0.00173251     0.00133017     0.00084496
N        -0.55133969     1.90602387     0.26455648     0.00039236     0.00007201     0.00009915
H        -0.02077981     2.75604629    -0.03166525     0.00038246    -0.00112719    -0.00056340
H         0.00955443     1.10951241     0.62434498     0.00163266     0.00190379    -0.00097953
    14
  Step:    18            Position(A)                                  Velocity(au)
C        -6.11871126    -0.65128486    -0.09846142    -0.00013204    -0.00003142    -0.00017265
C        -4.66508838    -0.78608632     0.12436547    -0.00013784     0.00017744    -0.00000303
H        -6.45697362     0.34616919    -0.35555492    -0.00098143    -0.00076496     0.00009294
H        -6.83612314    -1.42670222    -0.27894400    -0.00123124     0.00007048     0.00054013
H        -4.22400890    -1.76823935     0.33287694     0.00133299    -0.00037826     0.00030649
C        -3.94960051     0.34407671     0.01338461    -0.00024136    -0.00009317    -0.00008054
C        -2.36038553     0.40215390     0.13405742     0.00044309     0.00001704    -0.00000699
H        -4.46158264     1.29295005    -0.22674624    -0.00209012    -0.00006841    -0.00019917
H        -1.80470214    -0.43974132     0.54017456     0.00046288    -0.00074925     0.00165057
C        -1.88532250     1.67389391    -0.06781157    -0.00017764    -0.00015405     0.00000515
H        -2.44079482     2.55403110    -0.52210259    -0.00165572     0.00108642     0.00099601
N        -0.54707774     1.90683050     0.26558128     0.00038232     0.00007677     0.00008687
H        -0.01750232     2.74259002    -0.03734923     0.00023243    -0.00129002    -0.00048920
H         0.02683725     1.13133737     0.61323648     0.00154626     0.00203031    -0.00103010
    14
  Step:    19            Position(A)                                  Velocity(au)
C        -6.11994133    -0.65159889    -0.10037565    -0.00009458    -0.00002932    -0.00017694
C        -4.66691456    -0.78426345     0.12432401    -0.00019473     0.00015119    -0.00000391
H        -6.46791277     0.33804763    -0.35429990    -0.00101687    -0.00069975     0.00013161
H        -6.84968805    -1.42684003    -0.27271880    -0.00122574    -0.00008020     0.00060231
H        -4.20952667    -1.77206943     0.33617316     0.00128980    -0.00028860     0.00028779
C        -3.95195864     0.34310788     0.01247354    -0.00019036    -0.00008054    -0.00008666
C        -2.35595049     0.40241646     0.13397552     0.00036757     0.00002660    -0.00000602
H        -4.48393255     1.29181716    -0.22866450    -0.00196990    -0.00015774    -0.00014577
H        -1.79956156    -0.44775002     0.55815316     0.00045342    -0.00067710     0.00161402
C        -1.88691053     1.67232992    -0.06774575    -0.00011169    -0.00012857     0.00000689
H        -2.45832740     2.56438040    -0.51031224    -0.00152614     0.00077941     0.00116625
N        -0.54297564     1.90770346     0.26645701     0.00036260     0.00008378     0.00007218
H        -0.01569490     2.72782463    -0.04236748     0.00011969    -0.00135677    -0.00044613
H         0.04338179     1.15392923     0.60180967     0.00150362     0.00203934    -0.00103579
    14
  Step:    20            Position(A)                                  Velocity(au)
C        -6.12078047    -0.65192626    -0.10233241    -0.00006102    -0.00003375    -0.00018049
C        -4.66934852    -0.78277878     0.12427985    -0.00024860     0.00011671    -0.00000366
H        -6.47921950     0.33086090    -0.35267576    -0.00104779    -0.00059794     0.00016116
H        -6.86293851    -1.42845666    -0.26576732    -0.00117180    -0.00019740     0.00067264
H        -4.19579200    -1.77455312     0.33917298     0.00119874    -0.00013967     0.00025376
C        -3.95376496     0.34231480     0.01148882    -0.00014082    -0.00006194    -0.00009384
C        -2.35234421     0.40273574     0.13392582     0.00029183     0.00002807    -0.00000124
H        -4.50467802     1.28949914    -0.22993531    -0.00179993    -0.00027911    -0.00008244
H        -1.79478280    -0.45455409     0.57548430     0.00040001    -0.00053478     0.00153394
C        -1.88776598     1.67108128    -0.06766090    -0.00004392    -0.00009748     0.00000898
H        -2.47418213     2.57108229    -0.49658859    -0.00135410     0.00042960     0.00134402
N        -0.53914511     1.90866329     0.26716027     0.00033260     0.00009212     0.00005574