     6
  Step:     0            Position(A)                                  Velocity(au)
C        -0.03940626     0.01135771     0.00440998     0.00005568     0.00008772     0.00006556
N        -0.04611078    -0.05880531     1.30822748     0.00009302    -0.00003378     0.00003595
H         0.93634327     0.01203673    -0.49189683     0.00029546    -0.00048619    -0.00044942
H         0.88713517    -0.06645894     1.86585188    -0.00095274     0.00019632    -0.00108057
H        -0.91878642    -0.02333826     1.85846515    -0.00088801    -0.00005881     0.00045489
H        -1.00729057     0.08982283    -0.57251799    -0.00041091    -0.00022711    -0.00020566
     6
  Step:     1            Position(A)                                  Velocity(au)
C        -0.03911823     0.01184022     0.00444168     0.00004962     0.00008883    -0.00005416
N        -0.04556813    -0.05901931     1.30871495     0.00010379    -0.00004443     0.00014204
H         0.93801942     0.00947687    -0.49442945     0.00031371    -0.00045027    -0.00047418
H         0.88145949    -0.06529152     1.85968461    -0.00111046     0.00023027    -0.00116612
H        -0.92370812    -0.02355490     1.86099423    -0.00090030    -0.00002110     0.00046318
H        -1.00934288     0.08865645    -0.57349880    -0.00033654    -0.00020000    -0.00015138
     6
  Step:     2            Position(A)                                  Velocity(au)
C        -0.03886359     0.01232930     0.00381766     0.00004354     0.00009015    -0.00017373
N        -0.04497559    -0.05929121     1.30978105     0.00011114    -0.00005489     0.00024704
H         0.93977452     0.00711187    -0.49708319     0.00032424    -0.00041529    -0.00049402
H         0.87498944    -0.06394034     1.85309743    -0.00124086     0.00026325    -0.00123265
H        -0.92863342    -0.02356902     1.86353114    -0.00089002     0.00001490     0.00045843
H        -1.01097147     0.08763537    -0.57417366    -0.00025671    -0.00017422    -0.00009452
     6
  Step:     3            Position(A)                                  Velocity(au)
C        -0.03864200     0.01282618     0.00254161     0.00003758     0.00009167    -0.00029200
N        -0.04435265    -0.05961967     1.31141679     0.00011473    -0.00006502     0.00034972
H         0.94156556     0.00493502    -0.49983239     0.00032678    -0.00038162    -0.00050925
H         0.86788857    -0.06241245     1.84620355    -0.00133808     0.00029453    -0.00127623
H        -0.93344200    -0.02339191     1.86600789    -0.00085814     0.00004851     0.00044177
H        -1.01215042     0.08675103    -0.57453252    -0.00017280    -0.00015015    -0.00003652
     6
  Step:     4            Position(A)                                  Velocity(au)
C        -0.03845255     0.01333200     0.00062368     0.00003183     0.00009334    -0.00040758
N        -0.04372061    -0.06000242     1.31360631     0.00011425    -0.00007463     0.00044862
H         0.94334889     0.00293762    -0.50265351     0.00032137    -0.00034957    -0.00052024
H         0.86035326    -0.06071867     1.83913776    -0.00139598     0.00032344    -0.00129293
H        -0.93801989    -0.02303843     1.86836330    -0.00080598     0.00007910     0.00041452
H        -1.01286161     0.08599300    -0.57457310    -0.00008645    -0.00012806     0.00002114
     6
  Step:     5            Position(A)                                  Velocity(au)
C        -0.03829373     0.01384758    -0.00191837     0.00002639     0.00009508    -0.00051883
N        -0.04310240    -0.06043633     1.31632594     0.00010944    -0.00008356     0.00054215
H         0.94508223     0.00110976    -0.50552519     0.00030846    -0.00031927    -0.00052733
H         0.85261276    -0.05887309     1.83205542    -0.00140875     0.00034944    -0.00127920
H        -0.94226161    -0.02252632     1.87054382    -0.00073534     0.00010624     0.00037815
H        -1.01309642     0.08534966    -0.57430113     0.00000035    -0.00010810     0.00007693
     6
  Step:     6            Position(A)                                  Velocity(au)
C        -0.03816356     0.01437317    -0.00505794     0.00002137     0.00009675    -0.00062396
N        -0.04252221    -0.06091747     1.31954327     0.00010011    -0.00009167     0.00062856
H         0.94672676    -0.00055859    -0.50842817     0.00028884    -0.00029065    -0.00053088
H         0.84492634    -0.05689203     1.82512957    -0.00137140     0.00037219    -0.00123224
H        -0.94607245    -0.02187506     1.87250432    -0.00064851     0.00012969     0.00033433
H        -1.01285782     0.08480921    -0.57373066     0.00008522    -0.00009022     0.00012923
     6
  Step:     7            Position(A)                                  Velocity(au)
C        -0.03805947     0.01490824    -0.00875868     0.00001687     0.00009820    -0.00072106
N        -0.04200494    -0.06144124     1.32321670     0.00008625    -0.00009883     0.00070612
H         0.94824874    -0.00207659    -0.51134507     0.00026358    -0.00026353    -0.00053119
H         0.83757845    -0.05479287     1.81854669    -0.00128047     0.00039158    -0.00115042
H        -0.94937102    -0.02110459     1.87420901    -0.00054829     0.00014945     0.00028493
H        -1.01216223     0.08436065    -0.57288439     0.00016550    -0.00007420     0.00017641
     6
  Step:     8            Position(A)                                  Velocity(au)
C        -0.03797836     0.01545130    -0.01297418     0.00001299     0.00009926    -0.00080824
N        -0.04157527    -0.06200252     1.32729549     0.00006805    -0.00010497     0.00077318
H         0.94962057    -0.00345178    -0.51425998     0.00023387    -0.00023760    -0.00052850
H         0.83086841    -0.05259295     1.81249945    -0.00113491     0.00040769    -0.00103371
H        -0.95209192    -0.02023427     1.87563252    -0.00043799     0.00016569     0.00023202
H        -1.01104086     0.08399457    -0.57179393     0.00023840    -0.00005975     0.00021682
     6
  Step:     9            Position(A)                                  Velocity(au)
C        -0.03791655     0.01599991    -0.01764825     0.00000985     0.00009975    -0.00088383
N        -0.04125643    -0.06259576     1.33172069     0.00004597    -0.00011001     0.00082842
H         0.95082105    -0.00468989    -0.51715789     0.00020094    -0.00021259    -0.00052294
H         0.82509598    -0.05030886     1.80717723    -0.00093690     0.00042068    -0.00088415
H        -0.95418828    -0.01928225     1.87676095    -0.00032137     0.00017866     0.00017783
H        -1.00954019     0.08370350    -0.57049969     0.00030114    -0.00004651     0.00024891
     6
  Step:    10            Position(A)                                  Velocity(au)
C        -0.03786983     0.01655078    -0.02271604     0.00000752     0.00009955    -0.00094643
N        -0.04106859    -0.06321515     1.33642671     0.00002074    -0.00011394     0.00087091
H         0.95183543    -0.00579499    -0.52002404     0.00016608    -0.00018824    -0.00051473
H         0.82054151    -0.04795605     1.80275402    -0.00069253     0.00043079    -0.00070608
H        -0.95563419    -0.01826497     1.87759267    -0.00020258     0.00018872     0.00012470
H        -1.00772158     0.08348189    -0.56905034     0.00035118    -0.00003417     0.00027133
     6
  Step:    11            Position(A)                                  Velocity(au)
C        -0.03783348     0.01709989    -0.02810570     0.00000608     0.00009857    -0.00099510
N        -0.04102727    -0.06385468     1.34134372    -0.00000661    -0.00011673     0.00090024
H         0.95265616    -0.00676982    -0.52284534     0.00013067    -0.00016440    -0.00050430
H         0.81744398    -0.04554892     1.79937553    -0.00041174     0.00043822    -0.00050605
H        -0.95642664    -0.01719700     1.87813879    -0.00008596     0.00019625     0.00007496
H        -1.00565993     0.08332590    -0.56750166     0.00038636    -0.00002247     0.00028303
     6
  Step:    12            Position(A)                                  Velocity(au)
C        -0.03780248     0.01764278    -0.03374061     0.00000557     0.00009676    -0.00102944
N        -0.04114180    -0.06450833     1.34640034    -0.00003483    -0.00011842     0.00091659
H         0.95328310    -0.00761634    -0.52561107     0.00009606    -0.00014099    -0.00049220
H         0.81597994    -0.04310107     1.79714750    -0.00010776     0.00044315    -0.00029240
H        -0.95658657    -0.01609075     1.87842310     0.00002411     0.00020169     0.00003082
H        -1.00344120     0.08323300    -0.56591471     0.00040514    -0.00001119     0.00028339
     6
  Step:    13            Position(A)                                  Velocity(au)
C        -0.03777160     0.01817482    -0.03954251     0.00001076     0.00016902    -0.00188474
N        -0.04141421    -0.06517024     1.35152680    -0.00011232    -0.00021379     0.00165323
H         0.95372332    -0.00833620    -0.52831350     0.00011401    -0.00021192    -0.00086018
H         0.81624683    -0.04062562     1.79612702     0.00036640     0.00080026    -0.00013362
H        -0.95615880    -0.01495624     1.87848125     0.00022182     0.00036905    -0.00001029
H        -1.00115890     0.08320157    -0.56435333     0.00073033    -0.00000041     0.00048888
     6
  Step:    14            Position(A)                                  Velocity(au)
C        -0.03771581     0.01909499    -0.04973436     0.00000545     0.00008655    -0.00095117
N        -0.04210813    -0.06633824     1.36047948    -0.00007288    -0.00011041     0.00083687
H         0.95455422    -0.00951272    -0.53336799     0.00009985    -0.00011342    -0.00051235
H         0.81917343    -0.03620631     1.79603525     0.00036541     0.00042330     0.00005231
H        -0.95471177    -0.01295993     1.87835990     0.00015406     0.00018704    -0.00001375
H        -0.99738586     0.08322927    -0.56204850     0.00032849     0.00000609     0.00017847
     6
  Step:    15            Position(A)                                  Velocity(au)
C        -0.03767796     0.01956842    -0.05505534     0.00000836     0.00008160    -0.00093656
N        -0.04258539    -0.06695425     1.36512484    -0.00009521    -0.00010836     0.00081176
H         0.95502847    -0.01008264    -0.53619102     0.00007015    -0.00008962    -0.00049150
H         0.82207053    -0.03383822     1.79692603     0.00065105     0.00041793     0.00025614
H        -0.95364848    -0.01190359     1.87823428     0.00021600     0.00018855    -0.00002633
H        -0.99563948     0.08329389    -0.56113893     0.00028627     0.00001668     0.00014133
     6
  Step:    16            Position(A)                                  Velocity(au)
C        -0.03762168     0.02001389    -0.06028099     0.00001195     0.00007676    -0.00091923
N        -0.04318032    -0.06755851     1.36962072    -0.00011448    -0.00010642     0.00078557
H         0.95534413    -0.01052190    -0.53890275     0.00004380    -0.00006704    -0.00047370
H         0.82650485    -0.03150006     1.79891964     0.00090801     0.00041312     0.00044236
H        -0.95227942    -0.01083667     1.87806335     0.00026266     0.00019127    -0.00002980
H        -0.99416221     0.08341715    -0.56045699     0.00023406     0.00002695     0.00009828
     6
  Step:    17            Position(A)                                  Velocity(au)
C        -0.03754356     0.02043202    -0.06539765     0.00001609     0.00007215    -0.00090127
N        -0.04387346    -0.06815162     1.37396325    -0.00013029    -0.00010477     0.00076025
H         0.95552125    -0.01083692    -0.54152063     0.00002112    -0.00004553    -0.00045977
H         0.83228657    -0.02919018     1.80190305     0.00113014     0.00040902     0.00060835
H        -0.95069328    -0.00975162     1.87789902     0.00029394     0.00019579    -0.00002409
H        -0.99300608     0.08359705    -0.56003313     0.00017357     0.00003692     0.00005030
     6
  Step:    18            Position(A)                                  Velocity(au)
C        -0.03744098     0.02082417    -0.07040307     0.00002066     0.00006781    -0.00088381
N        -0.04464359    -0.06873513     1.37815910    -0.00014234    -0.00010346     0.00073688
H         0.95558137    -0.01103330    -0.54406645     0.00000227    -0.00002484    -0.00045005
H         0.83919745    -0.02690633     1.80575197     0.00131328     0.00040539     0.00075275
H        -0.94897816    -0.00863773     1.87779280     0.00030991     0.00020253    -0.00000925
H        -0.99221287     0.08383181    -0.55989208     0.00010623     0.00004663    -0.00000186
     6
  Step:    19            Position(A)                                  Velocity(au)
C        -0.03731200     0.02119192    -0.07530120     0.00002553     0.00006374    -0.00086716
N        -0.04546842    -0.06931097     1.38222039    -0.00015040    -0.00010249     0.00071570
H         0.95554667    -0.01111527    -0.54656372    -0.00001268    -0.00000466    -0.00044446
H         0.84700255    -0.02464755     1.81033807     0.00145441     0.00040168     0.00087484
H        -0.94722053    -0.00748214     1.87779532     0.00031066     0.00021172     0.00001458
H        -0.99181575     0.08411961    -0.56005400     0.00003336     0.00005604    -0.00005751
     6
  Step:    20            Position(A)                                  Velocity(au)
C        -0.03715556     0.02153678    -0.08009758     0.00003052     0.00005988    -0.00085107
N        -0.04632499    -0.06988097     1.38616041    -0.00015431    -0.00010178     0.00069649
H         0.95543963    -0.01108543    -0.54903540    -0.00002364     0.00001527    -0.00044268
H         0.85545715    -0.02241570     1.81553233     0.00155146     0.00039719     0.00097417
H        -0.94550512    -0.00627080     1.87795584     0.00029634     0.00022345     0.00004715
H        -0.99183992     0.08445834    -0.56053501    -0.00004361     0.00006504    -0.00011588
     6
  Step:    21            Position(A)                                  Velocity(au)
C        -0.03697146     0.02185996    -0.08479632     0.00003546     0.00005617    -0.00083506
N        -0.04718998    -0.07044652     1.38999088    -0.00015399    -0.00010123     0.00067876
H         0.95528293    -0.01094491    -0.55150258    -0.00003053     0.00003518    -0.00044427
H         0.86431167    -0.02021626     1.82120657     0.00160348     0.00039121     0.00105066
H        -0.94391433    -0.00498923     1.87832139     0.00026743     0.00023770     0.00008795
H        -0.99230223     0.08484520    -0.56134679    -0.00012301     0.00007344    -0.00017605
     6
  Step:    22            Position(A)                                  Velocity(au)
C        -0.03676058     0.02216237    -0.08939876     0.00004015     0.00005256    -0.00081862
N        -0.04804023    -0.07100853     1.39372070    -0.00014953    -0.00010075     0.00066202
H         0.95509952    -0.01069362    -0.55398378    -0.00003330     0.00005522    -0.00044874
H         0.87331728    -0.01805831     1.82723490     0.00161086     0.00038313     0.00110464
H        -0.94252643    -0.00362316     1.87893545     0.00022483     0.00025442     0.00013617
H        -0.99321000     0.08527639    -0.56249591    -0.00020294     0.00008105    -0.00023697
     6
  Step:    23            Position(A)                                  Velocity(au)
C        -0.03652484     0.02244467    -0.09390351     0.00004438     0.00004902    -0.00080139
N        -0.04885346    -0.07156737     1.39735587    -0.00014112    -0.00010026     0.00064584
H         0.95491242    -0.01033058    -0.55649487    -0.00003194     0.00007553    -0.00045568
H         0.88223253    -0.01595398     1.83349569     0.00157540     0.00037250     0.00113698
H        -0.94141308    -0.00215882     1.87983630     0.00017005     0.00027347     0.00019070
H        -0.99455989     0.08574684    -0.56398310    -0.00028132     0.00008759    -0.00029749
     6
  Step:    24            Position(A)                                  Velocity(au)
C        -0.03626723     0.02270732    -0.09830706     0.00004798     0.00004555    -0.00078313
N        -0.04960895    -0.07212300     1.40089997    -0.00012914    -0.00009970     0.00062993
H         0.95474446    -0.00985407    -0.55904918    -0.00002652     0.00009619    -0.00046468
H         0.89082959    -0.01391760     1.83987374     0.00150019     0.00035904     0.00114908
H        -0.94063616    -0.00058322     1.88105528     0.00010516     0.00029471     0.00025012
H        -0.99633721     0.08625010    -0.56580282    -0.00035606     0.00009284    -0.00035644
     6
  Step:    25            Position(A)                                  Velocity(au)
C        -0.03599170     0.02295072    -0.10260462     0.00005079     0.00004212    -0.00076379
N        -0.05028831    -0.07267511     1.40435484    -0.00011406    -0.00009904     0.00061411
H         0.95461779    -0.00926187    -0.56165775    -0.00001720     0.00011730    -0.00047538
H         0.89890068    -0.01196482     1.84626272     0.00138939     0.00034263     0.00114275
H        -0.94024470     0.00111565     1.88261527     0.00003275     0.00031797     0.00031278
H        -0.99851591     0.08677833    -0.56794337    -0.00042512     0.00009653    -0.00041273
     6
  Step:    26            Position(A)                                  Velocity(au)
C        -0.03570307     0.02317523    -0.10679097     0.00005267     0.00003876    -0.00074339
N        -0.05087595    -0.07322315     1.40772134    -0.00009645    -0.00009827     0.00059830
H         0.95455343    -0.00855119    -0.56432953    -0.00000425     0.00013894    -0.00048745
H         0.90626254    -0.01011178     1.85256706     0.00124786     0.00032327     0.00112014
H        -0.94027234     0.00294875     1.88452953    -0.00004419     0.00034306     0.00037687
H        -1.00105928     0.08732232    -0.57038731    -0.00048669     0.00009843    -0.00046540
     6
  Step:    27            Position(A)                                  Velocity(au)
C        -0.03540677     0.02338123    -0.11086105     0.00005352     0.00003547    -0.00072207
N        -0.05135955    -0.07376651     1.41099979    -0.00007692    -0.00009736     0.00058248
H         0.95457064    -0.00771875    -0.56707156     0.00001199     0.00016122    -0.00050059
H         0.91275990    -0.00837450     1.85870342     0.00108095     0.00030104     0.00108362
H        -0.94073546     0.00492585     1.88680097    -0.00012245     0.00036978     0.00044052
H        -1.00392132     0.08787159    -0.57311225    -0.00053927     0.00009834    -0.00051365
     6
  Step:    28            Position(A)                                  Velocity(au)
C        -0.03510870     0.02356916    -0.11481037     0.00005328     0.00003226    -0.00069999
N        -0.05173027    -0.07430449     1.41419042    -0.00005612    -0.00009634     0.00056669
H         0.95468656    -0.00676062    -0.56988913     0.00003107     0.00018428    -0.00051451
H         0.91826770    -0.00676840     1.86460184     0.00089426     0.00027611     0.00103570
H        -0.94163226     0.00705555     1.88942194    -0.00019875     0.00039793     0.00050184
H        -1.00704849     0.08841449    -0.57609191    -0.00058170     0.00009605    -0.00055690
     6
  Step:    29            Position(A)                                  Velocity(au)
C        -0.03481498     0.02373951    -0.11863527     0.00005195     0.00002914    -0.00067731
N        -0.05198282    -0.07483644     1.41729360    -0.00003466    -0.00009519     0.00055098
H         0.95491570    -0.00567214    -0.57278583     0.00005251     0.00020825    -0.00052894
H         0.92269177    -0.00530800     1.87020612     0.00069331     0.00024864     0.00097886
H        -0.94294286     0.00934531     1.89237454    -0.00026994     0.00042732     0.00055908
H        -1.01038181     0.08893830    -0.57929727    -0.00061320     0.00009137    -0.00059478
     6
  Step:    30            Position(A)                                  Velocity(au)
C        -0.03453176     0.02389281    -0.12233292     0.00004951     0.00002612    -0.00065420
N        -0.05211526    -0.07536170     1.42030991    -0.00001315    -0.00009393     0.00053540
H         0.95526972    -0.00444773    -0.57576373     0.00007577     0.00023332    -0.00054360
H         0.92596791    -0.00400693     1.87547349     0.00048335     0.00021878     0.00091549
H        -0.94463035     0.01180156     1.89563133    -0.00033311     0.00045781     0.00061063
H        -1.01385898     0.08942927    -0.58269779    -0.00063337     0.00008412    -0.00062712
     6
  Step:    31            Position(A)                                  Velocity(au)
C        -0.03426504     0.02402963    -0.12590126     0.00004603     0.00002320    -0.00063077
N        -0.05212883    -0.07587966     1.42324012     0.00000790    -0.00009256     0.00051996
H         0.95575727    -0.00308075    -0.57882342     0.00010033     0.00025972    -0.00055827
H         0.92806018    -0.00287805     1.88037409     0.00026928     0.00018666     0.00084783
H        -0.94664265     0.01443000     1.89915661    -0.00038577     0.00048929     0.00065515
H        -1.01741638     0.08987257    -0.58626251    -0.00064215     0.00007409    -0.00065398
     6
  Step:    32            Position(A)                                  Velocity(au)
C        -0.03402052     0.02415054    -0.12933858     0.00004156     0.00002039    -0.00060702
N        -0.05202751    -0.07638973     1.42608488     0.00002801    -0.00009109     0.00050460
H         0.95638403    -0.00156314    -0.58196425     0.00012567     0.00028773    -0.00057275
H         0.92895869    -0.00193374     1.88489001     0.00005562     0.00015231     0.00077799
H        -0.94891500     0.01723595     1.90290781    -0.00042589     0.00052176     0.00069153
H        -1.02099108     0.09025217    -0.58996124    -0.00063984     0.00006104    -0.00067557
     6
  Step:    33            Position(A)                                  Velocity(au)
C        -0.03380347     0.02425609    -0.13264301     0.00003619     0.00001767    -0.00058289
N        -0.05181777    -0.07689131     1.42884436     0.00004677    -0.00008951     0.00048920
H         0.95715297     0.00011485    -0.58518458     0.00015135     0.00031770    -0.00058691
H         0.92867788    -0.00118644     1.88901466    -0.00015342     0.00011564     0.00070793
H        -0.95137272     0.02022490     1.90683700    -0.00045195     0.00055533     0.00071897
H        -1.02452268     0.09055052    -0.59376566    -0.00062706     0.00004465    -0.00069237
     6
  Step:    34            Position(A)                                  Velocity(au)
C        -0.03361866     0.02434681    -0.13581205     0.00003000     0.00001505    -0.00055821
N        -0.05150814    -0.07738383     1.43151787     0.00006383    -0.00008783     0.00047357
H         0.95806490     0.00196518    -0.58848235     0.00017709     0.00035010    -0.00060075
H         0.92725481    -0.00064941     1.89275219    -0.00035391     0.00007642     0.00063955
H        -0.95393430     0.02340333     1.91089262    -0.00046301     0.00059027     0.00073697
H        -1.02795511     0.09074802    -0.59765058    -0.00060476     0.00002445    -0.00070507
     6
  Step:    35            Position(A)                                  Velocity(au)
C        -0.03347029     0.02442318    -0.13884194     0.00002311     0.00001250    -0.00053266
N        -0.05110890    -0.07786666     1.43410341     0.00007893    -0.00008603     0.00045742
H         0.95911959     0.00400279    -0.59185595     0.00020287     0.00038558    -0.00061452
H         0.92474766    -0.00033783     1.89611698    -0.00054217     0.00003411     0.00057466
H        -0.95651447     0.02677987     1.91502118    -0.00045865     0.00062711     0.00074533
H        -1.03123858     0.09082205    -0.60159559    -0.00057427    -0.00000023    -0.00071476
     6
  Step:    36            Position(A)                                  Velocity(au)
C        -0.03336202     0.02448563    -0.14172675     0.00001561     0.00001003    -0.00050557
N        -0.05063174    -0.07833912     1.43659712     0.00009182    -0.00008409     0.00044021
H         0.96031765     0.00624670    -0.59530609     0.00022920     0.00042499    -0.00062898
H         0.92123450    -0.00027064     1.89913333    -0.00071469    -0.00001220     0.00051503
H        -0.95902720     0.03036691     1.91916891    -0.00043899     0.00066675     0.00074414
H        -1.03433194     0.09074548    -0.60558739    -0.00053751    -0.00003043    -0.00072309
     6
  Step:    37            Position(A)                                  Velocity(au)
C        -0.03329696     0.02453453    -0.14445529     0.00000759     0.00000760    -0.00047540
N        -0.05008943    -0.07880035     1.43899106     0.00010234    -0.00008195     0.00042080
H         0.96166440     0.00872146    -0.59883958     0.00025762     0.00046943    -0.00064604
H         0.91681235    -0.00047326     1.90183541    -0.00086808    -0.00006397     0.00046249
H        -0.96138858     0.03418288     1.92328344    -0.00040466     0.00071048     0.00073385
H        -1.03720662     0.09048422    -0.60962411    -0.00049751    -0.00006767    -0.00073295
     6
  Step:    38            Position(A)                                  Velocity(au)
C        -0.03327771     0.02457002    -0.14700454    -0.00000078     0.00000515    -0.00043867
N        -0.04949562    -0.07924893     1.44126873     0.00011032    -0.00007944     0.00039671
H         0.96317766     0.01145818    -0.60247826     0.00029178     0.00051951    -0.00067031
H         0.91159726    -0.00098079     1.90426776    -0.00099875    -0.00012269     0.00041898
H        -0.96351962     0.03825450     1.92731594    -0.00035685     0.00075935     0.00071543
H        -1.03985520     0.08999423    -0.61372440    -0.00045989    -0.00011354    -0.00074976
     6
  Step:    39            Position(A)                                  Velocity(au)
C        -0.03330567     0.02459168    -0.14932459    -0.00000906     0.00000250    -0.00038878
N        -0.04886487    -0.07968218     1.44339465     0.00011552    -0.00007626     0.00036335
H         0.96490325     0.01448816    -0.60628018     0.00033777     0.00057159    -0.00071112
H         0.90572600    -0.00183516     1.90648615    -0.00110289    -0.00018586     0.00038629
H        -0.96534969     0.04261186     1.93122490    -0.00029755     0.00081022     0.00069089
H        -1.04231152     0.08922391    -0.61794666    -0.00043478    -0.00016600    -0.00078250
     6
  Step:    40            Position(A)                                  Velocity(au)
C        -0.03337824     0.02459780    -0.15131937    -0.00001622    -0.00000053    -0.00032088
N        -0.04821350    -0.08009530     1.44530125     0.00011761    -0.00007222     0.00031726
H         0.96692632     0.01780186    -0.61037050     0.00039715     0.00061294    -0.00077634
H         0.89935707    -0.00304349     1.90855494    -0.00117788    -0.00023999     0.00036477
H        -0.96682193     0.04724655     1.93498370    -0.00022937     0.00084991     0.00066290
H        -1.04468058     0.08815196    -0.62240880    -0.00043093    -0.00021293    -0.00083635
     6
  Step:    41            Position(A)                                  Velocity(au)
C        -0.03348567     0.02458576    -0.15288507    -0.00002150    -0.00000395    -0.00023981
N        -0.04755991    -0.08048349     1.44691487     0.00011643    -0.00006760     0.00026160
H         0.96931003     0.02128925    -0.61489439     0.00045996     0.00063150    -0.00086011
H         0.89265638    -0.00449800     1.91053362    -0.00122419    -0.00026960     0.00035311
H        -0.96789480     0.05204233     1.93858040    -0.00015420     0.00086481     0.00063248
H        -1.04709307     0.08686130    -0.62722671    -0.00044340    -0.00024024    -0.00090316
     6
  Step:    42            Position(A)                                  Velocity(au)
C        -0.03361673     0.02455403    -0.15397952    -0.00002494    -0.00000752    -0.00015527
N        -0.04692193    -0.08084521     1.44820311     0.00011222    -0.00006292     0.00020287
H         0.97202860     0.02480699    -0.61991152     0.00051310     0.00062661    -0.00094829
H         0.88577744    -0.00603408     1.91247189    -0.00124386    -0.00027110     0.00035010
H        -0.96853242     0.05683966     1.94199968    -0.00007283     0.00085310     0.00059874
H        -1.04959916     0.08548706    -0.63242734    -0.00045871    -0.00024464    -0.00096942
     6
  Step:    43            Position(A)                                  Velocity(au)
C        -0.03376219     0.02450234    -0.15460691    -0.00002678    -0.00001108    -0.00007382
N        -0.04631552    -0.08118118     1.44916449     0.00010525    -0.00005848     0.00014541
H         0.97499983     0.02823783    -0.62541012     0.00054836     0.00060190    -0.00103067
H         0.87886305    -0.00750430     1.91441593    -0.00123857    -0.00024691     0.00035508
H        -0.96870238     0.06150244     1.94521993     0.00001389     0.00081810     0.00056103
H        -1.05217974     0.08414849    -0.63797675    -0.00046710    -0.00022840    -0.00102637
     6
  Step:    44            Position(A)                                  Velocity(au)
C        -0.03391362     0.02443120    -0.15479785    -0.00002708    -0.00001447    -0.00000082
N        -0.04575528    -0.08149344     1.44981495     0.00009574    -0.00005456     0.00009275
H         0.97810728     0.03147911    -0.63133655     0.00055885     0.00055893    -0.00109899
H         0.87204778    -0.00877112     1.91640795    -0.00121000    -0.00019736     0.00036698
H        -0.96837845     0.06590835     1.94821876     0.00010480     0.00076110     0.00051937
H        -1.05477698     0.08295526    -0.64380481    -0.00046136    -0.00019192    -0.00106640
     6