|===============================================================================
|
|  DFTB+ release 20.1
|
|  Copyright (C) 2006 - 2020  DFTB+ developers group
|
|===============================================================================
|
|  When publishing results obtained with DFTB+, please cite the following
|  reference:
|
|  * DFTB+, a software package for efficient approximate density functional
|    theory based atomistic simulations, J. Chem. Phys. 152, 124101 (2020).
|    [doi: 10.1063/1.5143190]
|
|  You should also cite additional publications crediting the parametrization
|  data you use. Please consult the documentation of the SK-files for the
|  references.
|
|===============================================================================

Reading input file 'dftb_in.hsd'
Parser version: 8

--------------------------------------------------------------------------------
Reading SK-files:
Done.


Processed input in HSD format written to 'dftb_pin.hsd'

Starting initialization...
--------------------------------------------------------------------------------
OpenMP threads:              1
Chosen random seed:          452370466
Mode:                        Static calculation
Self consistent charges:     Yes
SCC-tolerance:                 0.100000E-05
Max. scc iterations:                   1000
Shell resolved Hubbard:      No
Spin polarisation:           No
Nr. of up electrons:             6.000000
Nr. of down electrons:           6.000000
Periodic boundaries:         No
Electronic solver:           Relatively robust
Maximal SCC-cycles:                    1000
Initial charges:             Set automatically (system chrg:   0.100E+01)
Included shells:             C:  s, p
                             N:  s, p
                             H:  s
Spin coupling constants:     C   1(s)-1(s):  -0.455900E-01
                             C   1(s)-2(p):  -0.293000E-01
                             C   2(p)-1(s):  -0.293000E-01
                             C   2(p)-2(p):  -0.275500E-01
                             N   1(s)-1(s):  -0.468700E-01
                             N   1(s)-2(p):  -0.317000E-01
                             N   2(p)-1(s):  -0.317000E-01
                             N   2(p)-2(p):  -0.307200E-01
                             H   1(s)-1(s):  -0.792500E-01
Range separated hybrid:      Yes
  Screening parameter omega:   0.300000E+00
  Range separated algorithm:   MatrixBased
Extra options:
                             Mulliken analysis
                             Force calculation
Force type                   original
                             Eigenvector printing


REKS Calcuation:             Yes
SSR(2,2) Calcuation:         Yes
Energy Functional:           (PPS+OSS)/2
Number of Core Orbitals:                  5
Number of Active Orbitals:                2
Number of Basis:                         12
Number of States:                         2
State-Averaging Weight:          0.500000
                                 0.500000
State of Interest:                        1
Initial Guess:               Diagonalize H0 matrix
Newton-Raphson for FON opt:  Yes
NR max. Iterations:                      50
Level Shifting:              Yes
Shift Value:                     0.300000
W Scale Factor:              C  =    3.200000
                             N  =    3.200000
                             H  =    3.200000
Transition Dipole:           No
Gradient of Microstate:      No
CP-REKS Solver:              Preconditioned Conjugate-Gradient
CG max. Iterations:                     100
CG Tolerance:                  0.100000E-07
Memory for A and Hxc:        Direct Updating Without Saving
Non-Adiabatic Coupling:      Yes

--------------------------------------------------------------------------------

***  Geometry step: 0

  iSCC       reks energy        Diff energy         x_a       SCC error   
    1       -6.1131392027       0.0000000000     0.830649    1.11885439
    2       -6.1323253542      -0.0191861516     0.887564    0.13456310
    3       -6.1498314419      -0.0175060877     0.984549    0.14507497
    4       -6.1636285581      -0.0137971162     0.999969    0.09458253
    5       -6.1666039360      -0.0029753779     0.999998    0.04084679
    6       -6.1680502938      -0.0014463578     0.999998    0.02083522
    7       -6.1688266819      -0.0007763881     0.999999    0.01737186
    8       -6.1692498412      -0.0004231593     0.999999    0.01263605
    9       -6.1694822115      -0.0002323703     0.999999    0.01172318
   10       -6.1696132102      -0.0001309986     0.999999    0.00714405
   11       -6.1696888908      -0.0000756806     1.000000    0.01011226
   12       -6.1697328646      -0.0000439737     0.999999    0.00592832
   13       -6.1697591550      -0.0000262904     1.000000    0.01059761
   14       -6.1697717202      -0.0000125652     0.999999    0.00902256
   15       -6.1697778540      -0.0000061338     1.000000    0.01272064
   16       -6.1697722025       0.0000056515     0.999999    0.01300739
   17       -6.1697651753       0.0000070273     1.000000    0.01653261
   18       -6.1697386188       0.0000265564     0.999999    0.01844217
   19       -6.1697178480       0.0000207709     1.000000    0.02236587
   20       -6.1696544147       0.0000634333     0.999998    0.02597875
   21       -6.1696176032       0.0000368115     1.000000    0.03071814
   22       -6.1694806819       0.0001369213     0.999998    0.03630098
   23       -6.1694341610       0.0000465209     1.000000    0.04205187
   24       -6.1691542837       0.0002798773     0.999996    0.04983409
   25       -6.1691402336       0.0000140501     1.000000    0.05633120
   26       -6.1686145504       0.0005256832     0.999991    0.06603411
   27       -6.1687540334      -0.0001394830     1.000000    0.07226215
   28       -6.1678959620       0.0008580713     0.999983    0.08247957
   29       -6.1683770388      -0.0004810767     1.000000    0.08692012
   30       -6.1672117064       0.0011653324     0.999970    0.09527493
   31       -6.1681282288      -0.0009165224     1.000000    0.09713832
   32       -6.1667977589       0.0013304699     0.999961    0.10202264
   33       -6.1680262466      -0.0012284877     1.000000    0.10201938
   34       -6.1666652389       0.0013610077     0.999957    0.10388940
   35       -6.1680102689      -0.0013450300     1.000000    0.10322442
   36       -6.1666762785       0.0013339905     0.999957    0.10350756
   37       -6.1680246319      -0.0013483534     1.000000    0.10287342
   38       -6.1667241161       0.0013005157     0.999959    0.10261948
   39       -6.1680425117      -0.0013183956     1.000000    0.10220586
   40       -6.1667656825       0.0012768292     0.999960    0.10189088
   41       -6.1680554926      -0.0012898101     1.000000    0.10167348
   42       -6.1667918738       0.0012636188     0.999960    0.10144460
   43       -6.1680629062      -0.0012710324     1.000000    0.10135193
   44       -6.1668053422       0.0012575640     0.999961    0.10122092
   45       -6.1680663673      -0.0012610251     1.000000    0.10119294
   46       -6.1668109191       0.0012554482     0.999961    0.10113152
   47       -6.1680675973      -0.0012566782     1.000000    0.10113072
   48       -6.1668124784       0.0012551189     0.999961    0.10110865
   49       -6.1680677978      -0.0012553194     1.000000    0.10111581
   50       -6.1668123960       0.0012554018     0.999961    0.10111193
   51       -6.1680676391      -0.0012552431     1.000000    0.10111909
   52       -6.1668118690       0.0012557702     0.999961    0.10112159
   53       -6.1680674264      -0.0012555575     1.000000    0.10112652
   54       -6.1668113780       0.0012560484     0.999961    0.10113004
   55       -6.1680672634      -0.0012558854     1.000000    0.10113281
   56       -6.1668110476       0.0012562159     0.999961    0.10113551
   57       -6.1680671638      -0.0012561162     1.000000    0.10113684
   58       -6.1668108617       0.0012563021     0.999961    0.10113847
   59       -6.1680671113      -0.0012562495     1.000000    0.10113901
   60       -6.1668107704       0.0012563408     0.999961    0.10113986
   61       -6.1680670867      -0.0012563162     1.000000    0.10114004
   62       -6.1668107302       0.0012563564     0.999961    0.10114042
   63       -6.1680670760      -0.0012563458     1.000000    0.10114047
   64       -6.1668107135       0.0012563625     0.999961    0.10114062
   65       -6.1680670714      -0.0012563579     1.000000    0.10114063
   66       -6.1668107058       0.0012563656     0.999961    0.10114069
   67       -6.1680670688      -0.0012563630     1.000000    0.10114071
   68       -6.1668107008       0.0012563680     0.999961    0.10114074
   69       -6.1680670668      -0.0012563660     1.000000    0.10114076
   70       -6.1668106966       0.0012563703     0.999961    0.10114078
   71       -6.1680670651      -0.0012563685     1.000000    0.10114081
   72       -6.1668106926       0.0012563725     0.999961    0.10114083
   73       -6.1680670635      -0.0012563709     1.000000    0.10114085
   74       -6.1668106891       0.0012563744     0.999961    0.10114088
   75       -6.1680670622      -0.0012563731     1.000000    0.10114090
   76       -6.1668106862       0.0012563761     0.999961    0.10114092
   77       -6.1680670611      -0.0012563750     1.000000    0.10114093
   78       -6.1668106838       0.0012563773     0.999961    0.10114095
   79       -6.1680670603      -0.0012563765     1.000000    0.10114096
   80       -6.1668106820       0.0012563783     0.999961    0.10114097
   81       -6.1680670596      -0.0012563776     1.000000    0.10114098
   82       -6.1668106806       0.0012563790     0.999961    0.10114099
   83       -6.1680670592      -0.0012563785     1.000000    0.10114100
   84       -6.1668106796       0.0012563795     0.999961    0.10114100
   85       -6.1680670588      -0.0012563792     1.000000    0.10114101
   86       -6.1668106789       0.0012563799     0.999961    0.10114101
   87       -6.1680670586      -0.0012563796     1.000000    0.10114102
   88       -6.1668106784       0.0012563802     0.999961    0.10114102
   89       -6.1680670584      -0.0012563800     1.000000    0.10114102
   90       -6.1668106780       0.0012563804     0.999961    0.10114103
   91       -6.1680670582      -0.0012563802     1.000000    0.10114103
   92       -6.1668106777       0.0012563805     0.999961    0.10114103
   93       -6.1680670581      -0.0012563804     1.000000    0.10114103
   94       -6.1668106775       0.0012563807     0.999961    0.10114103
   95       -6.1680670580      -0.0012563806     1.000000    0.10114103
   96       -6.1668106773       0.0012563807     0.999961    0.10114104
   97       -6.1680670580      -0.0012563807     1.000000    0.10114104
   98       -6.1668106772       0.0012563808     0.999961    0.10114104
   99       -6.1680670579      -0.0012563808     1.000000    0.10114104
  100       -6.1668106771       0.0012563808     0.999961    0.10114104
  101       -6.1680670579      -0.0012563808     1.000000    0.10114104
  102       -6.1668106770       0.0012563809     0.999961    0.10114104
  103       -6.1680670579      -0.0012563809     1.000000    0.10114104
  104       -6.1668106770       0.0012563809     0.999961    0.10114104
  105       -6.1680670579      -0.0012563809     1.000000    0.10114104
  106       -6.1668106769       0.0012563809     0.999961    0.10114104
  107       -6.1680670579      -0.0012563809     1.000000    0.10114104
  108       -6.1668106769       0.0012563809     0.999961    0.10114104
  109       -6.1680670579      -0.0012563809     1.000000    0.10114104
  110       -6.1668106769       0.0012563809     0.999961    0.10114104
  111       -6.1680670578      -0.0012563809     1.000000    0.10114104
  112       -6.1668106769       0.0012563810     0.999961    0.10114104
  113       -6.1680670578      -0.0012563810     1.000000    0.10114104
  114       -6.1668106769       0.0012563810     0.999961    0.10114104
  115       -6.1680670578      -0.0012563810     1.000000    0.10114104
  116       -6.1668106769       0.0012563810     0.999961    0.10114104
  117       -6.1680670578      -0.0012563810     1.000000    0.10114104
  118       -6.1668106769       0.0012563810     0.999961    0.10114104
  119       -6.1680670578      -0.0012563810     1.000000    0.10114104
  120       -6.1668106769       0.0012563810     0.999961    0.10114104
  121       -6.1680670578      -0.0012563810     1.000000    0.10114104
  122       -6.1668106769       0.0012563810     0.999961    0.10114104
  123       -6.1680670578      -0.0012563810     1.000000    0.10114104
  124       -6.1668106769       0.0012563810     0.999961    0.10114104
  125       -6.1680670578      -0.0012563810     1.000000    0.10114104
  126       -6.1668106769       0.0012563810     0.999961    0.10114104
  127       -6.1680670578      -0.0012563810     1.000000    0.10114104
  128       -6.1668106768       0.0012563810     0.999961    0.10114104
  129       -6.1680670578      -0.0012563810     1.000000    0.10114104
  130       -6.1668106768       0.0012563810     0.999961    0.10114104
  131       -6.1680670578      -0.0012563810     1.000000    0.10114104
  132       -6.1668106768       0.0012563810     0.999961    0.10114104
  133       -6.1680670578      -0.0012563810     1.000000    0.10114104
  134       -6.1668106768       0.0012563810     0.999961    0.10114104
  135       -6.1680670578      -0.0012563810     1.000000    0.10114104
  136       -6.1668106768       0.0012563810     0.999961    0.10114104
  137       -6.1680670578      -0.0012563810     1.000000    0.10114104
  138       -6.1668106768       0.0012563810     0.999961    0.10114104
  139       -6.1680670578      -0.0012563810     1.000000    0.10114104
  140       -6.1668106768       0.0012563810     0.999961    0.10114104
  141       -6.1680670578      -0.0012563810     1.000000    0.10114104
  142       -6.1668106768       0.0012563810     0.999961    0.10114104
  143       -6.1680670578      -0.0012563810     1.000000    0.10114104
  144       -6.1668106768       0.0012563810     0.999961    0.10114104
  145       -6.1680670578      -0.0012563810     1.000000    0.10114104
  146       -6.1668106768       0.0012563810     0.999961    0.10114104
  147       -6.1680670578      -0.0012563810     1.000000    0.10114104
  148       -6.1668106768       0.0012563810     0.999961    0.10114104
  149       -6.1680670578      -0.0012563810     1.000000    0.10114104
  150       -6.1668106768       0.0012563810     0.999961    0.10114104
  151       -6.1680670578      -0.0012563810     1.000000    0.10114104
  152       -6.1668106768       0.0012563810     0.999961    0.10114104
  153       -6.1680670578      -0.0012563810     1.000000    0.10114104
  154       -6.1668106768       0.0012563810     0.999961    0.10114104
  155       -6.1680670578      -0.0012563810     1.000000    0.10114104
  156       -6.1668106768       0.0012563810     0.999961    0.10114104
  157       -6.1680670578      -0.0012563810     1.000000    0.10114104
  158       -6.1668106768       0.0012563810     0.999961    0.10114104
  159       -6.1680670578      -0.0012563810     1.000000    0.10114104
  160       -6.1668106768       0.0012563810     0.999961    0.10114104
  161       -6.1680670578      -0.0012563810     1.000000    0.10114104
  162       -6.1668106768       0.0012563810     0.999961    0.10114104
  163       -6.1680670578      -0.0012563810     1.000000    0.10114104
  164       -6.1668106768       0.0012563810     0.999961    0.10114104
  165       -6.1680670578      -0.0012563810     1.000000    0.10114104
  166       -6.1668106768       0.0012563810     0.999961    0.10114104
  167       -6.1680670578      -0.0012563810     1.000000    0.10114104
  168       -6.1668106768       0.0012563810     0.999961    0.10114104
  169       -6.1680670578      -0.0012563810     1.000000    0.10114104
  170       -6.1668106768       0.0012563810     0.999961    0.10114104
  171       -6.1680670578      -0.0012563810     1.000000    0.10114104
  172       -6.1668106768       0.0012563810     0.999961    0.10114104
  173       -6.1680670578      -0.0012563810     1.000000    0.10114104
  174       -6.1668106768       0.0012563810     0.999961    0.10114104
  175       -6.1680670578      -0.0012563810     1.000000    0.10114104
  176       -6.1668106768       0.0012563810     0.999961    0.10114104
  177       -6.1680670578      -0.0012563810     1.000000    0.10114104
  178       -6.1668106768       0.0012563810     0.999961    0.10114104
  179       -6.1680670578      -0.0012563810     1.000000    0.10114104
  180       -6.1668106768       0.0012563810     0.999961    0.10114104
  181       -6.1680670578      -0.0012563810     1.000000    0.10114104
  182       -6.1668106768       0.0012563810     0.999961    0.10114104
  183       -6.1680670578      -0.0012563810     1.000000    0.10114104
  184       -6.1668106768       0.0012563810     0.999961    0.10114104
  185       -6.1680670578      -0.0012563810     1.000000    0.10114104
  186       -6.1668106768       0.0012563810     0.999961    0.10114104
  187       -6.1680670578      -0.0012563810     1.000000    0.10114104
  188       -6.1668106768       0.0012563810     0.999961    0.10114104
  189       -6.1680670578      -0.0012563810     1.000000    0.10114104
  190       -6.1668106768       0.0012563810     0.999961    0.10114104
  191       -6.1680670578      -0.0012563810     1.000000    0.10114104
  192       -6.1668106768       0.0012563810     0.999961    0.10114104
  193       -6.1680670578      -0.0012563810     1.000000    0.10114104
  194       -6.1668106768       0.0012563810     0.999961    0.10114104
  195       -6.1680670578      -0.0012563810     1.000000    0.10114104
  196       -6.1668106768       0.0012563810     0.999961    0.10114104
  197       -6.1680670578      -0.0012563810     1.000000    0.10114104
  198       -6.1668106768       0.0012563810     0.999961    0.10114104
  199       -6.1680670578      -0.0012563810     1.000000    0.10114104
  200       -6.1668106768       0.0012563810     0.999961    0.10114104
  201       -6.1680670578      -0.0012563810     1.000000    0.10114104
  202       -6.1668106768       0.0012563810     0.999961    0.10114104
  203       -6.1680670578      -0.0012563810     1.000000    0.10114104
  204       -6.1668106768       0.0012563810     0.999961    0.10114104
  205       -6.1680670578      -0.0012563810     1.000000    0.10114104
  206       -6.1668106768       0.0012563810     0.999961    0.10114104
  207       -6.1680670578      -0.0012563810     1.000000    0.10114104
  208       -6.1668106768       0.0012563810     0.999961    0.10114104
  209       -6.1680670578      -0.0012563810     1.000000    0.10114104
  210       -6.1668106768       0.0012563810     0.999961    0.10114104
  211       -6.1680670578      -0.0012563810     1.000000    0.10114104
  212       -6.1668106768       0.0012563810     0.999961    0.10114104
  213       -6.1680670578      -0.0012563810     1.000000    0.10114104
  214       -6.1668106768       0.0012563810     0.999961    0.10114104
  215       -6.1680670578      -0.0012563810     1.000000    0.10114104
  216       -6.1668106768       0.0012563810     0.999961    0.10114104
  217       -6.1680670578      -0.0012563810     1.000000    0.10114104
  218       -6.1668106768       0.0012563810     0.999961    0.10114104
  219       -6.1680670578      -0.0012563810     1.000000    0.10114104
  220       -6.1668106768       0.0012563810     0.999961    0.10114104
  221       -6.1680670578      -0.0012563810     1.000000    0.10114104
  222       -6.1668106768       0.0012563810     0.999961    0.10114104
  223       -6.1680670578      -0.0012563810     1.000000    0.10114104
  224       -6.1668106768       0.0012563810     0.999961    0.10114104
  225       -6.1680670578      -0.0012563810     1.000000    0.10114104
  226       -6.1668106768       0.0012563810     0.999961    0.10114104
  227       -6.1680670578      -0.0012563810     1.000000    0.10114104
  228       -6.1668106768       0.0012563810     0.999961    0.10114104
  229       -6.1680670578      -0.0012563810     1.000000    0.10114104
  230       -6.1668106768       0.0012563810     0.999961    0.10114104
  231       -6.1680670578      -0.0012563810     1.000000    0.10114104
  232       -6.1668106768       0.0012563810     0.999961    0.10114104
  233       -6.1680670578      -0.0012563810     1.000000    0.10114104
  234       -6.1668106768       0.0012563810     0.999961    0.10114104
  235       -6.1680670578      -0.0012563810     1.000000    0.10114104
  236       -6.1668106768       0.0012563810     0.999961    0.10114104
  237       -6.1680670578      -0.0012563810     1.000000    0.10114104
  238       -6.1668106768       0.0012563810     0.999961    0.10114104
  239       -6.1680670578      -0.0012563810     1.000000    0.10114104
  240       -6.1668106768       0.0012563810     0.999961    0.10114104
  241       -6.1680670578      -0.0012563810     1.000000    0.10114104
  242       -6.1668106768       0.0012563810     0.999961    0.10114104
  243       -6.1680670578      -0.0012563810     1.000000    0.10114104
  244       -6.1668106768       0.0012563810     0.999961    0.10114104
  245       -6.1680670578      -0.0012563810     1.000000    0.10114104
  246       -6.1668106768       0.0012563810     0.999961    0.10114104
  247       -6.1680670578      -0.0012563810     1.000000    0.10114104
  248       -6.1668106768       0.0012563810     0.999961    0.10114104
  249       -6.1680670578      -0.0012563810     1.000000    0.10114104
  250       -6.1668106768       0.0012563810     0.999961    0.10114104
  251       -6.1680670578      -0.0012563810     1.000000    0.10114104
  252       -6.1668106768       0.0012563810     0.999961    0.10114104
  253       -6.1680670578      -0.0012563810     1.000000    0.10114104
  254       -6.1668106768       0.0012563810     0.999961    0.10114104
  255       -6.1680670578      -0.0012563810     1.000000    0.10114104
  256       -6.1668106768       0.0012563810     0.999961    0.10114104
  257       -6.1680670578      -0.0012563810     1.000000    0.10114104
  258       -6.1668106768       0.0012563810     0.999961    0.10114104
  259       -6.1680670578      -0.0012563810     1.000000    0.10114104
  260       -6.1668106768       0.0012563810     0.999961    0.10114104
  261       -6.1680670578      -0.0012563810     1.000000    0.10114104
  262       -6.1668106768       0.0012563810     0.999961    0.10114104
  263       -6.1680670578      -0.0012563810     1.000000    0.10114104
  264       -6.1668106768       0.0012563810     0.999961    0.10114104
  265       -6.1680670578      -0.0012563810     1.000000    0.10114104
  266       -6.1668106768       0.0012563810     0.999961    0.10114104
  267       -6.1680670578      -0.0012563810     1.000000    0.10114104
  268       -6.1668106768       0.0012563810     0.999961    0.10114104
  269       -6.1680670578      -0.0012563810     1.000000    0.10114104
  270       -6.1668106768       0.0012563810     0.999961    0.10114104
  271       -6.1680670578      -0.0012563810     1.000000    0.10114104
  272       -6.1668106768       0.0012563810     0.999961    0.10114104
  273       -6.1680670578      -0.0012563810     1.000000    0.10114104
  274       -6.1668106768       0.0012563810     0.999961    0.10114104
  275       -6.1680670578      -0.0012563810     1.000000    0.10114104
  276       -6.1668106768       0.0012563810     0.999961    0.10114104
  277       -6.1680670578      -0.0012563810     1.000000    0.10114104
  278       -6.1668106768       0.0012563810     0.999961    0.10114104
  279       -6.1680670578      -0.0012563810     1.000000    0.10114104
  280       -6.1668106768       0.0012563810     0.999961    0.10114104
  281       -6.1680670578      -0.0012563810     1.000000    0.10114104
  282       -6.1668106768       0.0012563810     0.999961    0.10114104
  283       -6.1680670578      -0.0012563810     1.000000    0.10114104
  284       -6.1668106768       0.0012563810     0.999961    0.10114104
  285       -6.1680670578      -0.0012563810     1.000000    0.10114104
  286       -6.1668106768       0.0012563810     0.999961    0.10114104
  287       -6.1680670578      -0.0012563810     1.000000    0.10114104
  288       -6.1668106768       0.0012563810     0.999961    0.10114104
  289       -6.1680670578      -0.0012563810     1.000000    0.10114104
  290       -6.1668106768       0.0012563810     0.999961    0.10114104
  291       -6.1680670578      -0.0012563810     1.000000    0.10114104
  292       -6.1668106768       0.0012563810     0.999961    0.10114104
  293       -6.1680670578      -0.0012563810     1.000000    0.10114104
  294       -6.1668106768       0.0012563810     0.999961    0.10114104
  295       -6.1680670578      -0.0012563810     1.000000    0.10114104
  296       -6.1668106768       0.0012563810     0.999961    0.10114104
  297       -6.1680670578      -0.0012563810     1.000000    0.10114104
  298       -6.1668106768       0.0012563810     0.999961    0.10114104
  299       -6.1680670578      -0.0012563810     1.000000    0.10114104
  300       -6.1668106768       0.0012563810     0.999961    0.10114104
  301       -6.1680670578      -0.0012563810     1.000000    0.10114104
  302       -6.1668106768       0.0012563810     0.999961    0.10114104
  303       -6.1680670578      -0.0012563810     1.000000    0.10114104
  304       -6.1668106768       0.0012563810     0.999961    0.10114104
  305       -6.1680670578      -0.0012563810     1.000000    0.10114104
  306       -6.1668106768       0.0012563810     0.999961    0.10114104
  307       -6.1680670578      -0.0012563810     1.000000    0.10114104
  308       -6.1668106768       0.0012563810     0.999961    0.10114104
  309       -6.1680670578      -0.0012563810     1.000000    0.10114104
  310       -6.1668106768       0.0012563810     0.999961    0.10114104
  311       -6.1680670578      -0.0012563810     1.000000    0.10114104
  312       -6.1668106768       0.0012563810     0.999961    0.10114104
  313       -6.1680670578      -0.0012563810     1.000000    0.10114104
  314       -6.1668106768       0.0012563810     0.999961    0.10114104
  315       -6.1680670578      -0.0012563810     1.000000    0.10114104
  316       -6.1668106768       0.0012563810     0.999961    0.10114104
  317       -6.1680670578      -0.0012563810     1.000000    0.10114104
  318       -6.1668106768       0.0012563810     0.999961    0.10114104
  319       -6.1680670578      -0.0012563810     1.000000    0.10114104
  320       -6.1668106768       0.0012563810     0.999961    0.10114104
  321       -6.1680670578      -0.0012563810     1.000000    0.10114104
  322       -6.1668106768       0.0012563810     0.999961    0.10114104
  323       -6.1680670578      -0.0012563810     1.000000    0.10114104
  324       -6.1668106768       0.0012563810     0.999961    0.10114104
  325       -6.1680670578      -0.0012563810     1.000000    0.10114104
  326       -6.1668106768       0.0012563810     0.999961    0.10114104
  327       -6.1680670578      -0.0012563810     1.000000    0.10114104
  328       -6.1668106768       0.0012563810     0.999961    0.10114104
  329       -6.1680670578      -0.0012563810     1.000000    0.10114104
  330       -6.1668106768       0.0012563810     0.999961    0.10114104
  331       -6.1680670578      -0.0012563810     1.000000    0.10114104
  332       -6.1668106768       0.0012563810     0.999961    0.10114104
  333       -6.1680670578      -0.0012563810     1.000000    0.10114104
  334       -6.1668106768       0.0012563810     0.999961    0.10114104
  335       -6.1680670578      -0.0012563810     1.000000    0.10114104
  336       -6.1668106768       0.0012563810     0.999961    0.10114104
  337       -6.1680670578      -0.0012563810     1.000000    0.10114104
  338       -6.1668106768       0.0012563810     0.999961    0.10114104
  339       -6.1680670578      -0.0012563810     1.000000    0.10114104
  340       -6.1668106768       0.0012563810     0.999961    0.10114104
  341       -6.1680670578      -0.0012563810     1.000000    0.10114104
  342       -6.1668106768       0.0012563810     0.999961    0.10114104
  343       -6.1680670578      -0.0012563810     1.000000    0.10114104
  344       -6.1668106768       0.0012563810     0.999961    0.10114104
  345       -6.1680670578      -0.0012563810     1.000000    0.10114104
  346       -6.1668106768       0.0012563810     0.999961    0.10114104
  347       -6.1680670578      -0.0012563810     1.000000    0.10114104
  348       -6.1668106768       0.0012563810     0.999961    0.10114104
  349       -6.1680670578      -0.0012563810     1.000000    0.10114104
  350       -6.1668106768       0.0012563810     0.999961    0.10114104
  351       -6.1680670578      -0.0012563810     1.000000    0.10114104
  352       -6.1668106768       0.0012563810     0.999961    0.10114104
  353       -6.1680670578      -0.0012563810     1.000000    0.10114104
  354       -6.1668106768       0.0012563810     0.999961    0.10114104
  355       -6.1680670578      -0.0012563810     1.000000    0.10114104
  356       -6.1668106768       0.0012563810     0.999961    0.10114104
  357       -6.1680670578      -0.0012563810     1.000000    0.10114104
  358       -6.1668106768       0.0012563810     0.999961    0.10114104
  359       -6.1680670578      -0.0012563810     1.000000    0.10114104
  360       -6.1668106768       0.0012563810     0.999961    0.10114104
  361       -6.1680670578      -0.0012563810     1.000000    0.10114104
  362       -6.1668106768       0.0012563810     0.999961    0.10114104
  363       -6.1680670578      -0.0012563810     1.000000    0.10114104
  364       -6.1668106768       0.0012563810     0.999961    0.10114104
  365       -6.1680670578      -0.0012563810     1.000000    0.10114104
  366       -6.1668106768       0.0012563810     0.999961    0.10114104
  367       -6.1680670578      -0.0012563810     1.000000    0.10114104
  368       -6.1668106768       0.0012563810     0.999961    0.10114104
  369       -6.1680670578      -0.0012563810     1.000000    0.10114104
  370       -6.1668106768       0.0012563810     0.999961    0.10114104
  371       -6.1680670578      -0.0012563810     1.000000    0.10114104
  372       -6.1668106768       0.0012563810     0.999961    0.10114104
  373       -6.1680670578      -0.0012563810     1.000000    0.10114104
  374       -6.1668106768       0.0012563810     0.999961    0.10114104
  375       -6.1680670578      -0.0012563810     1.000000    0.10114104
  376       -6.1668106768       0.0012563810     0.999961    0.10114104
  377       -6.1680670578      -0.0012563810     1.000000    0.10114104
  378       -6.1668106768       0.0012563810     0.999961    0.10114104
  379       -6.1680670578      -0.0012563810     1.000000    0.10114104
  380       -6.1668106768       0.0012563810     0.999961    0.10114104
  381       -6.1680670578      -0.0012563810     1.000000    0.10114104
  382       -6.1668106768       0.0012563810     0.999961    0.10114104
  383       -6.1680670578      -0.0012563810     1.000000    0.10114104
  384       -6.1668106768       0.0012563810     0.999961    0.10114104
  385       -6.1680670578      -0.0012563810     1.000000    0.10114104
  386       -6.1668106768       0.0012563810     0.999961    0.10114104
  387       -6.1680670578      -0.0012563810     1.000000    0.10114104
  388       -6.1668106768       0.0012563810     0.999961    0.10114104
  389       -6.1680670578      -0.0012563810     1.000000    0.10114104
  390       -6.1668106768       0.0012563810     0.999961    0.10114104
  391       -6.1680670578      -0.0012563810     1.000000    0.10114104
  392       -6.1668106768       0.0012563810     0.999961    0.10114104
  393       -6.1680670578      -0.0012563810     1.000000    0.10114104
  394       -6.1668106768       0.0012563810     0.999961    0.10114104
  395       -6.1680670578      -0.0012563810     1.000000    0.10114104
  396       -6.1668106768       0.0012563810     0.999961    0.10114104
  397       -6.1680670578      -0.0012563810     1.000000    0.10114104
  398       -6.1668106768       0.0012563810     0.999961    0.10114104
  399       -6.1680670578      -0.0012563810     1.000000    0.10114104
  400       -6.1668106768       0.0012563810     0.999961    0.10114104
  401       -6.1680670578      -0.0012563810     1.000000    0.10114104
  402       -6.1668106768       0.0012563810     0.999961    0.10114104
  403       -6.1680670578      -0.0012563810     1.000000    0.10114104
  404       -6.1668106768       0.0012563810     0.999961    0.10114104
  405       -6.1680670578      -0.0012563810     1.000000    0.10114104
  406       -6.1668106768       0.0012563810     0.999961    0.10114104
  407       -6.1680670578      -0.0012563810     1.000000    0.10114104
  408       -6.1668106768       0.0012563810     0.999961    0.10114104
  409       -6.1680670578      -0.0012563810     1.000000    0.10114104
  410       -6.1668106768       0.0012563810     0.999961    0.10114104
  411       -6.1680670578      -0.0012563810     1.000000    0.10114104
  412       -6.1668106768       0.0012563810     0.999961    0.10114104
  413       -6.1680670578      -0.0012563810     1.000000    0.10114104
  414       -6.1668106768       0.0012563810     0.999961    0.10114104
  415       -6.1680670578      -0.0012563810     1.000000    0.10114104
  416       -6.1668106768       0.0012563810     0.999961    0.10114104
  417       -6.1680670578      -0.0012563810     1.000000    0.10114104
  418       -6.1668106768       0.0012563810     0.999961    0.10114104
  419       -6.1680670578      -0.0012563810     1.000000    0.10114104
  420       -6.1668106768       0.0012563810     0.999961    0.10114104
  421       -6.1680670578      -0.0012563810     1.000000    0.10114104
  422       -6.1668106768       0.0012563810     0.999961    0.10114104
  423       -6.1680670578      -0.0012563810     1.000000    0.10114104
  424       -6.1668106768       0.0012563810     0.999961    0.10114104
  425       -6.1680670578      -0.0012563810     1.000000    0.10114104
  426       -6.1668106768       0.0012563810     0.999961    0.10114104
  427       -6.1680670578      -0.0012563810     1.000000    0.10114104
  428       -6.1668106768       0.0012563810     0.999961    0.10114104
  429       -6.1680670578      -0.0012563810     1.000000    0.10114104
  430       -6.1668106768       0.0012563810     0.999961    0.10114104
  431       -6.1680670578      -0.0012563810     1.000000    0.10114104
  432       -6.1668106768       0.0012563810     0.999961    0.10114104
  433       -6.1680670578      -0.0012563810     1.000000    0.10114104
  434       -6.1668106768       0.0012563810     0.999961    0.10114104
  435       -6.1680670578      -0.0012563810     1.000000    0.10114104
  436       -6.1668106768       0.0012563810     0.999961    0.10114104
  437       -6.1680670578      -0.0012563810     1.000000    0.10114104
  438       -6.1668106768       0.0012563810     0.999961    0.10114104
  439       -6.1680670578      -0.0012563810     1.000000    0.10114104
  440       -6.1668106768       0.0012563810     0.999961    0.10114104
  441       -6.1680670578      -0.0012563810     1.000000    0.10114104
  442       -6.1668106768       0.0012563810     0.999961    0.10114104
  443       -6.1680670578      -0.0012563810     1.000000    0.10114104
  444       -6.1668106768       0.0012563810     0.999961    0.10114104
  445       -6.1680670578      -0.0012563810     1.000000    0.10114104
  446       -6.1668106768       0.0012563810     0.999961    0.10114104
  447       -6.1680670578      -0.0012563810     1.000000    0.10114104
  448       -6.1668106768       0.0012563810     0.999961    0.10114104
  449       -6.1680670578      -0.0012563810     1.000000    0.10114104
  450       -6.1668106768       0.0012563810     0.999961    0.10114104
  451       -6.1680670578      -0.0012563810     1.000000    0.10114104
  452       -6.1668106768       0.0012563810     0.999961    0.10114104
  453       -6.1680670578      -0.0012563810     1.000000    0.10114104
  454       -6.1668106768       0.0012563810     0.999961    0.10114104
  455       -6.1680670578      -0.0012563810     1.000000    0.10114104
  456       -6.1668106768       0.0012563810     0.999961    0.10114104
  457       -6.1680670578      -0.0012563810     1.000000    0.10114104
  458       -6.1668106768       0.0012563810     0.999961    0.10114104
  459       -6.1680670578      -0.0012563810     1.000000    0.10114104
  460       -6.1668106768       0.0012563810     0.999961    0.10114104
  461       -6.1680670578      -0.0012563810     1.000000    0.10114104
  462       -6.1668106768       0.0012563810     0.999961    0.10114104
  463       -6.1680670578      -0.0012563810     1.000000    0.10114104
  464       -6.1668106768       0.0012563810     0.999961    0.10114104
  465       -6.1680670578      -0.0012563810     1.000000    0.10114104
  466       -6.1668106768       0.0012563810     0.999961    0.10114104
  467       -6.1680670578      -0.0012563810     1.000000    0.10114104
  468       -6.1668106768       0.0012563810     0.999961    0.10114104
  469       -6.1680670578      -0.0012563810     1.000000    0.10114104
  470       -6.1668106768       0.0012563810     0.999961    0.10114104
  471       -6.1680670578      -0.0012563810     1.000000    0.10114104
  472       -6.1668106768       0.0012563810     0.999961    0.10114104
  473       -6.1680670578      -0.0012563810     1.000000    0.10114104
  474       -6.1668106768       0.0012563810     0.999961    0.10114104
  475       -6.1680670578      -0.0012563810     1.000000    0.10114104
  476       -6.1668106768       0.0012563810     0.999961    0.10114104
  477       -6.1680670578      -0.0012563810     1.000000    0.10114104
  478       -6.1668106768       0.0012563810     0.999961    0.10114104
  479       -6.1680670578      -0.0012563810     1.000000    0.10114104
  480       -6.1668106768       0.0012563810     0.999961    0.10114104
  481       -6.1680670578      -0.0012563810     1.000000    0.10114104
  482       -6.1668106768       0.0012563810     0.999961    0.10114104
  483       -6.1680670578      -0.0012563810     1.000000    0.10114104
  484       -6.1668106768       0.0012563810     0.999961    0.10114104
  485       -6.1680670578      -0.0012563810     1.000000    0.10114104
  486       -6.1668106768       0.0012563810     0.999961    0.10114104
  487       -6.1680670578      -0.0012563810     1.000000    0.10114104
  488       -6.1668106768       0.0012563810     0.999961    0.10114104
  489       -6.1680670578      -0.0012563810     1.000000    0.10114104
  490       -6.1668106768       0.0012563810     0.999961    0.10114104
  491       -6.1680670578      -0.0012563810     1.000000    0.10114104
  492       -6.1668106768       0.0012563810     0.999961    0.10114104
  493       -6.1680670578      -0.0012563810     1.000000    0.10114104
  494       -6.1668106768       0.0012563810     0.999961    0.10114104
  495       -6.1680670578      -0.0012563810     1.000000    0.10114104
  496       -6.1668106768       0.0012563810     0.999961    0.10114104
  497       -6.1680670578      -0.0012563810     1.000000    0.10114104
  498       -6.1668106768       0.0012563810     0.999961    0.10114104
  499       -6.1680670578      -0.0012563810     1.000000    0.10114104
  500       -6.1668106768       0.0012563810     0.999961    0.10114104
  501       -6.1680670578      -0.0012563810     1.000000    0.10114104
  502       -6.1668106768       0.0012563810     0.999961    0.10114104
  503       -6.1680670578      -0.0012563810     1.000000    0.10114104
  504       -6.1668106768       0.0012563810     0.999961    0.10114104
  505       -6.1680670578      -0.0012563810     1.000000    0.10114104
  506       -6.1668106768       0.0012563810     0.999961    0.10114104
  507       -6.1680670578      -0.0012563810     1.000000    0.10114104
  508       -6.1668106768       0.0012563810     0.999961    0.10114104
  509       -6.1680670578      -0.0012563810     1.000000    0.10114104
  510       -6.1668106768       0.0012563810     0.999961    0.10114104
  511       -6.1680670578      -0.0012563810     1.000000    0.10114104
  512       -6.1668106768       0.0012563810     0.999961    0.10114104
  513       -6.1680670578      -0.0012563810     1.000000    0.10114104
  514       -6.1668106768       0.0012563810     0.999961    0.10114104
  515       -6.1680670578      -0.0012563810     1.000000    0.10114104
  516       -6.1668106768       0.0012563810     0.999961    0.10114104
  517       -6.1680670578      -0.0012563810     1.000000    0.10114104
  518       -6.1668106768       0.0012563810     0.999961    0.10114104
  519       -6.1680670578      -0.0012563810     1.000000    0.10114104
  520       -6.1668106768       0.0012563810     0.999961    0.10114104
  521       -6.1680670578      -0.0012563810     1.000000    0.10114104
  522       -6.1668106768       0.0012563810     0.999961    0.10114104
  523       -6.1680670578      -0.0012563810     1.000000    0.10114104
  524       -6.1668106768       0.0012563810     0.999961    0.10114104
  525       -6.1680670578      -0.0012563810     1.000000    0.10114104
  526       -6.1668106768       0.0012563810     0.999961    0.10114104
  527       -6.1680670578      -0.0012563810     1.000000    0.10114104
  528       -6.1668106768       0.0012563810     0.999961    0.10114104
  529       -6.1680670578      -0.0012563810     1.000000    0.10114104
  530       -6.1668106768       0.0012563810     0.999961    0.10114104
  531       -6.1680670578      -0.0012563810     1.000000    0.10114104
  532       -6.1668106768       0.0012563810     0.999961    0.10114104
  533       -6.1680670578      -0.0012563810     1.000000    0.10114104
  534       -6.1668106768       0.0012563810     0.999961    0.10114104
  535       -6.1680670578      -0.0012563810     1.000000    0.10114104
  536       -6.1668106768       0.0012563810     0.999961    0.10114104
  537       -6.1680670578      -0.0012563810     1.000000    0.10114104
  538       -6.1668106768       0.0012563810     0.999961    0.10114104
  539       -6.1680670578      -0.0012563810     1.000000    0.10114104
  540       -6.1668106768       0.0012563810     0.999961    0.10114104
  541       -6.1680670578      -0.0012563810     1.000000    0.10114104
  542       -6.1668106768       0.0012563810     0.999961    0.10114104
  543       -6.1680670578      -0.0012563810     1.000000    0.10114104
  544       -6.1668106768       0.0012563810     0.999961    0.10114104
  545       -6.1680670578      -0.0012563810     1.000000    0.10114104
  546       -6.1668106768       0.0012563810     0.999961    0.10114104
  547       -6.1680670578      -0.0012563810     1.000000    0.10114104
  548       -6.1668106768       0.0012563810     0.999961    0.10114104
  549       -6.1680670578      -0.0012563810     1.000000    0.10114104
  550       -6.1668106768       0.0012563810     0.999961    0.10114104
  551       -6.1680670578      -0.0012563810     1.000000    0.10114104
  552       -6.1668106768       0.0012563810     0.999961    0.10114104
  553       -6.1680670578      -0.0012563810     1.000000    0.10114104
  554       -6.1668106768       0.0012563810     0.999961    0.10114104
  555       -6.1680670578      -0.0012563810     1.000000    0.10114104
  556       -6.1668106768       0.0012563810     0.999961    0.10114104
  557       -6.1680670578      -0.0012563810     1.000000    0.10114104
  558       -6.1668106768       0.0012563810     0.999961    0.10114104
  559       -6.1680670578      -0.0012563810     1.000000    0.10114104
  560       -6.1668106768       0.0012563810     0.999961    0.10114104
  561       -6.1680670578      -0.0012563810     1.000000    0.10114104
  562       -6.1668106768       0.0012563810     0.999961    0.10114104
  563       -6.1680670578      -0.0012563810     1.000000    0.10114104
  564       -6.1668106768       0.0012563810     0.999961    0.10114104
  565       -6.1680670578      -0.0012563810     1.000000    0.10114104
  566       -6.1668106768       0.0012563810     0.999961    0.10114104
  567       -6.1680670578      -0.0012563810     1.000000    0.10114104
  568       -6.1668106768       0.0012563810     0.999961    0.10114104
  569       -6.1680670578      -0.0012563810     1.000000    0.10114104
  570       -6.1668106768       0.0012563810     0.999961    0.10114104
  571       -6.1680670578      -0.0012563810     1.000000    0.10114104
  572       -6.1668106768       0.0012563810     0.999961    0.10114104
  573       -6.1680670578      -0.0012563810     1.000000    0.10114104
  574       -6.1668106768       0.0012563810     0.999961    0.10114104
  575       -6.1680670578      -0.0012563810     1.000000    0.10114104
  576       -6.1668106768       0.0012563810     0.999961    0.10114104
  577       -6.1680670578      -0.0012563810     1.000000    0.10114104
  578       -6.1668106768       0.0012563810     0.999961    0.10114104
  579       -6.1680670578      -0.0012563810     1.000000    0.10114104
  580       -6.1668106768       0.0012563810     0.999961    0.10114104
  581       -6.1680670578      -0.0012563810     1.000000    0.10114104
  582       -6.1668106768       0.0012563810     0.999961    0.10114104
  583       -6.1680670578      -0.0012563810     1.000000    0.10114104
  584       -6.1668106768       0.0012563810     0.999961    0.10114104
  585       -6.1680670578      -0.0012563810     1.000000    0.10114104
  586       -6.1668106768       0.0012563810     0.999961    0.10114104
  587       -6.1680670578      -0.0012563810     1.000000    0.10114104
  588       -6.1668106768       0.0012563810     0.999961    0.10114104
  589       -6.1680670578      -0.0012563810     1.000000    0.10114104
  590       -6.1668106768       0.0012563810     0.999961    0.10114104
  591       -6.1680670578      -0.0012563810     1.000000    0.10114104
  592       -6.1668106768       0.0012563810     0.999961    0.10114104
  593       -6.1680670578      -0.0012563810     1.000000    0.10114104
  594       -6.1668106768       0.0012563810     0.999961    0.10114104
  595       -6.1680670578      -0.0012563810     1.000000    0.10114104
  596       -6.1668106768       0.0012563810     0.999961    0.10114104
  597       -6.1680670578      -0.0012563810     1.000000    0.10114104
  598       -6.1668106768       0.0012563810     0.999961    0.10114104
  599       -6.1680670578      -0.0012563810     1.000000    0.10114104
  600       -6.1668106768       0.0012563810     0.999961    0.10114104
  601       -6.1680670578      -0.0012563810     1.000000    0.10114104
  602       -6.1668106768       0.0012563810     0.999961    0.10114104
  603       -6.1680670578      -0.0012563810     1.000000    0.10114104
  604       -6.1668106768       0.0012563810     0.999961    0.10114104
  605       -6.1680670578      -0.0012563810     1.000000    0.10114104
  606       -6.1668106768       0.0012563810     0.999961    0.10114104
  607       -6.1680670578      -0.0012563810     1.000000    0.10114104
  608       -6.1668106768       0.0012563810     0.999961    0.10114104
  609       -6.1680670578      -0.0012563810     1.000000    0.10114104
  610       -6.1668106768       0.0012563810     0.999961    0.10114104
  611       -6.1680670578      -0.0012563810     1.000000    0.10114104
  612       -6.1668106768       0.0012563810     0.999961    0.10114104
  613       -6.1680670578      -0.0012563810     1.000000    0.10114104
  614       -6.1668106768       0.0012563810     0.999961    0.10114104
  615       -6.1680670578      -0.0012563810     1.000000    0.10114104
  616       -6.1668106768       0.0012563810     0.999961    0.10114104
  617       -6.1680670578      -0.0012563810     1.000000    0.10114104
  618       -6.1668106768       0.0012563810     0.999961    0.10114104
  619       -6.1680670578      -0.0012563810     1.000000    0.10114104
  620       -6.1668106768       0.0012563810     0.999961    0.10114104
  621       -6.1680670578      -0.0012563810     1.000000    0.10114104
  622       -6.1668106768       0.0012563810     0.999961    0.10114104
  623       -6.1680670578      -0.0012563810     1.000000    0.10114104
  624       -6.1668106768       0.0012563810     0.999961    0.10114104
  625       -6.1680670578      -0.0012563810     1.000000    0.10114104
  626       -6.1668106768       0.0012563810     0.999961    0.10114104
  627       -6.1680670578      -0.0012563810     1.000000    0.10114104
  628       -6.1668106768       0.0012563810     0.999961    0.10114104
  629       -6.1680670578      -0.0012563810     1.000000    0.10114104
  630       -6.1668106768       0.0012563810     0.999961    0.10114104
  631       -6.1680670578      -0.0012563810     1.000000    0.10114104
  632       -6.1668106768       0.0012563810     0.999961    0.10114104
  633       -6.1680670578      -0.0012563810     1.000000    0.10114104
  634       -6.1668106768       0.0012563810     0.999961    0.10114104
  635       -6.1680670578      -0.0012563810     1.000000    0.10114104
  636       -6.1668106768       0.0012563810     0.999961    0.10114104
  637       -6.1680670578      -0.0012563810     1.000000    0.10114104
  638       -6.1668106768       0.0012563810     0.999961    0.10114104
  639       -6.1680670578      -0.0012563810     1.000000    0.10114104
  640       -6.1668106768       0.0012563810     0.999961    0.10114104
  641       -6.1680670578      -0.0012563810     1.000000    0.10114104
  642       -6.1668106768       0.0012563810     0.999961    0.10114104
  643       -6.1680670578      -0.0012563810     1.000000    0.10114104
  644       -6.1668106768       0.0012563810     0.999961    0.10114104
  645       -6.1680670578      -0.0012563810     1.000000    0.10114104
  646       -6.1668106768       0.0012563810     0.999961    0.10114104
  647       -6.1680670578      -0.0012563810     1.000000    0.10114104
  648       -6.1668106768       0.0012563810     0.999961    0.10114104
  649       -6.1680670578      -0.0012563810     1.000000    0.10114104
  650       -6.1668106768       0.0012563810     0.999961    0.10114104
  651       -6.1680670578      -0.0012563810     1.000000    0.10114104
  652       -6.1668106768       0.0012563810     0.999961    0.10114104
  653       -6.1680670578      -0.0012563810     1.000000    0.10114104
  654       -6.1668106768       0.0012563810     0.999961    0.10114104
  655       -6.1680670578      -0.0012563810     1.000000    0.10114104
  656       -6.1668106768       0.0012563810     0.999961    0.10114104
  657       -6.1680670578      -0.0012563810     1.000000    0.10114104
  658       -6.1668106768       0.0012563810     0.999961    0.10114104
  659       -6.1680670578      -0.0012563810     1.000000    0.10114104
  660       -6.1668106768       0.0012563810     0.999961    0.10114104
  661       -6.1680670578      -0.0012563810     1.000000    0.10114104
  662       -6.1668106768       0.0012563810     0.999961    0.10114104
  663       -6.1680670578      -0.0012563810     1.000000    0.10114104
  664       -6.1668106768       0.0012563810     0.999961    0.10114104
  665       -6.1680670578      -0.0012563810     1.000000    0.10114104
  666       -6.1668106768       0.0012563810     0.999961    0.10114104
  667       -6.1680670578      -0.0012563810     1.000000    0.10114104
  668       -6.1668106768       0.0012563810     0.999961    0.10114104
  669       -6.1680670578      -0.0012563810     1.000000    0.10114104
  670       -6.1668106768       0.0012563810     0.999961    0.10114104
  671       -6.1680670578      -0.0012563810     1.000000    0.10114104
  672       -6.1668106768       0.0012563810     0.999961    0.10114104
  673       -6.1680670578      -0.0012563810     1.000000    0.10114104
  674       -6.1668106768       0.0012563810     0.999961    0.10114104
  675       -6.1680670578      -0.0012563810     1.000000    0.10114104
  676       -6.1668106768       0.0012563810     0.999961    0.10114104
  677       -6.1680670578      -0.0012563810     1.000000    0.10114104
  678       -6.1668106768       0.0012563810     0.999961    0.10114104
  679       -6.1680670578      -0.0012563810     1.000000    0.10114104
  680       -6.1668106768       0.0012563810     0.999961    0.10114104
  681       -6.1680670578      -0.0012563810     1.000000    0.10114104
  682       -6.1668106768       0.0012563810     0.999961    0.10114104
  683       -6.1680670578      -0.0012563810     1.000000    0.10114104
  684       -6.1668106768       0.0012563810     0.999961    0.10114104
  685       -6.1680670578      -0.0012563810     1.000000    0.10114104
  686       -6.1668106768       0.0012563810     0.999961    0.10114104
  687       -6.1680670578      -0.0012563810     1.000000    0.10114104
  688       -6.1668106768       0.0012563810     0.999961    0.10114104
  689       -6.1680670578      -0.0012563810     1.000000    0.10114104
  690       -6.1668106768       0.0012563810     0.999961    0.10114104
  691       -6.1680670578      -0.0012563810     1.000000    0.10114104
  692       -6.1668106768       0.0012563810     0.999961    0.10114104
  693       -6.1680670578      -0.0012563810     1.000000    0.10114104
  694       -6.1668106768       0.0012563810     0.999961    0.10114104
  695       -6.1680670578      -0.0012563810     1.000000    0.10114104
  696       -6.1668106768       0.0012563810     0.999961    0.10114104
  697       -6.1680670578      -0.0012563810     1.000000    0.10114104
  698       -6.1668106768       0.0012563810     0.999961    0.10114104
  699       -6.1680670578      -0.0012563810     1.000000    0.10114104
  700       -6.1668106768       0.0012563810     0.999961    0.10114104
  701       -6.1680670578      -0.0012563810     1.000000    0.10114104
  702       -6.1668106768       0.0012563810     0.999961    0.10114104
  703       -6.1680670578      -0.0012563810     1.000000    0.10114104
  704       -6.1668106768       0.0012563810     0.999961    0.10114104
  705       -6.1680670578      -0.0012563810     1.000000    0.10114104
  706       -6.1668106768       0.0012563810     0.999961    0.10114104
  707       -6.1680670578      -0.0012563810     1.000000    0.10114104
  708       -6.1668106768       0.0012563810     0.999961    0.10114104
  709       -6.1680670578      -0.0012563810     1.000000    0.10114104
  710       -6.1668106768       0.0012563810     0.999961    0.10114104
  711       -6.1680670578      -0.0012563810     1.000000    0.10114104
  712       -6.1668106768       0.0012563810     0.999961    0.10114104
  713       -6.1680670578      -0.0012563810     1.000000    0.10114104
  714       -6.1668106768       0.0012563810     0.999961    0.10114104
  715       -6.1680670578      -0.0012563810     1.000000    0.10114104
  716       -6.1668106768       0.0012563810     0.999961    0.10114104
  717       -6.1680670578      -0.0012563810     1.000000    0.10114104
  718       -6.1668106768       0.0012563810     0.999961    0.10114104
  719       -6.1680670578      -0.0012563810     1.000000    0.10114104
  720       -6.1668106768       0.0012563810     0.999961    0.10114104
  721       -6.1680670578      -0.0012563810     1.000000    0.10114104
  722       -6.1668106768       0.0012563810     0.999961    0.10114104
  723       -6.1680670578      -0.0012563810     1.000000    0.10114104
  724       -6.1668106768       0.0012563810     0.999961    0.10114104
  725       -6.1680670578      -0.0012563810     1.000000    0.10114104
  726       -6.1668106768       0.0012563810     0.999961    0.10114104
  727       -6.1680670578      -0.0012563810     1.000000    0.10114104
  728       -6.1668106768       0.0012563810     0.999961    0.10114104
  729       -6.1680670578      -0.0012563810     1.000000    0.10114104
  730       -6.1668106768       0.0012563810     0.999961    0.10114104
  731       -6.1680670578      -0.0012563810     1.000000    0.10114104
  732       -6.1668106768       0.0012563810     0.999961    0.10114104
  733       -6.1680670578      -0.0012563810     1.000000    0.10114104
  734       -6.1668106768       0.0012563810     0.999961    0.10114104
  735       -6.1680670578      -0.0012563810     1.000000    0.10114104
  736       -6.1668106768       0.0012563810     0.999961    0.10114104
  737       -6.1680670578      -0.0012563810     1.000000    0.10114104
  738       -6.1668106768       0.0012563810     0.999961    0.10114104
  739       -6.1680670578      -0.0012563810     1.000000    0.10114104
  740       -6.1668106768       0.0012563810     0.999961    0.10114104
  741       -6.1680670578      -0.0012563810     1.000000    0.10114104
  742       -6.1668106768       0.0012563810     0.999961    0.10114104
  743       -6.1680670578      -0.0012563810     1.000000    0.10114104
  744       -6.1668106768       0.0012563810     0.999961    0.10114104
  745       -6.1680670578      -0.0012563810     1.000000    0.10114104
  746       -6.1668106768       0.0012563810     0.999961    0.10114104
  747       -6.1680670578      -0.0012563810     1.000000    0.10114104
  748       -6.1668106768       0.0012563810     0.999961    0.10114104
  749       -6.1680670578      -0.0012563810     1.000000    0.10114104
  750       -6.1668106768       0.0012563810     0.999961    0.10114104
  751       -6.1680670578      -0.0012563810     1.000000    0.10114104
  752       -6.1668106768       0.0012563810     0.999961    0.10114104
  753       -6.1680670578      -0.0012563810     1.000000    0.10114104
  754       -6.1668106768       0.0012563810     0.999961    0.10114104
  755       -6.1680670578      -0.0012563810     1.000000    0.10114104
  756       -6.1668106768       0.0012563810     0.999961    0.10114104
  757       -6.1680670578      -0.0012563810     1.000000    0.10114104
  758       -6.1668106768       0.0012563810     0.999961    0.10114104
  759       -6.1680670578      -0.0012563810     1.000000    0.10114104
  760       -6.1668106768       0.0012563810     0.999961    0.10114104
  761       -6.1680670578      -0.0012563810     1.000000    0.10114104
  762       -6.1668106768       0.0012563810     0.999961    0.10114104
  763       -6.1680670578      -0.0012563810     1.000000    0.10114104
  764       -6.1668106768       0.0012563810     0.999961    0.10114104
  765       -6.1680670578      -0.0012563810     1.000000    0.10114104
  766       -6.1668106768       0.0012563810     0.999961    0.10114104
  767       -6.1680670578      -0.0012563810     1.000000    0.10114104
  768       -6.1668106768       0.0012563810     0.999961    0.10114104
  769       -6.1680670578      -0.0012563810     1.000000    0.10114104
  770       -6.1668106768       0.0012563810     0.999961    0.10114104
  771       -6.1680670578      -0.0012563810     1.000000    0.10114104
  772       -6.1668106768       0.0012563810     0.999961    0.10114104
  773       -6.1680670578      -0.0012563810     1.000000    0.10114104
  774       -6.1668106768       0.0012563810     0.999961    0.10114104
  775       -6.1680670578      -0.0012563810     1.000000    0.10114104
  776       -6.1668106768       0.0012563810     0.999961    0.10114104
  777       -6.1680670578      -0.0012563810     1.000000    0.10114104
  778       -6.1668106768       0.0012563810     0.999961    0.10114104
  779       -6.1680670578      -0.0012563810     1.000000    0.10114104
  780       -6.1668106768       0.0012563810     0.999961    0.10114104
  781       -6.1680670578      -0.0012563810     1.000000    0.10114104
  782       -6.1668106768       0.0012563810     0.999961    0.10114104
  783       -6.1680670578      -0.0012563810     1.000000    0.10114104
  784       -6.1668106768       0.0012563810     0.999961    0.10114104
  785       -6.1680670578      -0.0012563810     1.000000    0.10114104
  786       -6.1668106768       0.0012563810     0.999961    0.10114104
  787       -6.1680670578      -0.0012563810     1.000000    0.10114104
  788       -6.1668106768       0.0012563810     0.999961    0.10114104
  789       -6.1680670578      -0.0012563810     1.000000    0.10114104
  790       -6.1668106768       0.0012563810     0.999961    0.10114104
  791       -6.1680670578      -0.0012563810     1.000000    0.10114104
  792       -6.1668106768       0.0012563810     0.999961    0.10114104
  793       -6.1680670578      -0.0012563810     1.000000    0.10114104
  794       -6.1668106768       0.0012563810     0.999961    0.10114104
  795       -6.1680670578      -0.0012563810     1.000000    0.10114104
  796       -6.1668106768       0.0012563810     0.999961    0.10114104
  797       -6.1680670578      -0.0012563810     1.000000    0.10114104
  798       -6.1668106768       0.0012563810     0.999961    0.10114104
  799       -6.1680670578      -0.0012563810     1.000000    0.10114104
  800       -6.1668106768       0.0012563810     0.999961    0.10114104
  801       -6.1680670578      -0.0012563810     1.000000    0.10114104
  802       -6.1668106768       0.0012563810     0.999961    0.10114104
  803       -6.1680670578      -0.0012563810     1.000000    0.10114104
  804       -6.1668106768       0.0012563810     0.999961    0.10114104
  805       -6.1680670578      -0.0012563810     1.000000    0.10114104
  806       -6.1668106768       0.0012563810     0.999961    0.10114104
  807       -6.1680670578      -0.0012563810     1.000000    0.10114104
  808       -6.1668106768       0.0012563810     0.999961    0.10114104
  809       -6.1680670578      -0.0012563810     1.000000    0.10114104
  810       -6.1668106768       0.0012563810     0.999961    0.10114104
  811       -6.1680670578      -0.0012563810     1.000000    0.10114104
  812       -6.1668106768       0.0012563810     0.999961    0.10114104
  813       -6.1680670578      -0.0012563810     1.000000    0.10114104
  814       -6.1668106768       0.0012563810     0.999961    0.10114104
  815       -6.1680670578      -0.0012563810     1.000000    0.10114104
  816       -6.1668106768       0.0012563810     0.999961    0.10114104
  817       -6.1680670578      -0.0012563810     1.000000    0.10114104
  818       -6.1668106768       0.0012563810     0.999961    0.10114104
  819       -6.1680670578      -0.0012563810     1.000000    0.10114104
  820       -6.1668106768       0.0012563810     0.999961    0.10114104
  821       -6.1680670578      -0.0012563810     1.000000    0.10114104
  822       -6.1668106768       0.0012563810     0.999961    0.10114104
  823       -6.1680670578      -0.0012563810     1.000000    0.10114104
  824       -6.1668106768       0.0012563810     0.999961    0.10114104
  825       -6.1680670578      -0.0012563810     1.000000    0.10114104
  826       -6.1668106768       0.0012563810     0.999961    0.10114104
  827       -6.1680670578      -0.0012563810     1.000000    0.10114104
  828       -6.1668106768       0.0012563810     0.999961    0.10114104
  829       -6.1680670578      -0.0012563810     1.000000    0.10114104
  830       -6.1668106768       0.0012563810     0.999961    0.10114104
  831       -6.1680670578      -0.0012563810     1.000000    0.10114104
  832       -6.1668106768       0.0012563810     0.999961    0.10114104
  833       -6.1680670578      -0.0012563810     1.000000    0.10114104
  834       -6.1668106768       0.0012563810     0.999961    0.10114104
  835       -6.1680670578      -0.0012563810     1.000000    0.10114104
  836       -6.1668106768       0.0012563810     0.999961    0.10114104
  837       -6.1680670578      -0.0012563810     1.000000    0.10114104
  838       -6.1668106768       0.0012563810     0.999961    0.10114104
  839       -6.1680670578      -0.0012563810     1.000000    0.10114104
  840       -6.1668106768       0.0012563810     0.999961    0.10114104
  841       -6.1680670578      -0.0012563810     1.000000    0.10114104
  842       -6.1668106768       0.0012563810     0.999961    0.10114104
  843       -6.1680670578      -0.0012563810     1.000000    0.10114104
  844       -6.1668106768       0.0012563810     0.999961    0.10114104
  845       -6.1680670578      -0.0012563810     1.000000    0.10114104
  846       -6.1668106768       0.0012563810     0.999961    0.10114104
  847       -6.1680670578      -0.0012563810     1.000000    0.10114104
  848       -6.1668106768       0.0012563810     0.999961    0.10114104
  849       -6.1680670578      -0.0012563810     1.000000    0.10114104
  850       -6.1668106768       0.0012563810     0.999961    0.10114104
  851       -6.1680670578      -0.0012563810     1.000000    0.10114104
  852       -6.1668106768       0.0012563810     0.999961    0.10114104
  853       -6.1680670578      -0.0012563810     1.000000    0.10114104
  854       -6.1668106768       0.0012563810     0.999961    0.10114104
  855       -6.1680670578      -0.0012563810     1.000000    0.10114104
  856       -6.1668106768       0.0012563810     0.999961    0.10114104
  857       -6.1680670578      -0.0012563810     1.000000    0.10114104
  858       -6.1668106768       0.0012563810     0.999961    0.10114104
  859       -6.1680670578      -0.0012563810     1.000000    0.10114104
  860       -6.1668106768       0.0012563810     0.999961    0.10114104
  861       -6.1680670578      -0.0012563810     1.000000    0.10114104
  862       -6.1668106768       0.0012563810     0.999961    0.10114104
  863       -6.1680670578      -0.0012563810     1.000000    0.10114104
  864       -6.1668106768       0.0012563810     0.999961    0.10114104
  865       -6.1680670578      -0.0012563810     1.000000    0.10114104
  866       -6.1668106768       0.0012563810     0.999961    0.10114104
  867       -6.1680670578      -0.0012563810     1.000000    0.10114104
  868       -6.1668106768       0.0012563810     0.999961    0.10114104
  869       -6.1680670578      -0.0012563810     1.000000    0.10114104
  870       -6.1668106768       0.0012563810     0.999961    0.10114104
  871       -6.1680670578      -0.0012563810     1.000000    0.10114104
  872       -6.1668106768       0.0012563810     0.999961    0.10114104
  873       -6.1680670578      -0.0012563810     1.000000    0.10114104
  874       -6.1668106768       0.0012563810     0.999961    0.10114104
  875       -6.1680670578      -0.0012563810     1.000000    0.10114104
  876       -6.1668106768       0.0012563810     0.999961    0.10114104
  877       -6.1680670578      -0.0012563810     1.000000    0.10114104
  878       -6.1668106768       0.0012563810     0.999961    0.10114104
  879       -6.1680670578      -0.0012563810     1.000000    0.10114104
  880       -6.1668106768       0.0012563810     0.999961    0.10114104
  881       -6.1680670578      -0.0012563810     1.000000    0.10114104
  882       -6.1668106768       0.0012563810     0.999961    0.10114104
  883       -6.1680670578      -0.0012563810     1.000000    0.10114104
  884       -6.1668106768       0.0012563810     0.999961    0.10114104
  885       -6.1680670578      -0.0012563810     1.000000    0.10114104
  886       -6.1668106768       0.0012563810     0.999961    0.10114104
  887       -6.1680670578      -0.0012563810     1.000000    0.10114104
  888       -6.1668106768       0.0012563810     0.999961    0.10114104
  889       -6.1680670578      -0.0012563810     1.000000    0.10114104
  890       -6.1668106768       0.0012563810     0.999961    0.10114104
  891       -6.1680670578      -0.0012563810     1.000000    0.10114104
  892       -6.1668106768       0.0012563810     0.999961    0.10114104
  893       -6.1680670578      -0.0012563810     1.000000    0.10114104
  894       -6.1668106768       0.0012563810     0.999961    0.10114104
  895       -6.1680670578      -0.0012563810     1.000000    0.10114104
  896       -6.1668106768       0.0012563810     0.999961    0.10114104
  897       -6.1680670578      -0.0012563810     1.000000    0.10114104
  898       -6.1668106768       0.0012563810     0.999961    0.10114104
  899       -6.1680670578      -0.0012563810     1.000000    0.10114104
  900       -6.1668106768       0.0012563810     0.999961    0.10114104
  901       -6.1680670578      -0.0012563810     1.000000    0.10114104
  902       -6.1668106768       0.0012563810     0.999961    0.10114104
  903       -6.1680670578      -0.0012563810     1.000000    0.10114104
  904       -6.1668106768       0.0012563810     0.999961    0.10114104
  905       -6.1680670578      -0.0012563810     1.000000    0.10114104
  906       -6.1668106768       0.0012563810     0.999961    0.10114104
  907       -6.1680670578      -0.0012563810     1.000000    0.10114104
  908       -6.1668106768       0.0012563810     0.999961    0.10114104
  909       -6.1680670578      -0.0012563810     1.000000    0.10114104
  910       -6.1668106768       0.0012563810     0.999961    0.10114104
  911       -6.1680670578      -0.0012563810     1.000000    0.10114104
  912       -6.1668106768       0.0012563810     0.999961    0.10114104
  913       -6.1680670578      -0.0012563810     1.000000    0.10114104
  914       -6.1668106768       0.0012563810     0.999961    0.10114104
  915       -6.1680670578      -0.0012563810     1.000000    0.10114104
  916       -6.1668106768       0.0012563810     0.999961    0.10114104
  917       -6.1680670578      -0.0012563810     1.000000    0.10114104
  918       -6.1668106768       0.0012563810     0.999961    0.10114104
  919       -6.1680670578      -0.0012563810     1.000000    0.10114104
  920       -6.1668106768       0.0012563810     0.999961    0.10114104
  921       -6.1680670578      -0.0012563810     1.000000    0.10114104
  922       -6.1668106768       0.0012563810     0.999961    0.10114104
  923       -6.1680670578      -0.0012563810     1.000000    0.10114104
  924       -6.1668106768       0.0012563810     0.999961    0.10114104
  925       -6.1680670578      -0.0012563810     1.000000    0.10114104
  926       -6.1668106768       0.0012563810     0.999961    0.10114104
  927       -6.1680670578      -0.0012563810     1.000000    0.10114104
  928       -6.1668106768       0.0012563810     0.999961    0.10114104
  929       -6.1680670578      -0.0012563810     1.000000    0.10114104
  930       -6.1668106768       0.0012563810     0.999961    0.10114104
  931       -6.1680670578      -0.0012563810     1.000000    0.10114104
  932       -6.1668106768       0.0012563810     0.999961    0.10114104
  933       -6.1680670578      -0.0012563810     1.000000    0.10114104
  934       -6.1668106768       0.0012563810     0.999961    0.10114104
  935       -6.1680670578      -0.0012563810     1.000000    0.10114104
  936       -6.1668106768       0.0012563810     0.999961    0.10114104
  937       -6.1680670578      -0.0012563810     1.000000    0.10114104
  938       -6.1668106768       0.0012563810     0.999961    0.10114104
  939       -6.1680670578      -0.0012563810     1.000000    0.10114104
  940       -6.1668106768       0.0012563810     0.999961    0.10114104
  941       -6.1680670578      -0.0012563810     1.000000    0.10114104
  942       -6.1668106768       0.0012563810     0.999961    0.10114104
  943       -6.1680670578      -0.0012563810     1.000000    0.10114104
  944       -6.1668106768       0.0012563810     0.999961    0.10114104
  945       -6.1680670578      -0.0012563810     1.000000    0.10114104
  946       -6.1668106768       0.0012563810     0.999961    0.10114104
  947       -6.1680670578      -0.0012563810     1.000000    0.10114104
  948       -6.1668106768       0.0012563810     0.999961    0.10114104
  949       -6.1680670578      -0.0012563810     1.000000    0.10114104
  950       -6.1668106768       0.0012563810     0.999961    0.10114104
  951       -6.1680670578      -0.0012563810     1.000000    0.10114104
  952       -6.1668106768       0.0012563810     0.999961    0.10114104
  953       -6.1680670578      -0.0012563810     1.000000    0.10114104
  954       -6.1668106768       0.0012563810     0.999961    0.10114104
  955       -6.1680670578      -0.0012563810     1.000000    0.10114104
  956       -6.1668106768       0.0012563810     0.999961    0.10114104
  957       -6.1680670578      -0.0012563810     1.000000    0.10114104
  958       -6.1668106768       0.0012563810     0.999961    0.10114104
  959       -6.1680670578      -0.0012563810     1.000000    0.10114104
  960       -6.1668106768       0.0012563810     0.999961    0.10114104
  961       -6.1680670578      -0.0012563810     1.000000    0.10114104
  962       -6.1668106768       0.0012563810     0.999961    0.10114104
  963       -6.1680670578      -0.0012563810     1.000000    0.10114104
  964       -6.1668106768       0.0012563810     0.999961    0.10114104
  965       -6.1680670578      -0.0012563810     1.000000    0.10114104
  966       -6.1668106768       0.0012563810     0.999961    0.10114104
  967       -6.1680670578      -0.0012563810     1.000000    0.10114104
  968       -6.1668106768       0.0012563810     0.999961    0.10114104
  969       -6.1680670578      -0.0012563810     1.000000    0.10114104
  970       -6.1668106768       0.0012563810     0.999961    0.10114104
  971       -6.1680670578      -0.0012563810     1.000000    0.10114104
  972       -6.1668106768       0.0012563810     0.999961    0.10114104
  973       -6.1680670578      -0.0012563810     1.000000    0.10114104
  974       -6.1668106768       0.0012563810     0.999961    0.10114104
  975       -6.1680670578      -0.0012563810     1.000000    0.10114104
  976       -6.1668106768       0.0012563810     0.999961    0.10114104
  977       -6.1680670578      -0.0012563810     1.000000    0.10114104
  978       -6.1668106768       0.0012563810     0.999961    0.10114104
  979       -6.1680670578      -0.0012563810     1.000000    0.10114104
  980       -6.1668106768       0.0012563810     0.999961    0.10114104
  981       -6.1680670578      -0.0012563810     1.000000    0.10114104
  982       -6.1668106768       0.0012563810     0.999961    0.10114104
  983       -6.1680670578      -0.0012563810     1.000000    0.10114104
  984       -6.1668106768       0.0012563810     0.999961    0.10114104
  985       -6.1680670578      -0.0012563810     1.000000    0.10114104
  986       -6.1668106768       0.0012563810     0.999961    0.10114104
  987       -6.1680670578      -0.0012563810     1.000000    0.10114104
  988       -6.1668106768       0.0012563810     0.999961    0.10114104
  989       -6.1680670578      -0.0012563810     1.000000    0.10114104
  990       -6.1668106768       0.0012563810     0.999961    0.10114104
  991       -6.1680670578      -0.0012563810     1.000000    0.10114104
  992       -6.1668106768       0.0012563810     0.999961    0.10114104
  993       -6.1680670578      -0.0012563810     1.000000    0.10114104
  994       -6.1668106768       0.0012563810     0.999961    0.10114104
  995       -6.1680670578      -0.0012563810     1.000000    0.10114104
  996       -6.1668106768       0.0012563810     0.999961    0.10114104
  997       -6.1680670578      -0.0012563810     1.000000    0.10114104
  998       -6.1668106768       0.0012563810     0.999961    0.10114104
  999       -6.1680670578      -0.0012563810     1.000000    0.10114104
 1000       -6.1668106768       0.0012563810     0.999961    0.10114104

Total Energy:                       -6.1668106768 H         -167.8075 eV
Extrapolated to 0:                  -6.2207805041 H         -169.2761 eV

----------------------------------------------------------------------------------
 Solving CP-REKS equation for  1 state vector...
----------------------------------------------------------------------------------
  CG solver: Constructing Y initial guess
  CG solver: Iteration    1    eps =    0.085531918603
  CG solver: Iteration    2    eps =    0.043020544856
  CG solver: Iteration    3    eps =    0.008424631021
  CG solver: Iteration    4    eps =    0.000911519180
  CG solver: Iteration    5    eps =    0.000078135605
  CG solver: Iteration    6    eps =    0.000006374433
  CG solver: Iteration    7    eps =    0.000002456175
  CG solver: Iteration    8    eps =    0.000000185617
  CG solver: Iteration    9    eps =    0.000000118160
  CG solver: Iteration   10    eps =    0.000000019546
  CG solver: Iteration   11    eps =    0.000000001148
  Convergence reached in CG solver after   11 iterations
  CG solver: Calculating converged R, Z, Q2 matrix
----------------------------------------------------------------------------------

----------------------------------------------------------------------------------
 Solving CP-REKS equation for SI between  1 and  2 state vectors...
----------------------------------------------------------------------------------
  CG solver: Constructing Y initial guess
  CG solver: Iteration    1    eps =    0.008432520609
  CG solver: Iteration    2    eps =    0.004780563374
  CG solver: Iteration    3    eps =    0.000407458776
  CG solver: Iteration    4    eps =    0.000121337308
  CG solver: Iteration    5    eps =    0.000016327849
  CG solver: Iteration    6    eps =    0.000003005373
  CG solver: Iteration    7    eps =    0.000000499352
  CG solver: Iteration    8    eps =    0.000000077136
  CG solver: Iteration    9    eps =    0.000000011995
  CG solver: Iteration   10    eps =    0.000000001408
  Convergence reached in CG solver after   10 iterations
  CG solver: Calculating converged R, Z, Q2 matrix
----------------------------------------------------------------------------------

--------------------------------------------------
 Gradient Information
--------------------------------------------------
           1 st state (SSR)
     0.00000000     0.00000000     0.00000000
     0.00000000     0.00000000     0.00000000
     0.00000000     0.00000000     0.00000000
     0.00000000     0.00000000     0.00000000
     0.00000000     0.00000000     0.00000000
     0.00000000     0.00000000     0.00000000

           2 st state (SSR)
     0.00000000     0.00000000     0.00000000
     0.00000000     0.00000000     0.00000000
     0.00000000     0.00000000     0.00000000
     0.00000000     0.00000000     0.00000000
     0.00000000     0.00000000     0.00000000
     0.00000000     0.00000000     0.00000000
--------------------------------------------------
 Coupling Information
--------------------------------------------------
 between  1 and  2 states
--------------------------------------------------
 g vector - difference gradient
     0.05364326     0.15089316    -0.33849884
    -0.22772788    -0.10555625     0.16099498
     0.18241693     0.18606517     0.06900774
     0.15970416     0.12226891    -0.12785250
     0.01418397    -0.10766306     0.04769453
    -0.18222044    -0.24600793     0.18865409

 h vector - derivative coupling
     0.01526786     0.00010848    -0.01080529
    -0.00446785    -0.01084645     0.01312085
     0.00489661     0.00720535     0.00765541
    -0.01165575    -0.00032966    -0.00470775
     0.00599175     0.01092453    -0.00911756
    -0.01003261    -0.00706225     0.00385434

 G vector - GDV
     0.00000000     0.00000000     0.00000000
     0.00000000     0.00000000     0.00000000
     0.00000000     0.00000000     0.00000000
     0.00000000     0.00000000     0.00000000
     0.00000000     0.00000000     0.00000000
     0.00000000     0.00000000     0.00000000

 H vector - DCV - non-adiabatic coupling
     0.00000000     0.00000000     0.00000000
     0.00000000     0.00000000     0.00000000
     0.00000000     0.00000000     0.00000000
     0.00000000     0.00000000     0.00000000
     0.00000000     0.00000000     0.00000000
     0.00000000     0.00000000     0.00000000
--------------------------------------------------

WARNING!
-> SCC is NOT converged, maximal SCC iterations exceeded

--------------------------------------------------------------------------------
DFTB+ running times                          cpu [s]             wall clock [s]
--------------------------------------------------------------------------------
SCC                                    +     0.39  ( 96.7%)      0.39  ( 96.0%)
      Sparse to dense                        0.02  (  4.9%)      0.02  (  5.9%)
      Dense to sparse                        0.07  ( 16.4%)      0.07  ( 17.0%)
      Range separated Hamiltonian            0.03  (  6.7%)      0.03  (  6.9%)
  Density matrix creation                    0.05  ( 12.5%)      0.05  ( 12.1%)
  Force calculation                          0.01  (  3.0%)      0.01  (  3.0%)
--------------------------------------------------------------------------------
Missing                                +     0.01  (  3.3%)      0.02  (  4.0%)
Total                                  =     0.40  (100.0%)      0.41  (100.0%)
--------------------------------------------------------------------------------
