 Fermi distribution function

Calculation with static geometry


********************************************************************************
 iSCC Total electronic   Diff electronic      SCC error    
   14   -0.52561147E+01   -0.12168044E-12    0.14713031E-09
********************************************************************************

 Total charge:     1.00000000

 Atomic gross charges (e)
 Atom           Charge
    1       0.30829161
    2      -0.19735266
    3       0.18068333
    4       0.25877651
    5       0.26627191
    6       0.18332930

Nr. of electrons (up):     12.00000000
Atom populations (up)
 Atom       Population
    1       3.69170839
    2       5.19735266
    3       0.81931667
    4       0.74122349
    5       0.73372809
    6       0.81667070

l-shell populations (up)
 Atom Sh.   l       Population
    1   1   0       1.41589537
    1   2   1       2.27581302
    2   1   0       1.53028283
    2   2   1       3.66706983
    3   1   0       0.81931667
    4   1   0       0.74122349
    5   1   0       0.73372809
    6   1   0       0.81667070

Orbital populations (up)
 Atom Sh.   l   m       Population  Label
    1   1   0   0       1.41589537  s
    1   2   1  -1       0.41914995  p_y
    1   2   1   0       0.85936828  p_z
    1   2   1   1       0.99729479  p_x
    2   1   0   0       1.53028283  s
    2   2   1  -1       1.38767729  p_y
    2   2   1   0       1.06424038  p_z
    2   2   1   1       1.21515216  p_x
    3   1   0   0       0.81931667  s
    4   1   0   0       0.74122349  s
    5   1   0   0       0.73372809  s
    6   1   0   0       0.81667070  s

Fermi level:                        -0.5171432766 H          -14.0722 eV
Band energy:                        -8.6325219330 H         -234.9029 eV
TS:                                  0.0000000000 H            0.0000 eV
Band free energy (E-TS):            -8.6325219330 H         -234.9029 eV
Extrapolated E(0K):                 -8.6325219330 H         -234.9029 eV
Input / Output electrons (q):     12.0000000000     12.0000000000

Energy H0:                          -5.3920902561 H         -146.7262 eV
Energy SCC:                          0.1359755658 H            3.7001 eV
Total Electronic energy:            -5.2561146903 H         -143.0262 eV
Repulsive energy:                    0.1313518369 H            3.5743 eV
Total energy:                       -5.1247628534 H         -139.4519 eV
Extrapolated to 0:                  -5.1247628534 H         -139.4519 eV
Total Mermin free energy:           -5.1247628534 H         -139.4519 eV
Force related energy:               -5.1247628534 H         -139.4519 eV

SCC converged

Excitation Energy:                   0.0917747344 H            2.4973 eV

Total Forces
    1      0.002796981816      0.005896554961      0.033977834049
    2     -0.007877570691      0.013449057664     -0.033007058292
    3     -0.004926363162      0.002785045969      0.004245656456
    4      0.001361652809     -0.010523157356      0.002284393336
    5      0.010439538552     -0.000245106930     -0.003293123122
    6     -0.001794239325     -0.011362394308     -0.004207702427

Maximal derivative component:        0.339778E-01 au


