 Fermi distribution function

Calculation with static geometry


********************************************************************************
 iSCC Total electronic   Diff electronic      SCC error    
   11   -0.53756268E+01   -0.22205349E-10    0.24618975E-06
********************************************************************************

 Total charge:     1.00000000

 Atomic gross charges (e)
 Atom           Charge
    1       0.32096936
    2      -0.21140088
    3       0.15420078
    4       0.27436912
    5       0.30697995
    6       0.15488168

Nr. of electrons (up):     12.00000000
Atom populations (up)
 Atom       Population
    1       3.67903064
    2       5.21140088
    3       0.84579922
    4       0.72563088
    5       0.69302005
    6       0.84511832

l-shell populations (up)
 Atom Sh.   l       Population
    1   1   0       1.31275731
    1   2   1       2.36627333
    2   1   0       1.42733841
    2   2   1       3.78406248
    3   1   0       0.84579922
    4   1   0       0.72563088
    5   1   0       0.69302005
    6   1   0       0.84511832

Orbital populations (up)
 Atom Sh.   l   m       Population  Label
    1   1   0   0       1.31275731  s
    1   2   1  -1       0.51401416  p_y
    1   2   1   0       0.89237932  p_z
    1   2   1   1       0.95987985  p_x
    2   1   0   0       1.42733841  s
    2   2   1  -1       1.33661511  p_y
    2   2   1   0       1.07879660  p_z
    2   2   1   1       1.36865077  p_x
    3   1   0   0       0.84579922  s
    4   1   0   0       0.72563088  s
    5   1   0   0       0.69302005  s
    6   1   0   0       0.84511832  s

Fermi level:                        -0.4894665717 H          -13.3191 eV
Band energy:                        -8.8277026128 H         -240.2140 eV
TS:                                  0.0000000000 H            0.0000 eV
Band free energy (E-TS):            -8.8277026128 H         -240.2140 eV
Extrapolated E(0K):                 -8.8277026128 H         -240.2140 eV
Input / Output electrons (q):     12.0000000000     12.0000000000

Energy H0:                          -5.5094546664 H         -149.9199 eV
Energy SCC:                          0.1338278454 H            3.6416 eV
Total Electronic energy:            -5.3756268210 H         -146.2782 eV
Repulsive energy:                    0.1835165472 H            4.9937 eV
Total energy:                       -5.1921102738 H         -141.2845 eV
Extrapolated to 0:                  -5.1921102738 H         -141.2845 eV
Total Mermin free energy:           -5.1921102738 H         -141.2845 eV
Force related energy:               -5.1921102738 H         -141.2845 eV

SCC converged

Excitation Energy:                   0.0922138114 H            2.5093 eV

Total Forces
    1      0.008834259882      0.002302791417      0.031329229558
    2     -0.011246497503      0.014875112249     -0.036705791451
    3     -0.009584047409      0.010555743042      0.002521452981
    4     -0.007395062975     -0.016307298838     -0.001410995850
    5      0.014551154473      0.005263424189      0.000178626629
    6      0.004840193532     -0.016689772059      0.004087478132

Maximal derivative component:        0.367058E-01 au


