|===============================================================================
|
|  DFTB+ release 20.1
|
|  Copyright (C) 2006 - 2020  DFTB+ developers group
|
|===============================================================================
|
|  When publishing results obtained with DFTB+, please cite the following
|  reference:
|
|  * DFTB+, a software package for efficient approximate density functional
|    theory based atomistic simulations, J. Chem. Phys. 152, 124101 (2020).
|    [doi: 10.1063/1.5143190]
|
|  You should also cite additional publications crediting the parametrization
|  data you use. Please consult the documentation of the SK-files for the
|  references.
|
|===============================================================================

Reading input file 'dftb_in.hsd'
Parser version: 8

--------------------------------------------------------------------------------
Reading SK-files:
Done.


Processed input in HSD format written to 'dftb_pin.hsd'

Starting initialization...
--------------------------------------------------------------------------------
OpenMP threads:              1
Chosen random seed:          510965155
Mode:                        Static calculation
Self consistent charges:     Yes
SCC-tolerance:                 0.100000E-05
Max. scc iterations:                   1000
Shell resolved Hubbard:      No
Spin polarisation:           No
Nr. of up electrons:             6.000000
Nr. of down electrons:           6.000000
Periodic boundaries:         No
Electronic solver:           Relatively robust
Maximal SCC-cycles:                    1000
Initial charges:             Set automatically (system chrg:   0.100E+01)
Included shells:             C:  s, p
                             N:  s, p
                             H:  s
Spin coupling constants:     C   1(s)-1(s):  -0.455900E-01
                             C   1(s)-2(p):  -0.293000E-01
                             C   2(p)-1(s):  -0.293000E-01
                             C   2(p)-2(p):  -0.275500E-01
                             N   1(s)-1(s):  -0.468700E-01
                             N   1(s)-2(p):  -0.317000E-01
                             N   2(p)-1(s):  -0.317000E-01
                             N   2(p)-2(p):  -0.307200E-01
                             H   1(s)-1(s):  -0.792500E-01
Range separated hybrid:      Yes
  Screening parameter omega:   0.300000E+00
  Range separated algorithm:   MatrixBased
Extra options:
                             Mulliken analysis
                             Force calculation
Force type                   original
                             Eigenvector printing


REKS Calcuation:             Yes
SSR(2,2) Calcuation:         Yes
Energy Functional:           (PPS+OSS)/2
Number of Core Orbitals:                  5
Number of Active Orbitals:                2
Number of Basis:                         12
Number of States:                         2
State-Averaging Weight:          0.500000
                                 0.500000
State of Interest:                        1
Initial Guess:               Diagonalize H0 matrix
Newton-Raphson for FON opt:  Yes
NR max. Iterations:                      50
Level Shifting:              Yes
Shift Value:                     0.300000
W Scale Factor:              C  =    3.000000
                             N  =    3.000000
                             H  =    3.000000
Transition Dipole:           No
Gradient of Microstate:      No
CP-REKS Solver:              Preconditioned Conjugate-Gradient
CG max. Iterations:                     100
CG Tolerance:                  0.100000E-07
Memory for A and Hxc:        Direct Updating Without Saving
Non-Adiabatic Coupling:      Yes

--------------------------------------------------------------------------------

***  Geometry step: 0

  iSCC       reks energy        Diff energy         x_a       SCC error   
    1       -6.2620257571       0.0000000000     0.999591    1.19114730
    2       -6.2740417050      -0.0120159479     0.999823    0.08943085
    3       -6.2780850157      -0.0040433107     0.999900    0.03756196
    4       -6.2802032665      -0.0021182508     0.999933    0.01787882
    5       -6.2814265077      -0.0012232412     0.999950    0.00867002
    6       -6.2821504279      -0.0007239202     0.999958    0.00769882
    7       -6.2825782783      -0.0004278503     0.999963    0.00645867
    8       -6.2828289199      -0.0002506416     0.999966    0.00521888
    9       -6.2829745115      -0.0001455916     0.999968    0.00411105
   10       -6.2830586295      -0.0000841180     0.999969    0.00318189
   11       -6.2831071443      -0.0000485149     0.999970    0.00243292
   12       -6.2831351666      -0.0000280222     0.999970    0.00184478
   13       -6.2831514185      -0.0000162519     0.999970    0.00139106
   14       -6.2831609009      -0.0000094823     0.999970    0.00106267
   15       -6.2831664738      -0.0000055729     0.999971    0.00086332
   16       -6.2831697752      -0.0000033014     0.999971    0.00070001
   17       -6.2831717470      -0.0000019718     0.999971    0.00056658
   18       -6.2831729341      -0.0000011871     0.999971    0.00045783
   19       -6.2831736541      -0.0000007200     0.999971    0.00036939
   20       -6.2831740938      -0.0000004397     0.999971    0.00029762
   21       -6.2831743640      -0.0000002702     0.999971    0.00023949
   22       -6.2831745309      -0.0000001669     0.999971    0.00019250
   23       -6.2831746345      -0.0000001036     0.999971    0.00015457
   24       -6.2831746991      -0.0000000645     0.999971    0.00012400
   25       -6.2831747394      -0.0000000403     0.999971    0.00009939
   26       -6.2831747647      -0.0000000253     0.999971    0.00008012
   27       -6.2831747806      -0.0000000159     0.999970    0.00006455
   28       -6.2831747906      -0.0000000100     0.999970    0.00005194
   29       -6.2831747969      -0.0000000063     0.999970    0.00004174
   30       -6.2831748009      -0.0000000040     0.999970    0.00003351
   31       -6.2831748034      -0.0000000025     0.999970    0.00002687
   32       -6.2831748050      -0.0000000016     0.999970    0.00002154
   33       -6.2831748060      -0.0000000010     0.999970    0.00001725
   34       -6.2831748066      -0.0000000006     0.999970    0.00001380
   35       -6.2831748070      -0.0000000004     0.999970    0.00001104
   36       -6.2831748073      -0.0000000003     0.999970    0.00000883
   37       -6.2831748074      -0.0000000002     0.999970    0.00000705
   38       -6.2831748075      -0.0000000001     0.999970    0.00000563
   39       -6.2831748076      -0.0000000001     0.999970    0.00000450
   40       -6.2831748077      -0.0000000000     0.999970    0.00000359
   41       -6.2831748077      -0.0000000000     0.999970    0.00000287
   42       -6.2831748077      -0.0000000000     0.999970    0.00000229
   43       -6.2831748077      -0.0000000000     0.999970    0.00000183
   44       -6.2831748077      -0.0000000000     0.999970    0.00000146
   45       -6.2831748077      -0.0000000000     0.999970    0.00000116
   46       -6.2831748077      -0.0000000000     0.999970    0.00000093
  
--------------------------------------------------
 Final SA-REKS(2,2) energy:      -6.28317481
  
 State     Energy      FON(1)    FON(2)   Spin
  PPS   -6.41265884   1.999941  0.000059  0.00
  OSS   -6.15369077   1.000000  1.000000  0.00
 Trip   -6.23199034   1.000000  1.000000  1.00
--------------------------------------------------

 Lagrangian Wab:  -0.00318603 -0.00318591

--------------------------------------------------
 SSR: 2SI-2SA-REKS(2,2) Hamiltonian matrix
               PPS           OSS
   PPS    -6.41265884   -0.00448117
   OSS    -0.00448117   -6.15369077
--------------------------------------------------

----------------------------------------------------------------
 SSR: 2SI-2SA-REKS(2,2) states
                    E_n       C_{PPS}    C_{OSS}
 SSR state  1   -6.41273636  -0.999850  -0.017296
 SSR state  2   -6.15361325   0.017296  -0.999850
----------------------------------------------------------------

 unrelaxed SSR FONs for S0:  1.999642  0.000358

Total Energy:                       -6.4127363618 H         -174.4994 eV
Extrapolated to 0:                  -6.4127363618 H         -174.4994 eV

----------------------------------------------------------------------------------
 Solving CP-REKS equation for  1 state vector...
----------------------------------------------------------------------------------
  CG solver: Constructing Y initial guess
  CG solver: Iteration    1    eps =    0.000051287600
  CG solver: Iteration    2    eps =    0.000012748132
  CG solver: Iteration    3    eps =    0.000000472385
  CG solver: Iteration    4    eps =    0.000000109699
  CG solver: Iteration    5    eps =    0.000000011323
  CG solver: Iteration    6    eps =    0.000000000456
  Convergence reached in CG solver after    6 iterations
  CG solver: Calculating converged R, Z, Q2 matrix
----------------------------------------------------------------------------------

----------------------------------------------------------------------------------
 Solving CP-REKS equation for SI between  1 and  2 state vectors...
----------------------------------------------------------------------------------
  CG solver: Constructing Y initial guess
  CG solver: Iteration    1    eps =    0.000834942423
  CG solver: Iteration    2    eps =    0.000570652858
  CG solver: Iteration    3    eps =    0.000167544267
  CG solver: Iteration    4    eps =    0.000002434311
  CG solver: Iteration    5    eps =    0.000000345342
  CG solver: Iteration    6    eps =    0.000000008586
  Convergence reached in CG solver after    6 iterations
  CG solver: Calculating converged R, Z, Q2 matrix
----------------------------------------------------------------------------------

--------------------------------------------------
 Gradient Information
--------------------------------------------------
           1 st state (SSR)
    -0.00622465    -0.01252942     0.02639702
     0.02100117    -0.00079701    -0.03213353
     0.00757298     0.00124718    -0.00639594
     0.00002588     0.00511147     0.00133713
    -0.01491916     0.00478351     0.00187707
    -0.00745622     0.00218427     0.00891825

           2 st state (SSR)
     0.00616162     0.00095472     0.13518023
    -0.01306354     0.00827927    -0.15792658
    -0.00849390     0.00655120     0.01275071
    -0.00163135    -0.00544226    -0.00797634
     0.01127719     0.00741029    -0.00574922
     0.00574997    -0.01775320     0.02372119
--------------------------------------------------
 Coupling Information
--------------------------------------------------
 between  1 and  2 states
--------------------------------------------------
 g vector - difference gradient
    -0.00614505    -0.00660652    -0.05452357
     0.01716721    -0.00476160     0.06300989
     0.00824946    -0.00267743    -0.00956365
     0.00106536     0.00533674     0.00471334
    -0.01342085    -0.00121743     0.00378745
    -0.00691612     0.00992624    -0.00742345

 h vector - derivative coupling
    -0.00149658    -0.00403320     0.00287230
    -0.00360209     0.00637847    -0.00218761
    -0.00610294     0.00068860    -0.00044514
    -0.00682645    -0.00163891    -0.00155502
     0.00909739    -0.00279531     0.00080832
     0.00893067     0.00140034     0.00050714

 G vector - GDV
    -0.00619314    -0.00674207    -0.05439161
     0.01703235    -0.00453814     0.06289652
     0.00803344    -0.00265201    -0.00957333
     0.00082861     0.00527686     0.00465673
    -0.01309817    -0.00131339     0.00381315
    -0.00660310     0.00996874    -0.00740147

 H vector - DCV - non-adiabatic coupling
    -0.00495186    -0.01467365     0.01835576
    -0.01618420     0.02523643    -0.01684771
    -0.02463932     0.00301321    -0.00044030
    -0.02647086    -0.00703337    -0.00662663
     0.03687875    -0.01061863     0.00261205
     0.03536750     0.00407600     0.00294683
--------------------------------------------------


--------------------------------------------------------------------------------
DFTB+ running times                          cpu [s]             wall clock [s]
--------------------------------------------------------------------------------
SCC                                    +     0.02  ( 64.4%)      0.03  ( 59.5%)
Post-SCC processing                    +     0.01  ( 30.7%)      0.01  ( 28.6%)
--------------------------------------------------------------------------------
Missing                                +     0.00  (  4.8%)      0.00  ( 11.9%)
Total                                  =     0.03  (100.0%)      0.04  (100.0%)
--------------------------------------------------------------------------------
