|===============================================================================
|
|  DFTB+ release 20.1
|
|  Copyright (C) 2006 - 2020  DFTB+ developers group
|
|===============================================================================
|
|  When publishing results obtained with DFTB+, please cite the following
|  reference:
|
|  * DFTB+, a software package for efficient approximate density functional
|    theory based atomistic simulations, J. Chem. Phys. 152, 124101 (2020).
|    [doi: 10.1063/1.5143190]
|
|  You should also cite additional publications crediting the parametrization
|  data you use. Please consult the documentation of the SK-files for the
|  references.
|
|===============================================================================

Reading input file 'dftb_in.hsd'
Parser version: 8

--------------------------------------------------------------------------------
Reading SK-files:
Done.


Processed input in HSD format written to 'dftb_pin.hsd'

Starting initialization...
--------------------------------------------------------------------------------
OpenMP threads:              1
Chosen random seed:          509729283
Mode:                        Static calculation
Self consistent charges:     Yes
SCC-tolerance:                 0.100000E-05
Max. scc iterations:                   1000
Shell resolved Hubbard:      No
Spin polarisation:           No
Nr. of up electrons:             6.000000
Nr. of down electrons:           6.000000
Periodic boundaries:         No
Electronic solver:           Relatively robust
Maximal SCC-cycles:                    1000
Initial charges:             Set automatically (system chrg:   0.100E+01)
Included shells:             C:  s, p
                             N:  s, p
                             H:  s
Spin coupling constants:     C   1(s)-1(s):  -0.455900E-01
                             C   1(s)-2(p):  -0.293000E-01
                             C   2(p)-1(s):  -0.293000E-01
                             C   2(p)-2(p):  -0.275500E-01
                             N   1(s)-1(s):  -0.468700E-01
                             N   1(s)-2(p):  -0.317000E-01
                             N   2(p)-1(s):  -0.317000E-01
                             N   2(p)-2(p):  -0.307200E-01
                             H   1(s)-1(s):  -0.792500E-01
Range separated hybrid:      Yes
  Screening parameter omega:   0.300000E+00
  Range separated algorithm:   MatrixBased
Extra options:
                             Mulliken analysis
                             Force calculation
Force type                   original
                             Eigenvector printing


REKS Calcuation:             Yes
SSR(2,2) Calcuation:         Yes
Energy Functional:           (PPS+OSS)/2
Number of Core Orbitals:                  5
Number of Active Orbitals:                2
Number of Basis:                         12
Number of States:                         2
State-Averaging Weight:          0.500000
                                 0.500000
State of Interest:                        1
Initial Guess:               Diagonalize H0 matrix
Newton-Raphson for FON opt:  Yes
NR max. Iterations:                      50
Level Shifting:              Yes
Shift Value:                     0.300000
W Scale Factor:              C  =    3.000000
                             N  =    3.000000
                             H  =    3.000000
Transition Dipole:           No
Gradient of Microstate:      No
CP-REKS Solver:              Preconditioned Conjugate-Gradient
CG max. Iterations:                     100
CG Tolerance:                  0.100000E-07
Memory for A and Hxc:        Direct Updating Without Saving
Non-Adiabatic Coupling:      Yes

--------------------------------------------------------------------------------

***  Geometry step: 0

  iSCC       reks energy        Diff energy         x_a       SCC error   
    1       -6.2789186013       0.0000000000     0.999951    1.20243766
    2       -6.2830397602      -0.0041211589     0.999964    0.02420881
    3       -6.2841657961      -0.0011260360     0.999970    0.00970454
    4       -6.2845876052      -0.0004218091     0.999973    0.00560528
    5       -6.2847668906      -0.0001792853     0.999975    0.00431090
    6       -6.2848484271      -0.0000815366     0.999976    0.00318682
    7       -6.2848869401      -0.0000385130     0.999976    0.00229965
    8       -6.2849055567      -0.0000186166     0.999977    0.00163456
    9       -6.2849147027      -0.0000091460     0.999977    0.00115065
   10       -6.2849192559      -0.0000045532     0.999977    0.00080492
   11       -6.2849215507      -0.0000022948     0.999977    0.00056071
   12       -6.2849227217      -0.0000011709     0.999977    0.00040058
   13       -6.2849233269      -0.0000006052     0.999977    0.00031192
   14       -6.2849236439      -0.0000003170     0.999977    0.00024288
   15       -6.2849238123      -0.0000001684     0.999977    0.00018911
   16       -6.2849239030      -0.0000000907     0.999977    0.00014725
   17       -6.2849239526      -0.0000000496     0.999977    0.00011466
   18       -6.2849239801      -0.0000000275     0.999977    0.00008930
   19       -6.2849239956      -0.0000000155     0.999977    0.00006956
   20       -6.2849240044      -0.0000000088     0.999977    0.00005420
   21       -6.2849240094      -0.0000000051     0.999977    0.00004224
   22       -6.2849240124      -0.0000000029     0.999977    0.00003293
   23       -6.2849240141      -0.0000000017     0.999977    0.00002568
   24       -6.2849240151      -0.0000000010     0.999977    0.00002003
   25       -6.2849240157      -0.0000000006     0.999977    0.00001562
   26       -6.2849240161      -0.0000000004     0.999977    0.00001219
   27       -6.2849240163      -0.0000000002     0.999977    0.00000951
   28       -6.2849240165      -0.0000000001     0.999977    0.00000743
   29       -6.2849240165      -0.0000000001     0.999977    0.00000580
   30       -6.2849240166      -0.0000000000     0.999977    0.00000453
   31       -6.2849240166      -0.0000000000     0.999977    0.00000354
   32       -6.2849240166      -0.0000000000     0.999977    0.00000276
   33       -6.2849240166      -0.0000000000     0.999977    0.00000216
   34       -6.2849240166      -0.0000000000     0.999977    0.00000169
   35       -6.2849240166      -0.0000000000     0.999977    0.00000132
   36       -6.2849240167      -0.0000000000     0.999977    0.00000103
   37       -6.2849240167      -0.0000000000     0.999977    0.00000081
  
--------------------------------------------------
 Final SA-REKS(2,2) energy:      -6.28492402
  
 State     Energy      FON(1)    FON(2)   Spin
  PPS   -6.41748319   1.999955  0.000045  0.00
  OSS   -6.15236484   1.000000  1.000000  0.00
 Trip   -6.23006599   1.000000  1.000000  1.00
--------------------------------------------------

 Lagrangian Wab:   0.00042184  0.00042184

--------------------------------------------------
 SSR: 2SI-2SA-REKS(2,2) Hamiltonian matrix
               PPS           OSS
   PPS    -6.41748319    0.00059373
   OSS     0.00059373   -6.15236484
--------------------------------------------------

----------------------------------------------------------------
 SSR: 2SI-2SA-REKS(2,2) states
                    E_n       C_{PPS}    C_{OSS}
 SSR state  1   -6.41748452  -0.999997   0.002239
 SSR state  2   -6.15236351  -0.002239  -0.999997
----------------------------------------------------------------

 unrelaxed SSR FONs for S0:  1.999950  0.000050

Total Energy:                       -6.4174845241 H         -174.6286 eV
Extrapolated to 0:                  -6.4174845241 H         -174.6286 eV

----------------------------------------------------------------------------------
 Solving CP-REKS equation for  1 state vector...
----------------------------------------------------------------------------------
  CG solver: Constructing Y initial guess
  CG solver: Iteration    1    eps =    0.000034144314
  CG solver: Iteration    2    eps =    0.000002116855
  CG solver: Iteration    3    eps =    0.000000305309
  CG solver: Iteration    4    eps =    0.000000003164
  Convergence reached in CG solver after    4 iterations
  CG solver: Calculating converged R, Z, Q2 matrix
----------------------------------------------------------------------------------

----------------------------------------------------------------------------------
 Solving CP-REKS equation for SI between  1 and  2 state vectors...
----------------------------------------------------------------------------------
  CG solver: Constructing Y initial guess
  CG solver: Iteration    1    eps =    0.000286556171
  CG solver: Iteration    2    eps =    0.000076368237
  CG solver: Iteration    3    eps =    0.000009325447
  CG solver: Iteration    4    eps =    0.000000725258
  CG solver: Iteration    5    eps =    0.000000009099
  Convergence reached in CG solver after    5 iterations
  CG solver: Calculating converged R, Z, Q2 matrix
----------------------------------------------------------------------------------

--------------------------------------------------
 Gradient Information
--------------------------------------------------
           1 st state (SSR)
     0.00065368    -0.00158737     0.03661420
    -0.00019317     0.00113983    -0.03709813
    -0.00534512    -0.00054948    -0.00798465
    -0.00053083     0.00110539     0.00832284
     0.00057178    -0.00139147     0.00736770
     0.00484366     0.00128310    -0.00722197

           2 st state (SSR)
    -0.00079951    -0.00682402     0.14300814
     0.00009266     0.00811689    -0.16766795
    -0.01768085     0.00107409     0.01420137
    -0.00660970    -0.00084282    -0.00178152
     0.00711488     0.00080969    -0.00234691
     0.01788252    -0.00233383     0.01458687
--------------------------------------------------
 Coupling Information
--------------------------------------------------
 between  1 and  2 states
--------------------------------------------------
 g vector - difference gradient
     0.00072625     0.00261775    -0.05319696
    -0.00014219    -0.00348870     0.06528482
     0.00616792    -0.00083542    -0.01109440
     0.00303920     0.00100004     0.00505361
    -0.00327185    -0.00112647     0.00485656
    -0.00651934     0.00183279    -0.01090363

 h vector - derivative coupling
    -0.00007820    -0.00013365     0.00012119
     0.00016170    -0.00002836    -0.00016567
    -0.00000125    -0.00527564    -0.00028561
    -0.00005885     0.00578701     0.00030658
    -0.00005943    -0.00577722    -0.00017778
     0.00003603     0.00542785     0.00020128

 G vector - GDV
     0.00072660     0.00261833    -0.05319697
    -0.00014292    -0.00348853     0.06528491
     0.00616786    -0.00081178    -0.01109301
     0.00303944     0.00097411     0.00505218
    -0.00327155    -0.00110058     0.00485731
    -0.00651943     0.00180846    -0.01090442

 H vector - DCV - non-adiabatic coupling
    -0.00028267    -0.00045987    -0.00044159
     0.00060749    -0.00016589     0.00047803
     0.00009949    -0.01991290    -0.00126468
    -0.00017064     0.02184449     0.00124176
    -0.00027945    -0.02180968    -0.00058851
     0.00002578     0.02050386     0.00057499
--------------------------------------------------


--------------------------------------------------------------------------------
DFTB+ running times                          cpu [s]             wall clock [s]
--------------------------------------------------------------------------------
SCC                                    +     0.02  ( 60.6%)      0.02  ( 55.9%)
Post-SCC processing                    +     0.01  ( 34.4%)      0.01  ( 32.4%)
--------------------------------------------------------------------------------
Missing                                +     0.00  (  5.0%)      0.00  ( 11.8%)
Total                                  =     0.03  (100.0%)      0.03  (100.0%)
--------------------------------------------------------------------------------
