|===============================================================================
|
|  DFTB+ release 20.1
|
|  Copyright (C) 2006 - 2020  DFTB+ developers group
|
|===============================================================================
|
|  When publishing results obtained with DFTB+, please cite the following
|  reference:
|
|  * DFTB+, a software package for efficient approximate density functional
|    theory based atomistic simulations, J. Chem. Phys. 152, 124101 (2020).
|    [doi: 10.1063/1.5143190]
|
|  You should also cite additional publications crediting the parametrization
|  data you use. Please consult the documentation of the SK-files for the
|  references.
|
|===============================================================================

Reading input file 'dftb_in.hsd'
Parser version: 8

--------------------------------------------------------------------------------
Reading SK-files:
Done.


Processed input in HSD format written to 'dftb_pin.hsd'

Starting initialization...
--------------------------------------------------------------------------------
OpenMP threads:              1
Chosen random seed:          511563219
Mode:                        Static calculation
Self consistent charges:     Yes
SCC-tolerance:                 0.100000E-05
Max. scc iterations:                   1000
Shell resolved Hubbard:      No
Spin polarisation:           No
Nr. of up electrons:             6.000000
Nr. of down electrons:           6.000000
Periodic boundaries:         No
Electronic solver:           Relatively robust
Maximal SCC-cycles:                    1000
Initial charges:             Set automatically (system chrg:   0.100E+01)
Included shells:             C:  s, p
                             N:  s, p
                             H:  s
Spin coupling constants:     C   1(s)-1(s):  -0.455900E-01
                             C   1(s)-2(p):  -0.293000E-01
                             C   2(p)-1(s):  -0.293000E-01
                             C   2(p)-2(p):  -0.275500E-01
                             N   1(s)-1(s):  -0.468700E-01
                             N   1(s)-2(p):  -0.317000E-01
                             N   2(p)-1(s):  -0.317000E-01
                             N   2(p)-2(p):  -0.307200E-01
                             H   1(s)-1(s):  -0.792500E-01
Range separated hybrid:      Yes
  Screening parameter omega:   0.300000E+00
  Range separated algorithm:   MatrixBased
Extra options:
                             Mulliken analysis
                             Force calculation
Force type                   original
                             Eigenvector printing


REKS Calcuation:             Yes
SSR(2,2) Calcuation:         Yes
Energy Functional:           (PPS+OSS)/2
Number of Core Orbitals:                  5
Number of Active Orbitals:                2
Number of Basis:                         12
Number of States:                         2
State-Averaging Weight:          0.500000
                                 0.500000
State of Interest:                        1
Initial Guess:               Diagonalize H0 matrix
Newton-Raphson for FON opt:  Yes
NR max. Iterations:                      50
Level Shifting:              Yes
Shift Value:                     0.300000
W Scale Factor:              C  =    3.000000
                             N  =    3.000000
                             H  =    3.000000
Transition Dipole:           No
Gradient of Microstate:      No
CP-REKS Solver:              Preconditioned Conjugate-Gradient
CG max. Iterations:                     100
CG Tolerance:                  0.100000E-07
Memory for A and Hxc:        Direct Updating Without Saving
Non-Adiabatic Coupling:      Yes

--------------------------------------------------------------------------------

***  Geometry step: 0

  iSCC       reks energy        Diff energy         x_a       SCC error   
    1       -6.2638428966       0.0000000000     0.999344    1.19037666
    2       -6.2765949050      -0.0127520084     0.999725    0.09860077
    3       -6.2804775978      -0.0038826928     0.999845    0.04257146
    4       -6.2823771898      -0.0018995920     0.999897    0.02077503
    5       -6.2834557962      -0.0010786064     0.999923    0.01054550
    6       -6.2841156251      -0.0006598289     0.999936    0.00689173
    7       -6.2845325980      -0.0004169730     0.999944    0.00603271
    8       -6.2847986979      -0.0002660998     0.999949    0.00509868
    9       -6.2849685924      -0.0001698945     0.999952    0.00420875
   10       -6.2850768436      -0.0001082512     0.999955    0.00341694
   11       -6.2851457061      -0.0000688625     0.999956    0.00274130
   12       -6.2851894992      -0.0000437932     0.999957    0.00229947
   13       -6.2852173796      -0.0000278804     0.999957    0.00194066
   14       -6.2852351676      -0.0000177880     0.999958    0.00162762
   15       -6.2852465489      -0.0000113813     0.999958    0.00135818
   16       -6.2852538542      -0.0000073053     0.999958    0.00112864
   17       -6.2852585585      -0.0000047043     0.999958    0.00093464
   18       -6.2852615972      -0.0000030387     0.999958    0.00077172
   19       -6.2852635656      -0.0000019684     0.999958    0.00063561
   20       -6.2852648439      -0.0000012783     0.999958    0.00052239
   21       -6.2852656758      -0.0000008319     0.999958    0.00042856
   22       -6.2852662182      -0.0000005424     0.999958    0.00035102
   23       -6.2852665724      -0.0000003542     0.999958    0.00028712
   24       -6.2852668039      -0.0000002316     0.999958    0.00023457
   25       -6.2852669554      -0.0000001515     0.999958    0.00019144
   26       -6.2852670547      -0.0000000992     0.999958    0.00015611
   27       -6.2852671197      -0.0000000650     0.999958    0.00012719
   28       -6.2852671624      -0.0000000427     0.999958    0.00010356
   29       -6.2852671904      -0.0000000280     0.999958    0.00008428
   30       -6.2852672087      -0.0000000184     0.999958    0.00006854
   31       -6.2852672208      -0.0000000120     0.999958    0.00005573
   32       -6.2852672287      -0.0000000079     0.999958    0.00004529
   33       -6.2852672339      -0.0000000052     0.999958    0.00003679
   34       -6.2852672373      -0.0000000034     0.999958    0.00002988
   35       -6.2852672395      -0.0000000022     0.999958    0.00002426
   36       -6.2852672410      -0.0000000015     0.999958    0.00001969
   37       -6.2852672420      -0.0000000010     0.999958    0.00001598
   38       -6.2852672426      -0.0000000006     0.999958    0.00001297
   39       -6.2852672430      -0.0000000004     0.999958    0.00001052
   40       -6.2852672433      -0.0000000003     0.999958    0.00000854
   41       -6.2852672435      -0.0000000002     0.999958    0.00000692
   42       -6.2852672436      -0.0000000001     0.999958    0.00000562
   43       -6.2852672437      -0.0000000001     0.999958    0.00000455
   44       -6.2852672437      -0.0000000001     0.999958    0.00000369
   45       -6.2852672438      -0.0000000000     0.999958    0.00000299
   46       -6.2852672438      -0.0000000000     0.999958    0.00000243
   47       -6.2852672438      -0.0000000000     0.999958    0.00000197
   48       -6.2852672438      -0.0000000000     0.999958    0.00000160
   49       -6.2852672438      -0.0000000000     0.999958    0.00000129
   50       -6.2852672438      -0.0000000000     0.999958    0.00000105
   51       -6.2852672438      -0.0000000000     0.999958    0.00000085
  
--------------------------------------------------
 Final SA-REKS(2,2) energy:      -6.28526724
  
 State     Energy      FON(1)    FON(2)   Spin
  PPS   -6.41289549   1.999917  0.000083  0.00
  OSS   -6.15763900   1.000000  1.000000  0.00
 Trip   -6.23793644   1.000000  1.000000  1.00
--------------------------------------------------

 Lagrangian Wab:  -0.00495266 -0.00495249

--------------------------------------------------
 SSR: 2SI-2SA-REKS(2,2) Hamiltonian matrix
               PPS           OSS
   PPS    -6.41289549   -0.00695879
   OSS    -0.00695879   -6.15763900
--------------------------------------------------

----------------------------------------------------------------
 SSR: 2SI-2SA-REKS(2,2) states
                    E_n       C_{PPS}    C_{OSS}
 SSR state  1   -6.41308506  -0.999629  -0.027232
 SSR state  2   -6.15744943   0.027232  -0.999629
----------------------------------------------------------------

 unrelaxed SSR FONs for S0:  1.999175  0.000825

Total Energy:                       -6.4130850606 H         -174.5089 eV
Extrapolated to 0:                  -6.4130850606 H         -174.5089 eV

----------------------------------------------------------------------------------
 Solving CP-REKS equation for  1 state vector...
----------------------------------------------------------------------------------
  CG solver: Constructing Y initial guess
  CG solver: Iteration    1    eps =    0.000104350807
  CG solver: Iteration    2    eps =    0.000031866957
  CG solver: Iteration    3    eps =    0.000001332938
  CG solver: Iteration    4    eps =    0.000000456928
  CG solver: Iteration    5    eps =    0.000000009990
  Convergence reached in CG solver after    5 iterations
  CG solver: Calculating converged R, Z, Q2 matrix
----------------------------------------------------------------------------------

----------------------------------------------------------------------------------
 Solving CP-REKS equation for SI between  1 and  2 state vectors...
----------------------------------------------------------------------------------
  CG solver: Constructing Y initial guess
  CG solver: Iteration    1    eps =    0.001573480558
  CG solver: Iteration    2    eps =    0.001608113484
  CG solver: Iteration    3    eps =    0.000326780998
  CG solver: Iteration    4    eps =    0.000003912709
  CG solver: Iteration    5    eps =    0.000000499710
  CG solver: Iteration    6    eps =    0.000000009198
  Convergence reached in CG solver after    6 iterations
  CG solver: Calculating converged R, Z, Q2 matrix
----------------------------------------------------------------------------------

--------------------------------------------------
 Gradient Information
--------------------------------------------------
           1 st state (SSR)
     0.00271704     0.00586084     0.03050639
    -0.00935034    -0.00000019    -0.01937477
     0.01067378    -0.00160172    -0.00242160
     0.01476942    -0.00251178    -0.00379878
    -0.00786564    -0.00125669     0.00088997
    -0.01094426    -0.00049045    -0.00580121

           2 st state (SSR)
    -0.00788999    -0.00635519     0.13333033
     0.01269624     0.00687152    -0.14346595
    -0.00980860     0.00930582     0.01645991
    -0.01190633    -0.00676634    -0.01187830
     0.00645576     0.00602834    -0.00794292
     0.01045292    -0.00908415     0.01349693
--------------------------------------------------
 Coupling Information
--------------------------------------------------
 between  1 and  2 states
--------------------------------------------------
 g vector - difference gradient
     0.00527359     0.00603574    -0.05192574
    -0.01116865    -0.00329485     0.06245147
     0.01084061    -0.00538667    -0.00941702
     0.01399244     0.00199334     0.00405352
    -0.00770790    -0.00363816     0.00448190
    -0.01123010     0.00429061    -0.00964414

 h vector - derivative coupling
     0.00069325     0.00149205     0.00802225
     0.00236565    -0.00267980    -0.00575374
    -0.01071475    -0.00137914    -0.00069258
    -0.01164182     0.00251437    -0.00014246
     0.00984083    -0.00017901    -0.00108026
     0.00945684     0.00023152    -0.00035322

 G vector - GDV
     0.00530352     0.00610802    -0.05141197
    -0.01102329    -0.00343586     0.06204559
     0.01024119    -0.00545377    -0.00944076
     0.01333787     0.00212728     0.00403976
    -0.00716070    -0.00364251     0.00441644
    -0.01069859     0.00429685    -0.00964907

 H vector - DCV - non-adiabatic coupling
     0.00158471     0.00454255     0.04239374
     0.01161888    -0.00976562    -0.03577456
    -0.04416072    -0.00423974    -0.00069966
    -0.04845313     0.00939665    -0.00141973
     0.04008001     0.00007562    -0.00517403
     0.03933025    -0.00000945     0.00067423
--------------------------------------------------


--------------------------------------------------------------------------------
DFTB+ running times                          cpu [s]             wall clock [s]
--------------------------------------------------------------------------------
SCC                                    +     0.02  ( 64.6%)      0.02  ( 60.0%)
Post-SCC processing                    +     0.01  ( 31.6%)      0.01  ( 30.0%)
  Force calculation                          0.01  ( 31.1%)      0.01  ( 27.5%)
--------------------------------------------------------------------------------
Missing                                +     0.00  (  3.8%)      0.00  ( 10.0%)
Total                                  =     0.03  (100.0%)      0.04  (100.0%)
--------------------------------------------------------------------------------
