|===============================================================================
|
|  DFTB+ release 20.1
|
|  Copyright (C) 2006 - 2020  DFTB+ developers group
|
|===============================================================================
|
|  When publishing results obtained with DFTB+, please cite the following
|  reference:
|
|  * DFTB+, a software package for efficient approximate density functional
|    theory based atomistic simulations, J. Chem. Phys. 152, 124101 (2020).
|    [doi: 10.1063/1.5143190]
|
|  You should also cite additional publications crediting the parametrization
|  data you use. Please consult the documentation of the SK-files for the
|  references.
|
|===============================================================================

Reading input file 'dftb_in.hsd'
Parser version: 8

--------------------------------------------------------------------------------
Reading SK-files:
Done.


Processed input in HSD format written to 'dftb_pin.hsd'

Starting initialization...
--------------------------------------------------------------------------------
WARNING!
-> Excited state forces are not implemented yet for fractional occupations, kT=  0.3158E-02K
OpenMP threads:              1
Chosen random seed:          505978293
Mode:                        Static calculation
Self consistent charges:     Yes
SCC-tolerance:                 0.100000E-05
Max. scc iterations:                    100
Shell resolved Hubbard:      No
Spin polarisation:           No
Nr. of up electrons:             6.000000
Nr. of down electrons:           6.000000
Periodic boundaries:         No
Electronic solver:           Relatively robust
Mixer:                       Broyden mixer
Mixing parameter:                  0.200000
Maximal SCC-cycles:                     100
Nr. of chrg. vec. in memory:              0
Electronic temperature:        0.100000E-07 H      0.272114E-06 eV
Initial charges:             Set automatically (system chrg:   0.100E+01)
Included shells:             C:  s, p
                             N:  s, p
                             H:  s
Extra options:
                             Mulliken analysis
                             Force calculation
Force type                   original
                             Eigenvector printing

--------------------------------------------------------------------------------

***  Geometry step: 0

 iSCC Total electronic   Diff electronic      SCC error    
    1   -0.52384410E+01    0.00000000E+00    0.11257462E+01
    2   -0.52663411E+01   -0.27900121E-01    0.67619808E+00
    3   -0.52734133E+01   -0.70721926E-02    0.32122476E+00
    4   -0.47158765E+01    0.55753680E+00    0.25359164E+01
    5   -0.52789412E+01   -0.56306469E+00    0.59080527E-02
    6   -0.52787619E+01    0.17930215E-03    0.48118721E-01
    7   -0.52789425E+01   -0.18064858E-03    0.16905902E-02
    8   -0.52789421E+01    0.43183452E-06    0.31187772E-02
    9   -0.52789427E+01   -0.66359963E-06    0.12595627E-02
   10   -0.52789429E+01   -0.13133648E-06    0.60268087E-04
   11   -0.52789429E+01    0.22884938E-08    0.16425187E-03
   12   -0.52789429E+01   -0.25178482E-08    0.58839692E-05
   13   -0.52789429E+01   -0.31290526E-11    0.10432963E-07
>> Charges saved for restart in charges.bin

Total Energy:                       -5.0382899506 H         -137.0988 eV
Extrapolated to 0:                  -5.1485685907 H         -140.0997 eV
Total Mermin free energy:           -5.0382899506 H         -137.0988 eV
Force related energy:               -5.1485685907 H         -140.0997 eV

--------------------------------------------------------------------------------
DFTB+ running times                          cpu [s]             wall clock [s]
--------------------------------------------------------------------------------
SCC                                    +     0.01  ( 45.9%)      0.03  ( 65.4%)
Post-SCC processing                    +     0.01  ( 46.9%)      0.01  ( 28.8%)
--------------------------------------------------------------------------------
Missing                                +     0.00  (  7.1%)      0.00  (  5.8%)
Total                                  =     0.02  (100.0%)      0.05  (100.0%)
--------------------------------------------------------------------------------
