 Fermi distribution function

Calculation with static geometry


********************************************************************************
 iSCC Total electronic   Diff electronic      SCC error    
   12   -0.53321447E+01   -0.41204613E-08    0.10323166E-06
********************************************************************************

 Total charge:     1.00000000

 Atomic gross charges (e)
 Atom           Charge
    1       0.32937641
    2      -0.21764160
    3       0.15969121
    4       0.26312462
    5       0.29651355
    6       0.16893582

Nr. of electrons (up):     12.00000000
Atom populations (up)
 Atom       Population
    1       3.67062359
    2       5.21764160
    3       0.84030879
    4       0.73687538
    5       0.70348645
    6       0.83106418

l-shell populations (up)
 Atom Sh.   l       Population
    1   1   0       1.34391936
    1   2   1       2.32670423
    2   1   0       1.46549577
    2   2   1       3.75214584
    3   1   0       0.84030879
    4   1   0       0.73687538
    5   1   0       0.70348645
    6   1   0       0.83106418

Orbital populations (up)
 Atom Sh.   l   m       Population  Label
    1   1   0   0       1.34391936  s
    1   2   1  -1       0.50743063  p_y
    1   2   1   0       0.89262300  p_z
    1   2   1   1       0.92665060  p_x
    2   1   0   0       1.46549577  s
    2   2   1  -1       1.32337986  p_y
    2   2   1   0       1.12273856  p_z
    2   2   1   1       1.30602742  p_x
    3   1   0   0       0.84030879  s
    4   1   0   0       0.73687538  s
    5   1   0   0       0.70348645  s
    6   1   0   0       0.83106418  s

Fermi level:                        -0.5018021934 H          -13.6547 eV
Band energy:                        -8.7799924304 H         -238.9157 eV
TS:                                  0.0000000000 H            0.0000 eV
Band free energy (E-TS):            -8.7799924304 H         -238.9157 eV
Extrapolated E(0K):                 -8.7799924304 H         -238.9157 eV
Input / Output electrons (q):     12.0000000000     12.0000000000

Energy H0:                          -5.4684903725 H         -148.8052 eV
Energy SCC:                          0.1363457112 H            3.7102 eV
Total Electronic energy:            -5.3321446612 H         -145.0950 eV
Repulsive energy:                    0.1613806197 H            4.3914 eV
Total energy:                       -5.1707640416 H         -140.7036 eV
Extrapolated to 0:                  -5.1707640416 H         -140.7036 eV
Total Mermin free energy:           -5.1707640416 H         -140.7036 eV
Force related energy:               -5.1707640416 H         -140.7036 eV

SCC converged

Excitation Energy:                   0.0894039980 H            2.4328 eV

Total Forces
    1      0.009460733508     -0.011836308248      0.061808321750
    2     -0.011534161224     -0.010302763755     -0.067534041158
    3     -0.010906103425     -0.006530831055     -0.000759807102
    4     -0.003413064659      0.018199198627      0.000967712414
    5      0.011408242941     -0.006126772993      0.001901185351
    6      0.004984352858      0.016597477424      0.003616628746

Maximal derivative component:        0.675340E-01 au


