|===============================================================================
|
|  DFTB+ release 20.1
|
|  Copyright (C) 2006 - 2020  DFTB+ developers group
|
|===============================================================================
|
|  When publishing results obtained with DFTB+, please cite the following
|  reference:
|
|  * DFTB+, a software package for efficient approximate density functional
|    theory based atomistic simulations, J. Chem. Phys. 152, 124101 (2020).
|    [doi: 10.1063/1.5143190]
|
|  You should also cite additional publications crediting the parametrization
|  data you use. Please consult the documentation of the SK-files for the
|  references.
|
|===============================================================================

Reading input file 'dftb_in.hsd'
Parser version: 8

--------------------------------------------------------------------------------
Reading SK-files:
Done.


Processed input in HSD format written to 'dftb_pin.hsd'

Starting initialization...
--------------------------------------------------------------------------------
WARNING!
-> Excited state forces are not implemented yet for fractional occupations, kT=  0.3158E-02K
OpenMP threads:              1
Chosen random seed:          509072094
Mode:                        Static calculation
Self consistent charges:     Yes
SCC-tolerance:                 0.100000E-05
Max. scc iterations:                    100
Shell resolved Hubbard:      No
Spin polarisation:           No
Nr. of up electrons:             6.000000
Nr. of down electrons:           6.000000
Periodic boundaries:         No
Electronic solver:           Relatively robust
Mixer:                       Broyden mixer
Mixing parameter:                  0.200000
Maximal SCC-cycles:                     100
Nr. of chrg. vec. in memory:              0
Electronic temperature:        0.100000E-07 H      0.272114E-06 eV
Initial charges:             Set automatically (system chrg:   0.100E+01)
Included shells:             C:  s, p
                             N:  s, p
                             H:  s
Extra options:
                             Mulliken analysis
                             Force calculation
Force type                   original
                             Eigenvector printing

--------------------------------------------------------------------------------

***  Geometry step: 0

 iSCC Total electronic   Diff electronic      SCC error    
    1   -0.53102619E+01    0.00000000E+00    0.10000446E+01
    2   -0.53228743E+01   -0.12612402E-01    0.66801995E+00
    3   -0.53304187E+01   -0.75443982E-02    0.18218650E+00
    4   -0.52861142E+01    0.44304512E-01    0.75394285E+00
    5   -0.53321385E+01   -0.46024314E-01    0.65077215E-02
    6   -0.53321190E+01    0.19537064E-04    0.22454364E-01
    7   -0.53321371E+01   -0.18141269E-04    0.11210816E-01
    8   -0.53321426E+01   -0.54608625E-05    0.58041917E-02
    9   -0.53321441E+01   -0.14756142E-05    0.31018113E-02
   10   -0.53321446E+01   -0.56821926E-06    0.59476870E-03
   11   -0.53321447E+01   -0.18523414E-07    0.25300916E-03
   12   -0.53321447E+01   -0.41204613E-08    0.10323166E-06
>> Charges saved for restart in charges.bin

Total Energy:                       -5.0813600435 H         -138.2708 eV
Extrapolated to 0:                  -5.1707640416 H         -140.7036 eV
Total Mermin free energy:           -5.0813600435 H         -138.2708 eV
Force related energy:               -5.1707640416 H         -140.7036 eV

--------------------------------------------------------------------------------
DFTB+ running times                          cpu [s]             wall clock [s]
--------------------------------------------------------------------------------
SCC                                    +     0.01  ( 66.0%)      0.04  ( 67.3%)
Post-SCC processing                    +     0.00  ( 22.4%)      0.01  ( 23.6%)
--------------------------------------------------------------------------------
Missing                                +     0.00  ( 11.6%)      0.00  (  9.1%)
Total                                  =     0.02  (100.0%)      0.05  (100.0%)
--------------------------------------------------------------------------------
