|===============================================================================
|
|  DFTB+ release 20.1
|
|  Copyright (C) 2006 - 2020  DFTB+ developers group
|
|===============================================================================
|
|  When publishing results obtained with DFTB+, please cite the following
|  reference:
|
|  * DFTB+, a software package for efficient approximate density functional
|    theory based atomistic simulations, J. Chem. Phys. 152, 124101 (2020).
|    [doi: 10.1063/1.5143190]
|
|  You should also cite additional publications crediting the parametrization
|  data you use. Please consult the documentation of the SK-files for the
|  references.
|
|===============================================================================

Reading input file 'dftb_in.hsd'
Parser version: 8

--------------------------------------------------------------------------------
Reading SK-files:
Done.


Processed input in HSD format written to 'dftb_pin.hsd'

Starting initialization...
--------------------------------------------------------------------------------
WARNING!
-> Excited state forces are not implemented yet for fractional occupations, kT=  0.3158E-02K
OpenMP threads:              1
Chosen random seed:          509070628
Mode:                        Static calculation
Self consistent charges:     Yes
SCC-tolerance:                 0.100000E-05
Max. scc iterations:                    100
Shell resolved Hubbard:      No
Spin polarisation:           No
Nr. of up electrons:             6.000000
Nr. of down electrons:           6.000000
Periodic boundaries:         No
Electronic solver:           Relatively robust
Mixer:                       Broyden mixer
Mixing parameter:                  0.200000
Maximal SCC-cycles:                     100
Nr. of chrg. vec. in memory:              0
Electronic temperature:        0.100000E-07 H      0.272114E-06 eV
Initial charges:             Set automatically (system chrg:   0.100E+01)
Included shells:             C:  s, p
                             N:  s, p
                             H:  s
Extra options:
                             Mulliken analysis
                             Force calculation
Force type                   original
                             Eigenvector printing

--------------------------------------------------------------------------------

***  Geometry step: 0

 iSCC Total electronic   Diff electronic      SCC error    
    1   -0.52442016E+01    0.00000000E+00    0.10919516E+01
    2   -0.52663883E+01   -0.22186693E-01    0.69361326E+00
    3   -0.52744242E+01   -0.80358497E-02    0.30280970E+00
    4   -0.50393257E+01    0.23509848E+00    0.15381478E+01
    5   -0.52755137E+01   -0.23618800E+00    0.21357811E+00
    6   -0.52799538E+01   -0.44400892E-02    0.12440846E-01
    7   -0.52799672E+01   -0.13419705E-04    0.49075181E-02
    8   -0.52799666E+01    0.64041147E-06    0.59281447E-02
    9   -0.52799670E+01   -0.43296990E-06    0.53739191E-02
   10   -0.52799691E+01   -0.21319053E-05    0.18797350E-02
   11   -0.52799693E+01   -0.17121608E-06    0.12564436E-02
   12   -0.52799695E+01   -0.13532558E-06    0.80226280E-05
   13   -0.52799695E+01   -0.42135184E-11    0.10798169E-05
   14   -0.52799695E+01   -0.10214052E-12    0.14877113E-08
>> Charges saved for restart in charges.bin

Total Energy:                       -5.0518134020 H         -137.4668 eV
Extrapolated to 0:                  -5.1395553589 H         -139.8544 eV
Total Mermin free energy:           -5.0518134020 H         -137.4668 eV
Force related energy:               -5.1395553589 H         -139.8544 eV

--------------------------------------------------------------------------------
DFTB+ running times                          cpu [s]             wall clock [s]
--------------------------------------------------------------------------------
SCC                                    +     0.01  ( 67.2%)      0.12  ( 87.0%)
Post-SCC processing                    +     0.00  ( 25.4%)      0.01  (  8.7%)
--------------------------------------------------------------------------------
Missing                                +     0.00  (  7.4%)      0.01  (  4.3%)
Total                                  =     0.02  (100.0%)      0.14  (100.0%)
--------------------------------------------------------------------------------
