     6
  Step:     0            Position(A)                                  Velocity(au)
C        -0.03726940     0.00127343     0.00169582    -0.00011575    -0.00009853    -0.00012622
N        -0.03453990    -0.04637305     1.30734642    -0.00001747     0.00007361     0.00015382
H         0.93381840     0.06956596    -0.55431897     0.00114734     0.00041183    -0.00066726
H         0.78363839    -0.14082469     1.87461876     0.00044985    -0.00034457     0.00017994
H        -1.00544925    -0.04837337     1.87857570    -0.00009632    -0.00025089    -0.00006956
H        -1.00086282     0.07909592    -0.49438761     0.00012122     0.00033480    -0.00007658
     6
  Step:     1            Position(A)                                  Velocity(au)
C        -0.03788985     0.00073211     0.00093574    -0.00011044    -0.00009953    -0.00015150
N        -0.03470693    -0.04596704     1.30828310    -0.00004305     0.00007493     0.00018845
H         0.94003785     0.07185506    -0.55806835     0.00111846     0.00042497    -0.00069841
H         0.78643456    -0.14278956     1.87591095     0.00056625    -0.00037379     0.00028807
H        -1.00523664    -0.04974406     1.87779803     0.00017331    -0.00025051    -0.00021401
H        -1.00037646     0.08095075    -0.49511188     0.00005622     0.00034404    -0.00018910
     6
  Step:     2            Position(A)                                  Velocity(au)
C        -0.03847701     0.00018516     0.00003920    -0.00010379    -0.00010071    -0.00017623
N        -0.03501058    -0.04555374     1.30940706    -0.00006730     0.00007636     0.00022249
H         0.94604817     0.07421281    -0.56195571     0.00107278     0.00043748    -0.00071904
H         0.78983005    -0.14491192     1.87776869     0.00066827    -0.00040243     0.00038599
H        -1.00355419    -0.05111252     1.87623564     0.00043997    -0.00025039    -0.00035584
H        -1.00024813     0.08285778    -0.49645527    -0.00000895     0.00035425    -0.00030284
     6
  Step:     3            Position(A)                                  Velocity(au)
C        -0.03902405    -0.00036842    -0.00099009    -0.00009592    -0.00010202    -0.00020011
N        -0.03544240    -0.04513260     1.31071440    -0.00008980     0.00007784     0.00025563
H         0.95176103     0.07663575    -0.56592589     0.00101096     0.00044915    -0.00072967
H         0.79373734    -0.14718720     1.88012896     0.00075280    -0.00042984     0.00047129
H        -1.00042871    -0.05248023     1.87390945     0.00069994    -0.00025042    -0.00049264
H        -1.00047427     0.08482189    -0.49842131    -0.00007276     0.00036510    -0.00041669
     6
  Step:     4            Position(A)                                  Velocity(au)
C        -0.03952483    -0.00092932    -0.00214685    -0.00008695    -0.00010339    -0.00022281
N        -0.03599160    -0.04470340     1.31219957    -0.00011008     0.00007930     0.00028746
H         0.95709196     0.07911936    -0.56992673     0.00093367     0.00045972    -0.00073075
H         0.79805367    -0.14960758     1.88291706     0.00081713    -0.00045538     0.00054188
H        -0.99590800    -0.05384817     1.87085394     0.00094865    -0.00025051    -0.00062154
H        -1.00104299     0.08684612    -0.50100728    -0.00013359     0.00037618    -0.00052925
     6
  Step:     5            Position(A)                                  Velocity(au)
C        -0.03997389    -0.00149787    -0.00342405    -0.00007703    -0.00010474    -0.00024394
N        -0.03664492    -0.04426630     1.31385465    -0.00012765     0.00008067     0.00031745
H         0.96196044     0.08165775    -0.57390859     0.00084178     0.00046890    -0.00072270
H         0.80266362    -0.15216178     1.88604845     0.00085915    -0.00047837     0.00059610
H        -0.99006573    -0.05521677     1.86711979     0.00118055    -0.00025054    -0.00073913
H        -1.00193356     0.08893123    -0.50420286    -0.00018971     0.00038702    -0.00063887
     6
  Step:     6            Position(A)                                  Velocity(au)
C        -0.04036660    -0.00207389    -0.00481261    -0.00006632    -0.00010597    -0.00026310
N        -0.03738650    -0.04382183     1.31566865    -0.00014199     0.00008188     0.00034494
H         0.96629079     0.08424340    -0.57782422     0.00073639     0.00047634    -0.00070595
H         0.80744230    -0.15483509     1.88943109     0.00087743    -0.00049814     0.00063274
H        -0.98300712    -0.05658599     1.86277690     0.00138912    -0.00025043    -0.00084150
H        -1.00311611     0.09107540    -0.50798875    -0.00023941     0.00039711    -0.00074367
     6
  Step:     7            Position(A)                                  Velocity(au)
C        -0.04069919    -0.00265672    -0.00630124    -0.00005501    -0.00010699    -0.00027984
N        -0.03819774    -0.04337088     1.31762693    -0.00015261     0.00008286     0.00036920
H         0.97001354     0.08686700    -0.58162882     0.00061895     0.00048174    -0.00068105
H         0.81225914    -0.15760944     1.89296800     0.00087137    -0.00051412     0.00065118
H        -0.97487447    -0.05795542     1.85791724     0.00156703    -0.00025014    -0.00092439
H        -1.00455178     0.09327398    -0.51233560    -0.00028107     0.00040592    -0.00084166
     6
  Step:     8            Position(A)                                  Velocity(au)
C        -0.04096889    -0.00324518    -0.00787640    -0.00004331    -0.00010770    -0.00029379
N        -0.03905729    -0.04291467     1.31971077    -0.00015902     0.00008356     0.00038948
H         0.97306720     0.08951753    -0.58528051     0.00049128     0.00048479    -0.00064865
H         0.81698219    -0.16046379     1.89656031     0.00084124    -0.00052582     0.00065142
H        -0.96585093    -0.05932455     1.85265648     0.00170661    -0.00024969    -0.00098343
H        -1.00619334     0.09551946    -0.51720337    -0.00031325     0.00041294    -0.00093081
     6
  Step:     9            Position(A)                                  Velocity(au)
C        -0.04117400    -0.00383761    -0.00952244    -0.00003142    -0.00010805    -0.00030459
N        -0.03994129    -0.04245471     1.32189729    -0.00016082     0.00008394     0.00040505
H         0.97540006     0.09218240    -0.58874089     0.00035556     0.00048528    -0.00060959
H         0.82148273    -0.16337474     1.90011041     0.00078817    -0.00053293     0.00063409
H        -0.95616259    -0.06069307     1.84713458     0.00180039    -0.00024915    -0.00101447
H        -1.00798635     0.09780159    -0.52254135    -0.00033483     0.00041775    -0.00100929
     6
  Step:    10            Position(A)                                  Velocity(au)
C        -0.04131405    -0.00443193    -0.01122188    -0.00001960    -0.00010796    -0.00031199
N        -0.04082368    -0.04199265     1.32415976    -0.00015772     0.00008401     0.00041535
H         0.97697254     0.09484768    -0.59197612     0.00021431     0.00048311    -0.00056490
H         0.82563929    -0.16631739     1.90352495     0.00071431    -0.00053535     0.00060050
H        -0.94607597    -0.06206110     1.84151376     0.00184185    -0.00024869    -0.00101406
H        -1.00987101     0.10010788    -0.52828915    -0.00034512     0.00042002    -0.00107557
     6
  Step:    11            Position(A)                                  Velocity(au)
C        -0.04138972    -0.00502579    -0.01295606    -0.00000806    -0.00010743    -0.00031591
N        -0.04167708    -0.04153018     1.32646834    -0.00014962     0.00008376     0.00041997
H         0.97775862     0.09749928    -0.59495790     0.00007025     0.00047839    -0.00051581
H         0.82934399    -0.16926649     1.90671914     0.00062264    -0.00053321     0.00055262
H        -0.93589222    -0.06342998     1.83597441     0.00182626    -0.00024857    -0.00097983
H        -1.01178449     0.10242407    -0.53437842    -0.00034389     0.00041957    -0.00112860
     6
  Step:    12            Position(A)                                  Velocity(au)
C        -0.04140291    -0.00561674    -0.01470581     0.00000300    -0.00010647    -0.00031638
N        -0.04247376    -0.04106887     1.32879128    -0.00013662     0.00008326     0.00041879
H         0.97774727     0.10012347    -0.59766459    -0.00007385     0.00047133    -0.00046369
H         0.83250590    -0.17219778     1.90961941     0.00051671    -0.00052691     0.00049288
H        -0.92593549    -0.06480241     1.83070798     0.00175141    -0.00024910    -0.00091093
H        -1.01366351     0.10473496    -0.54073562    -0.00033143     0.00041638    -0.00116796
     6
  Step:    13            Position(A)                                  Velocity(au)
C        -0.04135660    -0.00620242    -0.01645226     0.00001338    -0.00010513    -0.00031358
N        -0.04318683    -0.04061005     1.33109632    -0.00011903     0.00008258     0.00041197
H         0.97694256     0.10270783    -0.60008205    -0.00021536     0.00046232    -0.00041000
H         0.83505406    -0.17508930     1.91216586     0.00040041    -0.00051708     0.00042400
H        -0.91653782    -0.06618277     1.82590787     0.00161809    -0.00025062    -0.00080830
H        -1.01544703     0.10702540    -0.54728533    -0.00030844     0.00041061    -0.00119388
     6
  Step:    14            Position(A)                                  Velocity(au)
C        -0.04125480    -0.00678073    -0.01817767     0.00002294    -0.00010349    -0.00030785
N        -0.04379160    -0.04015462     1.33335243    -0.00009739     0.00008179     0.00039992
H         0.97536293     0.10524210    -0.60220399    -0.00035198     0.00045187    -0.00035619
H         0.83693907    -0.17792263     1.91431377     0.00027767    -0.00050449     0.00034882
H        -0.90802067    -0.06757713     1.82175883     0.00143033    -0.00025343    -0.00067465
H        -1.01707847     0.10928111    -0.55395373    -0.00027597     0.00040255    -0.00120714
     6
  Step:    15            Position(A)                                  Velocity(au)
C        -0.04110226    -0.00735001    -0.01986608     0.00003156    -0.00010163    -0.00029956
N        -0.04426680    -0.03970301     1.33553123    -0.00007243     0.00008101     0.00038330
H         0.97303936     0.10771880    -0.60403195    -0.00048184     0.00044056    -0.00030358
H         0.83813329    -0.18068382     1.91603403     0.00015225    -0.00049008     0.00027010
H        -0.90067630    -0.06899311     1.81842642     0.00119518    -0.00025779    -0.00051438
H        -1.01850735     0.11148945    -0.56067172    -0.00023524     0.00039258    -0.00120900
     6
  Step:    16            Position(A)                                  Velocity(au)
C        -0.04090433    -0.00790914    -0.02150374     0.00003919    -0.00009967    -0.00028916
N        -0.04459574    -0.03925515     1.33760826    -0.00004502     0.00008032     0.00036289
H         0.97001303     0.11013372    -0.60557469    -0.00060353     0.00042900    -0.00025336
H         0.83862957    -0.18336401     1.91731268     0.00002753    -0.00047477     0.00019038
H        -0.89475052    -0.07043936     1.81604763     0.00092218    -0.00026383    -0.00033323
H        -1.01969038     0.11363993    -0.56737739    -0.00018757     0.00038110    -0.00120099
     6
  Step:    17            Position(A)                                  Velocity(au)
C        -0.04066673    -0.00845757    -0.02307928     0.00004578    -0.00009770    -0.00027704
N        -0.04476707    -0.03881047     1.33956375    -0.00001615     0.00007980     0.00033954
H         0.96633284     0.11248597    -0.60684733    -0.00071602     0.00041775    -0.00020649
H         0.83843918    -0.18595957     1.91814959    -0.00009358    -0.00045947     0.00011191
H        -0.89042880    -0.07192490     1.81472349     0.00062274    -0.00027156    -0.00013789
H        -1.02059168     0.11572432    -0.57401737    -0.00013422     0.00036851    -0.00118466
     6
  Step:    18            Position(A)                                  Velocity(au)
C        -0.04039540    -0.00899527    -0.02458354     0.00005165    -0.00009262    -0.00031073
N        -0.04477527    -0.03836799     1.34138286     0.00001332     0.00007793     0.00035071
H         0.96205321     0.11477776    -0.60787020    -0.00084623     0.00044328    -0.00012067
H         0.83758922    -0.18847185     1.91855681    -0.00022792    -0.00049520     0.00001951
H        -0.88782766    -0.07345826     1.81451471     0.00032573    -0.00021991     0.00005754
H        -1.02118248     0.11773655    -0.58054704    -0.00005212     0.00029244    -0.00112732
     6
  Step:    19            Position(A)                                  Velocity(au)
C        -0.04009240    -0.00948734    -0.02653417     0.00005660    -0.00008424    -0.00039186
N        -0.04461901    -0.03794394     1.34346320     0.00004227     0.00007456     0.00039853
H         0.95692385     0.11741463    -0.60818907    -0.00099186     0.00049421     0.00000303
H         0.83590499    -0.19146553     1.91836657    -0.00037296    -0.00056929    -0.00008595
H        -0.88680714    -0.07437005     1.81536332     0.00004464    -0.00012096     0.00024224
H        -1.02117117     0.11897589    -0.58655176     0.00005835     0.00016373    -0.00102795
     6
  Step:    20            Position(A)                                  Velocity(au)
C        -0.03976592    -0.00993219    -0.02894167     0.00006004    -0.00007571    -0.00047186
N        -0.04430514    -0.03753873     1.34581515     0.00006951     0.00007118     0.00044577
H         0.95102207     0.12027426    -0.60783648    -0.00112082     0.00052827     0.00011913
H         0.83344126    -0.19480335     1.91760092    -0.00050533    -0.00062462    -0.00018480
H        -0.88733113    -0.07480351     1.81720889    -0.00022584    -0.00004185     0.00041513
H        -1.02053352     0.11955750    -0.59197962     0.00017061     0.00005114    -0.00092131
     6
  Step:    21            Position(A)                                  Velocity(au)
C        -0.03942417    -0.01032985    -0.03178544     0.00006195    -0.00006719    -0.00054648
N        -0.04384547    -0.03715177     1.34842413     0.00009405     0.00006788     0.00048919
H         0.94445033     0.12329372    -0.60686324    -0.00122864     0.00055252     0.00022460
H         0.83028120    -0.19841692     1.91630992    -0.00062012    -0.00066942    -0.00027271
H        -0.88932048    -0.07483580     1.81998328    -0.00047679     0.00002551     0.00057304
H        -1.01927243     0.11954508    -0.59680494     0.00028033    -0.00005126    -0.00081098
     6
  Step:    22            Position(A)                                  Velocity(au)
C        -0.03907567    -0.01068085    -0.03503033     0.00006227    -0.00005881    -0.00061336
N        -0.04325724    -0.03678239     1.35126550     0.00011493     0.00006468     0.00052723
H         0.93733304     0.12643023    -0.60533407    -0.00131139     0.00056973     0.00031687
H         0.82653213    -0.20226177     1.91456249    -0.00071305    -0.00070691    -0.00034644
H        -0.89264333    -0.07451926     1.82359345    -0.00069870     0.00008452     0.00071120
H        -1.01741015     0.11898632    -0.60101529     0.00038401    -0.00014538    -0.00069936
     6
  Step:    23            Position(A)                                  Velocity(au)
C        -0.03872920    -0.01098613    -0.03863048     0.00006099    -0.00005064    -0.00067086
N        -0.04256287    -0.03642997     1.35430797     0.00013130     0.00006158     0.00055894
H         0.92981525     0.12965190    -0.60332698    -0.00136585     0.00058166     0.00039364
H         0.82232363    -0.20630602     1.91244364    -0.00078054    -0.00073911    -0.00040339
H        -0.89711790    -0.07389253     1.82792020    -0.00088342     0.00013708     0.00082539
H        -1.01498690     0.11792260    -0.60460975     0.00047847    -0.00023188    -0.00058882
     6
  Step:    24            Position(A)                                  Velocity(au)
C        -0.03839369    -0.01124716    -0.04253217     0.00005812    -0.00004282    -0.00071808
N        -0.04178895    -0.03609380     1.35751580     0.00014263     0.00005864     0.00058393
H         0.92205946     0.13293461    -0.60093225    -0.00139001     0.00058986     0.00045309
H         0.81780381    -0.21052689     1.91005161    -0.00082021    -0.00076779    -0.00044178
H        -0.90252211    -0.07298637     1.83282337    -0.00102539     0.00018438     0.00091294
H        -1.01205971     0.11639334    -0.60759981     0.00056105    -0.00031100    -0.00048195
     6
  Step:    25            Position(A)                                  Velocity(au)
C        -0.03807787    -0.01146603    -0.04667745     0.00005379    -0.00003548    -0.00075505
N        -0.04096458    -0.03577288     1.36085154     0.00014871     0.00005594     0.00060246
H         0.91423858     0.13626194    -0.59824960    -0.00138362     0.00059602     0.00049427
H         0.81313218    -0.21490999     1.90749300    -0.00083135    -0.00079488    -0.00046094
H        -0.90860860    -0.07182629     1.83815077    -0.00112245     0.00022739     0.00097327
H        -1.00869973     0.11443746    -0.61001051     0.00062992    -0.00038307    -0.00038131
     6
  Step:    26            Position(A)                                  Velocity(au)
C        -0.03778982    -0.01164553    -0.05100898     0.00004815    -0.00002875    -0.00078269
N        -0.04011937    -0.03546577     1.36427946     0.00014975     0.00005361     0.00061542
H         0.90652589     0.13962596    -0.59538321    -0.00134814     0.00060204     0.00051720
H         0.80847038    -0.21945079     1.90487674    -0.00081493    -0.00082255    -0.00046133
H        -0.91512364    -0.07043355     1.84375008    -0.00117587     0.00026694     0.00100796
H        -1.00498777     0.11209274    -0.61188074     0.00068426    -0.00044875    -0.00028924
     6
  Step:    27            Position(A)                                  Velocity(au)
C        -0.03753666    -0.01178922    -0.05547495     0.00004140    -0.00002273    -0.00080256
N        -0.03928141    -0.03517034     1.36776884     0.00014619     0.00005176     0.00062407
H         0.89908537     0.14302889    -0.59243629    -0.00128612     0.00060990     0.00052268
H         0.80397235    -0.22415545     1.90230758    -0.00077318    -0.00085305    -0.00044432
H        -0.92182546    -0.06882585     1.84948023    -0.00118958     0.00030391     0.00102014
H        -1.00100863     0.10939353    -0.61326157     0.00072409    -0.00050913    -0.00020746
     6
  Step:    28            Position(A)                                  Velocity(au)
C        -0.03732433    -0.01190114    -0.06003241     0.00003373    -0.00001747    -0.00081633
N        -0.03847576    -0.03488383     1.37129609     0.00013861     0.00005049     0.00062971
H         0.89206565     0.14648321    -0.58950660    -0.00120023     0.00062129     0.00051192
H         0.79977728    -0.22904187     1.89988116    -0.00070893    -0.00088838    -0.00041170
H        -0.92849841    -0.06701658     1.85521984    -0.00116875     0.00033915     0.00101360
H        -0.99684662     0.10636843    -0.61421322     0.00074977    -0.00056548    -0.00013703
     6
  Step:    29            Position(A)                                  Velocity(au)
C        -0.03715763    -0.01198557    -0.06464792     0.00002531    -0.00001298    -0.00082526
N        -0.03772385    -0.03460298     1.37484479     0.00012759     0.00004985     0.00063325
H         0.88559862     0.15001016    -0.58668395    -0.00109257     0.00063735     0.00048613
H         0.79600620    -0.23413807     1.89768136    -0.00062506    -0.00092981    -0.00036542
H        -0.93495851    -0.06501487     1.86086983    -0.00111845     0.00037330     0.00099173
H        -0.99258364     0.10303928    -0.61480132     0.00076144    -0.00061890    -0.00007846
     6
  Step:    30            Position(A)                                  Velocity(au)
C        -0.03704029    -0.01204679    -0.06929510     0.00001629    -0.00000921    -0.00082993
N        -0.03704366    -0.03432435     1.37840367     0.00011363     0.00004981     0.00063508
H         0.87980272     0.15363682    -0.58405028    -0.00096460     0.00065856     0.00044638
H         0.79276164    -0.23947809     1.89577975    -0.00052439    -0.00097763    -0.00030739
H        -0.94105187    -0.06282662     1.86635097    -0.00104300     0.00040668     0.00095718
H        -0.98830021     0.09942194    -0.61509381     0.00075874    -0.00067001    -0.00003194
     6
  Step:    31            Position(A)                                  Velocity(au)
C        -0.03697499    -0.01208886    -0.07395103     0.00000689    -0.00000614    -0.00083039
N        -0.03645006    -0.03404462     1.38196372     0.00009722     0.00005032     0.00063517
H         0.87478592     0.15739224    -0.58168025    -0.00081781     0.00068472     0.00039381
H         0.79012807    -0.24509674     1.89423572    -0.00041001    -0.00103116    -0.00023970
H        -0.94664999    -0.06045617     1.87159928    -0.00094610     0.00043926     0.00091192
H        -0.98407853     0.09552880    -0.61515938     0.00074088    -0.00071898     0.00000242
     6
  Step:    32            Position(A)                                  Velocity(au)
C        -0.03696316    -0.01211555    -0.07859320    -0.00000265    -0.00000370    -0.00082639
N        -0.03595508    -0.03376085     1.38551583     0.00007886     0.00005129     0.00063326
H         0.87064544     0.16130383    -0.57964072    -0.00065431     0.00071518     0.00032986
H         0.78817065    -0.25102427     1.89309577    -0.00028562    -0.00108904    -0.00016479
H        -0.95164566    -0.05790814     1.87656199    -0.00083124     0.00047075     0.00085761
H        -0.98000442     0.09137136    -0.61506676     0.00070702    -0.00076560     0.00002460
     6
  Step:    33            Position(A)                                  Velocity(au)
C        -0.03700470    -0.01213026    -0.08319798    -0.00001203    -0.00000182    -0.00081771
N        -0.03556770    -0.03347068     1.38904966     0.00005913     0.00005260     0.00062911
H         0.86746442     0.16539481    -0.57798925    -0.00047731     0.00074898     0.00025650
H         0.78693213    -0.25728261     1.89239180    -0.00015567    -0.00114946    -0.00008551
H        -0.95595125    -0.05518868     1.88119552    -0.00070204     0.00050078     0.00079589
H        -0.97616732     0.08696211    -0.61488417     0.00065670    -0.00080955     0.00003470
     6
  Step:    34            Position(A)                                  Velocity(au)
C        -0.03709771    -0.01213592    -0.08774073    -0.00002088    -0.00000042    -0.00080431
N        -0.03529364    -0.03317243     1.39255352     0.00003868     0.00005412     0.00062257
H         0.86530596     0.16968244    -0.57677133    -0.00029114     0.00078496     0.00017622
H         0.78642924    -0.26388297     1.89213914    -0.00002521    -0.00121042    -0.00000505
H        -0.95949920    -0.05230601     1.88546536    -0.00056239     0.00052898     0.00072857
H        -0.97265809     0.08231516    -0.61467856     0.00059005    -0.00085054     0.00003305
     6
  Step:    35            Position(A)                                  Velocity(au)
C        -0.03723827    -0.01213500    -0.09219669    -0.00002883     0.00000059    -0.00078637
N        -0.03513498    -0.03286518     1.39601501     0.00001819     0.00005572     0.00061364
H         0.86420709     0.17417706    -0.57601765    -0.00010111     0.00082188     0.00009195
H         0.78665012    -0.27082495     1.89233526     0.00010045    -0.00126990     0.00007331
H        -0.96224334    -0.04927037     1.88934678    -0.00041640     0.00055504     0.00065759
H        -0.96956575     0.07744613    -0.61451438     0.00050789    -0.00088841     0.00002025
     6
  Step:    36            Position(A)                                  Velocity(au)
C        -0.03742040    -0.01212934    -0.09654227    -0.00003554     0.00000133    -0.00076427
N        -0.03509008    -0.03254872     1.39942175    -0.00000167     0.00005729     0.00060244
H         0.86417422     0.17888153    -0.57574219     0.00008697     0.00085845     0.00000680
H         0.78755359    -0.27809654     1.89295963     0.00021614    -0.00132595     0.00014641
H        -0.96415986    -0.04609362     1.89282555    -0.00026823     0.00057875     0.00058499
H        -0.96697339     0.07237144    -0.61445194     0.00041179    -0.00092314    -0.00000277
     6
  Step:    37            Position(A)                                  Velocity(au)
C        -0.03763628    -0.01212015    -0.10075612    -0.00004070     0.00000191    -0.00073859
N        -0.03515366    -0.03222359     1.40276199    -0.00002026     0.00005869     0.00058919
H         0.86518106     0.18379124    -0.57594149     0.00026722     0.00089339    -0.00007611
H         0.78907082    -0.28567486     1.89397494     0.00031723    -0.00137684     0.00021146
H        -0.96524738    -0.04278868     1.89589834    -0.00012193     0.00060001     0.00051279
H        -0.96495390     0.06710745    -0.61454541     0.00030401    -0.00095488    -0.00003472
     6
  Step:    38            Position(A)                                  Velocity(au)
C        -0.03787657    -0.01210795    -0.10481998    -0.00004410     0.00000246    -0.00070999
N        -0.03531713    -0.03189097     1.40602513    -0.00003704     0.00005983     0.00057418
H         0.86716913     0.18889420    -0.57659523     0.00043417     0.00092554    -0.00015394
H         0.79110891    -0.29352749     1.89532951     0.00039990    -0.00142115     0.00026620
H        -0.96552639    -0.03936902     1.89857266     0.00001871     0.00061884     0.00044293
H        -0.96356617     0.06166969    -0.61484105     0.00018741    -0.00098389    -0.00007401
     6
  Step:    39            Position(A)                                  Velocity(au)
C        -0.03813091    -0.01209257    -0.10871933    -0.00004561     0.00000309    -0.00067920
N        -0.03556907    -0.03155259     1.40920204    -0.00005156     0.00006061     0.00055772
H         0.87005066     0.19417213    -0.57766809     0.00058306     0.00095393    -0.00022426
H         0.79355609    -0.30161447     1.89696065     0.00046141    -0.00145781     0.00030905
H        -0.96503748    -0.03584781     1.90086623     0.00015031     0.00063536     0.00037717
H        -0.96285191     0.05607209    -0.61537546     0.00006527    -0.00101058    -0.00011881
     6
  Step:    40            Position(A)                                  Velocity(au)
C        -0.03838855    -0.01207326    -0.11244356    -0.00004523     0.00000390    -0.00064696
N        -0.03589585    -0.03121064     1.41228514    -0.00006350     0.00006099     0.00054010
H         0.87371358     0.19960141    -0.57911241     0.00071021     0.00097778    -0.00028521
H         0.79628795    -0.30989047     1.89879843     0.00050016    -0.00148617     0.00033912
H        -0.96383929    -0.03223748     1.90280618     0.00026991     0.00064977     0.00031709
H        -0.96283360     0.05032655    -0.61617460    -0.00005889    -0.00103537    -0.00016717
     6
  Step:    41            Position(A)                                  Velocity(au)
C        -0.03863891    -0.01204875    -0.11598600    -0.00004303     0.00000498    -0.00061398
N        -0.03628231    -0.03086759     1.41526841    -0.00007265     0.00006091     0.00052162
H         0.87802769     0.20515453    -0.58087153     0.00081310     0.00099658    -0.00033553
H         0.79917394    -0.31830713     1.90076970     0.00051568    -0.00150600     0.00035620
H        -0.96200586    -0.02854959     1.90442776     0.00037509     0.00066236     0.00026402
H        -0.96351338     0.04444279    -0.61725307    -0.00018150    -0.00105877    -0.00021710
     6
  Step:    42            Position(A)                                  Velocity(au)
C        -0.03887214    -0.01201730    -0.11934375    -0.00003919     0.00000639    -0.00058090
N        -0.03671236    -0.03052606     1.41814737    -0.00007892     0.00006038     0.00050256
H         0.88285155     0.21080149    -0.58288329     0.00089044     0.00101009    -0.00037461
H         0.80208343    -0.32681563     1.90280153     0.00050849    -0.00151748     0.00036062
H        -0.95962381    -0.02479354     1.90577334     0.00046398     0.00067354     0.00021906
H        -0.96487336     0.03842763    -0.61861446    -0.00029913    -0.00108129    -0.00026671
     6
  Step:    43            Position(A)                                  Velocity(au)
C        -0.03907959    -0.01197692    -0.12251736    -0.00003397     0.00000817    -0.00054830
N        -0.03716966    -0.03018875     1.42091890    -0.00008231     0.00005938     0.00048314
H         0.88803930     0.21651142    -0.58508343     0.00094207     0.00101831    -0.00040237
H         0.80489106    -0.33536878     1.90482435     0.00047992    -0.00152110     0.00035325
H        -0.95678913    -0.02097664     1.90689073     0.00053526     0.00068373     0.00018302
H        -0.96687666     0.03228533    -0.62025185    -0.00040867    -0.00110343    -0.00031426
     6
  Step:    44            Position(A)                                  Velocity(au)
C        -0.03925414    -0.01192543    -0.12551024    -0.00002763     0.00001034    -0.00051661
N        -0.03763810    -0.02985825     1.42358107    -0.00008292     0.00005795     0.00046355
H         0.89344672     0.22225408    -0.58740861     0.00096878     0.00102148    -0.00041920
H         0.80748095    -0.34392294     1.90677442     0.00043197    -0.00151766     0.00033527
H        -0.95360396    -0.01710389     1.90783165     0.00058817     0.00069335     0.00015642
H        -0.96946952     0.02601773    -0.62214885    -0.00050741    -0.00112560    -0.00035822
     6