|===============================================================================
|
|  DFTB+ release 20.1
|
|  Copyright (C) 2006 - 2020  DFTB+ developers group
|
|===============================================================================
|
|  When publishing results obtained with DFTB+, please cite the following
|  reference:
|
|  * DFTB+, a software package for efficient approximate density functional
|    theory based atomistic simulations, J. Chem. Phys. 152, 124101 (2020).
|    [doi: 10.1063/1.5143190]
|
|  You should also cite additional publications crediting the parametrization
|  data you use. Please consult the documentation of the SK-files for the
|  references.
|
|===============================================================================

Reading input file 'dftb_in.hsd'
Parser version: 8

--------------------------------------------------------------------------------
Reading SK-files:
Done.


Processed input in HSD format written to 'dftb_pin.hsd'

Starting initialization...
--------------------------------------------------------------------------------
OpenMP threads:              1
Chosen random seed:          500630154
Mode:                        Static calculation
Self consistent charges:     Yes
SCC-tolerance:                 0.100000E-05
Max. scc iterations:                   1000
Shell resolved Hubbard:      No
Spin polarisation:           No
Nr. of up electrons:            16.000000
Nr. of down electrons:          16.000000
Periodic boundaries:         No
Electronic solver:           Relatively robust
Maximal SCC-cycles:                    1000
Initial charges:             Set automatically (system chrg:   0.100E+01)
Included shells:             C:  s, p
                             H:  s
                             N:  s, p
Spin coupling constants:     C   1(s)-1(s):  -0.455900E-01
                             C   1(s)-2(p):  -0.293000E-01
                             C   2(p)-1(s):  -0.293000E-01
                             C   2(p)-2(p):  -0.275500E-01
                             H   1(s)-1(s):  -0.792500E-01
                             N   1(s)-1(s):  -0.468700E-01
                             N   1(s)-2(p):  -0.317000E-01
                             N   2(p)-1(s):  -0.317000E-01
                             N   2(p)-2(p):  -0.307200E-01
Range separated hybrid:      Yes
  Screening parameter omega:   0.300000E+00
  Range separated algorithm:   MatrixBased
Extra options:
                             Mulliken analysis
                             Force calculation
Force type                   original
                             Eigenvector printing


REKS Calcuation:             Yes
SSR(2,2) Calcuation:         Yes
Energy Functional:           (PPS+OSS)/2
Number of Core Orbitals:                 15
Number of Active Orbitals:                2
Number of Basis:                         32
Number of States:                         2
State-Averaging Weight:          0.500000
                                 0.500000
State of Interest:                        1
Initial Guess:               Diagonalize H0 matrix
Newton-Raphson for FON opt:  Yes
NR max. Iterations:                      50
Level Shifting:              Yes
Shift Value:                     0.300000
W Scale Factor:              C  =    3.200000
                             H  =    3.200000
                             N  =    3.200000
Transition Dipole:           No
Gradient of Microstate:      No
CP-REKS Solver:              Preconditioned Conjugate-Gradient
CG max. Iterations:                     100
CG Tolerance:                  0.100000E-07
Memory for A and Hxc:        Direct Updating Without Saving
Non-Adiabatic Coupling:      Yes

--------------------------------------------------------------------------------

***  Geometry step: 0

  iSCC       reks energy        Diff energy         x_a       SCC error   
    1      -16.3545005404       0.0000000000     0.985509    1.23662455
    2      -16.3735219652      -0.0190214248     0.997769    0.04175030
    3      -16.3791727747      -0.0056508095     0.999438    0.02735113
    4      -16.3812708187      -0.0020980440     0.999776    0.01851247
    5      -16.3821239574      -0.0008531386     0.999875    0.01231987
    6      -16.3825065162      -0.0003825589     0.999913    0.00830846
    7      -16.3826974517      -0.0001909355     0.999931    0.00574736
    8      -16.3828029239      -0.0001054722     0.999941    0.00408734
    9      -16.3828664613      -0.0000635374     0.999947    0.00298472
   10      -16.3829075145      -0.0000410532     0.999950    0.00223291
   11      -16.3829355561      -0.0000280416     0.999952    0.00170706
   12      -16.3829555791      -0.0000200230     0.999954    0.00133031
   13      -16.3829704058      -0.0000148268     0.999955    0.00108972
   14      -16.3829817304      -0.0000113246     0.999956    0.00090406
   15      -16.3829906224      -0.0000088920     0.999957    0.00075809
   16      -16.3829977853      -0.0000071629     0.999958    0.00064190
   17      -16.3830036972      -0.0000059119     0.999958    0.00054845
   18      -16.3830086912      -0.0000049939     0.999958    0.00047264
   19      -16.3830130035      -0.0000043123     0.999959    0.00042972
   20      -16.3830168044      -0.0000038009     0.999959    0.00040899
   21      -16.3830202175      -0.0000034131     0.999959    0.00038960
   22      -16.3830233336      -0.0000031161     0.999959    0.00037170
   23      -16.3830262194      -0.0000028858     0.999959    0.00035532
   24      -16.3830289245      -0.0000027051     0.999960    0.00034043
   25      -16.3830314858      -0.0000025613     0.999960    0.00032696
   26      -16.3830339309      -0.0000024450     0.999960    0.00031480
   27      -16.3830362803      -0.0000023495     0.999960    0.00030385
   28      -16.3830385498      -0.0000022694     0.999960    0.00030017
   29      -16.3830407510      -0.0000022012     0.999960    0.00029743
   30      -16.3830428930      -0.0000021420     0.999960    0.00029480
   31      -16.3830449827      -0.0000020897     0.999960    0.00029227
   32      -16.3830470254      -0.0000020427     0.999960    0.00028982
   33      -16.3830490253      -0.0000019999     0.999960    0.00028745
   34      -16.3830509856      -0.0000019603     0.999960    0.00028515
   35      -16.3830529090      -0.0000019234     0.999961    0.00028292
   36      -16.3830547976      -0.0000018886     0.999961    0.00028073
   37      -16.3830566531      -0.0000018555     0.999961    0.00027860
   38      -16.3830584770      -0.0000018239     0.999961    0.00027650
   39      -16.3830602706      -0.0000017935     0.999961    0.00027445
   40      -16.3830620348      -0.0000017642     0.999961    0.00027243
   41      -16.3830637707      -0.0000017359     0.999961    0.00027044
   42      -16.3830654791      -0.0000017084     0.999961    0.00026849
   43      -16.3830671606      -0.0000016816     0.999961    0.00026655
   44      -16.3830688161      -0.0000016555     0.999961    0.00026465
   45      -16.3830704462      -0.0000016301     0.999961    0.00026276
   46      -16.3830720515      -0.0000016052     0.999961    0.00026090
   47      -16.3830736325      -0.0000015810     0.999961    0.00025906
   48      -16.3830751897      -0.0000015572     0.999961    0.00025724
   49      -16.3830767237      -0.0000015340     0.999961    0.00025544
   50      -16.3830782350      -0.0000015113     0.999961    0.00025365
   51      -16.3830797241      -0.0000014890     0.999962    0.00025188
   52      -16.3830811913      -0.0000014672     0.999962    0.00025013
   53      -16.3830826371      -0.0000014458     0.999962    0.00024840
   54      -16.3830840620      -0.0000014249     0.999962    0.00024668
   55      -16.3830854664      -0.0000014043     0.999962    0.00024498
   56      -16.3830868506      -0.0000013842     0.999962    0.00024330
   57      -16.3830882150      -0.0000013644     0.999962    0.00024163
   58      -16.3830895601      -0.0000013450     0.999962    0.00023997
   59      -16.3830908861      -0.0000013260     0.999962    0.00023833
   60      -16.3830921934      -0.0000013073     0.999962    0.00023670
   61      -16.3830934824      -0.0000012890     0.999962    0.00023509
   62      -16.3830947535      -0.0000012710     0.999962    0.00023349
   63      -16.3830960068      -0.0000012534     0.999962    0.00023191
   64      -16.3830972428      -0.0000012360     0.999962    0.00023034
   65      -16.3830984618      -0.0000012190     0.999962    0.00022879
   66      -16.3830996641      -0.0000012022     0.999963    0.00022724
   67      -16.3831008499      -0.0000011858     0.999963    0.00022571
   68      -16.3831020195      -0.0000011696     0.999963    0.00022420
   69      -16.3831031733      -0.0000011538     0.999963    0.00022270
   70      -16.3831043114      -0.0000011382     0.999963    0.00022121
   71      -16.3831054343      -0.0000011228     0.999963    0.00021973
   72      -16.3831065421      -0.0000011078     0.999963    0.00021826
   73      -16.3831076350      -0.0000010930     0.999963    0.00021681
   74      -16.3831087134      -0.0000010784     0.999963    0.00021537
   75      -16.3831097775      -0.0000010641     0.999963    0.00021394
   76      -16.3831108275      -0.0000010500     0.999963    0.00021253
   77      -16.3831118637      -0.0000010361     0.999963    0.00021113
   78      -16.3831128862      -0.0000010225     0.999963    0.00020973
   79      -16.3831138953      -0.0000010091     0.999964    0.00020835
   80      -16.3831148913      -0.0000009959     0.999964    0.00020698
   81      -16.3831158742      -0.0000009830     0.999964    0.00020563
   82      -16.3831168444      -0.0000009702     0.999964    0.00020428
   83      -16.3831178021      -0.0000009577     0.999964    0.00020294
   84      -16.3831187474      -0.0000009453     0.999964    0.00020162
   85      -16.3831196805      -0.0000009331     0.999964    0.00020031
   86      -16.3831206017      -0.0000009212     0.999964    0.00019900
   87      -16.3831215111      -0.0000009094     0.999964    0.00019771
   88      -16.3831224089      -0.0000008978     0.999964    0.00019643
   89      -16.3831232952      -0.0000008864     0.999964    0.00019515
   90      -16.3831241704      -0.0000008751     0.999964    0.00019389
   91      -16.3831250344      -0.0000008640     0.999965    0.00019264
   92      -16.3831258875      -0.0000008531     0.999965    0.00019140
   93      -16.3831267299      -0.0000008424     0.999965    0.00019017
   94      -16.3831275617      -0.0000008318     0.999965    0.00018894
   95      -16.3831283831      -0.0000008214     0.999965    0.00018773
   96      -16.3831291943      -0.0000008111     0.999965    0.00018653
   97      -16.3831299953      -0.0000008010     0.999965    0.00018533
   98      -16.3831307863      -0.0000007911     0.999965    0.00018415
   99      -16.3831315676      -0.0000007812     0.999965    0.00018297
  100      -16.3831323391      -0.0000007716     0.999965    0.00018180
  101      -16.3831331012      -0.0000007620     0.999965    0.00018065
  102      -16.3831338538      -0.0000007526     0.999965    0.00017950
  103      -16.3831345972      -0.0000007434     0.999966    0.00017836
  104      -16.3831353315      -0.0000007343     0.999966    0.00017722
  105      -16.3831360568      -0.0000007253     0.999966    0.00017610
  106      -16.3831367732      -0.0000007164     0.999966    0.00017499
  107      -16.3831374808      -0.0000007077     0.999966    0.00017388
  108      -16.3831381799      -0.0000006991     0.999966    0.00017278
  109      -16.3831388705      -0.0000006906     0.999966    0.00017169
  110      -16.3831395527      -0.0000006822     0.999966    0.00017061
  111      -16.3831402266      -0.0000006739     0.999966    0.00016953
  112      -16.3831408924      -0.0000006658     0.999966    0.00016847
  113      -16.3831415502      -0.0000006578     0.999966    0.00016741
  114      -16.3831422000      -0.0000006499     0.999967    0.00016636
  115      -16.3831428421      -0.0000006421     0.999967    0.00016532
  116      -16.3831434765      -0.0000006344     0.999967    0.00016428
  117      -16.3831441032      -0.0000006268     0.999967    0.00016325
  118      -16.3831447225      -0.0000006193     0.999967    0.00016223
  119      -16.3831453344      -0.0000006119     0.999967    0.00016122
  120      -16.3831459390      -0.0000006046     0.999967    0.00016022
  121      -16.3831465364      -0.0000005974     0.999967    0.00015922
  122      -16.3831471267      -0.0000005903     0.999967    0.00015823
  123      -16.3831477100      -0.0000005833     0.999967    0.00015724
  124      -16.3831482864      -0.0000005764     0.999967    0.00015627
  125      -16.3831488560      -0.0000005696     0.999967    0.00015530
  126      -16.3831494189      -0.0000005629     0.999968    0.00015433
  127      -16.3831499752      -0.0000005563     0.999968    0.00015338
  128      -16.3831505249      -0.0000005497     0.999968    0.00015243
  129      -16.3831510681      -0.0000005433     0.999968    0.00015148
  130      -16.3831516050      -0.0000005369     0.999968    0.00015055
  131      -16.3831521356      -0.0000005306     0.999968    0.00014962
  132      -16.3831526600      -0.0000005244     0.999968    0.00014869
  133      -16.3831531783      -0.0000005183     0.999968    0.00014778
  134      -16.3831536905      -0.0000005122     0.999968    0.00014687
  135      -16.3831541967      -0.0000005062     0.999968    0.00014596
  136      -16.3831546971      -0.0000005004     0.999968    0.00014507
  137      -16.3831551916      -0.0000004945     0.999968    0.00014417
  138      -16.3831556804      -0.0000004888     0.999969    0.00014329
  139      -16.3831561636      -0.0000004831     0.999969    0.00014241
  140      -16.3831566411      -0.0000004775     0.999969    0.00014154
  141      -16.3831571132      -0.0000004720     0.999969    0.00014067
  142      -16.3831575797      -0.0000004666     0.999969    0.00013981
  143      -16.3831580409      -0.0000004612     0.999969    0.00013895
  144      -16.3831584968      -0.0000004559     0.999969    0.00013810
  145      -16.3831589474      -0.0000004506     0.999969    0.00013726
  146      -16.3831593929      -0.0000004455     0.999969    0.00013642
  147      -16.3831598332      -0.0000004403     0.999969    0.00013559
  148      -16.3831602685      -0.0000004353     0.999969    0.00013476
  149      -16.3831606988      -0.0000004303     0.999969    0.00013394
  150      -16.3831611242      -0.0000004254     0.999969    0.00013313
  151      -16.3831615448      -0.0000004205     0.999970    0.00013232
  152      -16.3831619605      -0.0000004157     0.999970    0.00013151
  153      -16.3831623714      -0.0000004110     0.999970    0.00013072
  154      -16.3831627777      -0.0000004063     0.999970    0.00012992
  155      -16.3831631794      -0.0000004017     0.999970    0.00012913
  156      -16.3831635765      -0.0000003971     0.999970    0.00012835
  157      -16.3831639691      -0.0000003926     0.999970    0.00012757
  158      -16.3831643572      -0.0000003881     0.999970    0.00012680
  159      -16.3831647410      -0.0000003837     0.999970    0.00012604
  160      -16.3831651203      -0.0000003794     0.999970    0.00012527
  161      -16.3831654954      -0.0000003751     0.999970    0.00012452
  162      -16.3831658663      -0.0000003708     0.999970    0.00012376
  163      -16.3831662329      -0.0000003667     0.999970    0.00012302
  164      -16.3831665955      -0.0000003625     0.999971    0.00012228
  165      -16.3831669539      -0.0000003584     0.999971    0.00012154
  166      -16.3831673083      -0.0000003544     0.999971    0.00012081
  167      -16.3831676587      -0.0000003504     0.999971    0.00012008
  168      -16.3831680051      -0.0000003465     0.999971    0.00011936
  169      -16.3831683477      -0.0000003426     0.999971    0.00011864
  170      -16.3831686864      -0.0000003387     0.999971    0.00011793
  171      -16.3831690214      -0.0000003349     0.999971    0.00011722
  172      -16.3831693525      -0.0000003312     0.999971    0.00011652
  173      -16.3831696800      -0.0000003275     0.999971    0.00011582
  174      -16.3831700038      -0.0000003238     0.999971    0.00011512
  175      -16.3831703240      -0.0000003202     0.999971    0.00011444
  176      -16.3831706406      -0.0000003166     0.999971    0.00011375
  177      -16.3831709536      -0.0000003131     0.999971    0.00011307
  178      -16.3831712632      -0.0000003096     0.999972    0.00011239
  179      -16.3831715693      -0.0000003061     0.999972    0.00011172
  180      -16.3831718720      -0.0000003027     0.999972    0.00011106
  181      -16.3831721714      -0.0000002993     0.999972    0.00011039
  182      -16.3831724674      -0.0000002960     0.999972    0.00010974
  183      -16.3831727601      -0.0000002927     0.999972    0.00010908
  184      -16.3831730496      -0.0000002895     0.999972    0.00010843
  185      -16.3831733358      -0.0000002863     0.999972    0.00010779
  186      -16.3831736189      -0.0000002831     0.999972    0.00010714
  187      -16.3831738989      -0.0000002799     0.999972    0.00010651
  188      -16.3831741757      -0.0000002768     0.999972    0.00010587
  189      -16.3831744495      -0.0000002738     0.999972    0.00010525
  190      -16.3831747202      -0.0000002708     0.999972    0.00010462
  191      -16.3831749880      -0.0000002678     0.999972    0.00010400
  192      -16.3831752528      -0.0000002648     0.999973    0.00010338
  193      -16.3831755147      -0.0000002619     0.999973    0.00010277
  194      -16.3831757737      -0.0000002590     0.999973    0.00010216
  195      -16.3831760298      -0.0000002561     0.999973    0.00010156
  196      -16.3831762831      -0.0000002533     0.999973    0.00010096
  197      -16.3831765337      -0.0000002505     0.999973    0.00010036
  198      -16.3831767814      -0.0000002478     0.999973    0.00009977
  199      -16.3831770265      -0.0000002450     0.999973    0.00009918
  200      -16.3831772688      -0.0000002424     0.999973    0.00009859
  201      -16.3831775085      -0.0000002397     0.999973    0.00009801
  202      -16.3831777456      -0.0000002371     0.999973    0.00009743
  203      -16.3831779801      -0.0000002345     0.999973    0.00009686
  204      -16.3831782120      -0.0000002319     0.999973    0.00009629
  205      -16.3831784413      -0.0000002294     0.999973    0.00009572
  206      -16.3831786682      -0.0000002268     0.999973    0.00009516
  207      -16.3831788925      -0.0000002244     0.999973    0.00009460
  208      -16.3831791144      -0.0000002219     0.999974    0.00009404
  209      -16.3831793339      -0.0000002195     0.999974    0.00009349
  210      -16.3831795510      -0.0000002171     0.999974    0.00009294
  211      -16.3831797657      -0.0000002147     0.999974    0.00009240
  212      -16.3831799781      -0.0000002124     0.999974    0.00009185
  213      -16.3831801881      -0.0000002101     0.999974    0.00009132
  214      -16.3831803959      -0.0000002078     0.999974    0.00009078
  215      -16.3831806014      -0.0000002055     0.999974    0.00009025
  216      -16.3831808047      -0.0000002033     0.999974    0.00008972
  217      -16.3831810057      -0.0000002011     0.999974    0.00008920
  218      -16.3831812046      -0.0000001989     0.999974    0.00008868
  219      -16.3831814013      -0.0000001967     0.999974    0.00008816
  220      -16.3831815959      -0.0000001946     0.999974    0.00008764
  221      -16.3831817884      -0.0000001925     0.999974    0.00008713
  222      -16.3831819787      -0.0000001904     0.999974    0.00008662
  223      -16.3831821670      -0.0000001883     0.999974    0.00008612
  224      -16.3831823533      -0.0000001863     0.999974    0.00008562
  225      -16.3831825376      -0.0000001842     0.999975    0.00008512
  226      -16.3831827198      -0.0000001823     0.999975    0.00008462
  227      -16.3831829001      -0.0000001803     0.999975    0.00008413
  228      -16.3831830784      -0.0000001783     0.999975    0.00008364
  229      -16.3831832548      -0.0000001764     0.999975    0.00008316
  230      -16.3831834293      -0.0000001745     0.999975    0.00008267
  231      -16.3831836019      -0.0000001726     0.999975    0.00008219
  232      -16.3831837727      -0.0000001707     0.999975    0.00008172
  233      -16.3831839416      -0.0000001689     0.999975    0.00008124
  234      -16.3831841087      -0.0000001671     0.999975    0.00008077
  235      -16.3831842739      -0.0000001653     0.999975    0.00008030
  236      -16.3831844374      -0.0000001635     0.999975    0.00007984
  237      -16.3831845992      -0.0000001617     0.999975    0.00007938
  238      -16.3831847592      -0.0000001600     0.999975    0.00007892
  239      -16.3831849174      -0.0000001583     0.999975    0.00007846
  240      -16.3831850740      -0.0000001566     0.999975    0.00007801
  241      -16.3831852289      -0.0000001549     0.999975    0.00007756
  242      -16.3831853821      -0.0000001532     0.999975    0.00007711
  243      -16.3831855337      -0.0000001516     0.999976    0.00007666
  244      -16.3831856837      -0.0000001500     0.999976    0.00007622
  245      -16.3831858320      -0.0000001483     0.999976    0.00007578
  246      -16.3831859788      -0.0000001468     0.999976    0.00007535
  247      -16.3831861239      -0.0000001452     0.999976    0.00007491
  248      -16.3831862676      -0.0000001436     0.999976    0.00007448
  249      -16.3831864096      -0.0000001421     0.999976    0.00007405
  250      -16.3831865502      -0.0000001406     0.999976    0.00007363
  251      -16.3831866893      -0.0000001391     0.999976    0.00007321
  252      -16.3831868268      -0.0000001376     0.999976    0.00007278
  253      -16.3831869629      -0.0000001361     0.999976    0.00007237
  254      -16.3831870976      -0.0000001346     0.999976    0.00007195
  255      -16.3831872308      -0.0000001332     0.999976    0.00007154
  256      -16.3831873625      -0.0000001318     0.999976    0.00007113
  257      -16.3831874929      -0.0000001304     0.999976    0.00007072
  258      -16.3831876219      -0.0000001290     0.999976    0.00007032
  259      -16.3831877495      -0.0000001276     0.999976    0.00006991
  260      -16.3831878758      -0.0000001262     0.999976    0.00006951
  261      -16.3831880007      -0.0000001249     0.999976    0.00006912
  262      -16.3831881242      -0.0000001236     0.999976    0.00006872
  263      -16.3831882465      -0.0000001223     0.999976    0.00006833
  264      -16.3831883674      -0.0000001209     0.999977    0.00006794
  265      -16.3831884871      -0.0000001197     0.999977    0.00006755
  266      -16.3831886055      -0.0000001184     0.999977    0.00006717
  267      -16.3831887226      -0.0000001171     0.999977    0.00006678
  268      -16.3831888385      -0.0000001159     0.999977    0.00006640
  269      -16.3831889531      -0.0000001147     0.999977    0.00006603
  270      -16.3831890666      -0.0000001134     0.999977    0.00006565
  271      -16.3831891788      -0.0000001122     0.999977    0.00006528
  272      -16.3831892898      -0.0000001110     0.999977    0.00006491
  273      -16.3831893997      -0.0000001099     0.999977    0.00006454
  274      -16.3831895084      -0.0000001087     0.999977    0.00006417
  275      -16.3831896159      -0.0000001075     0.999977    0.00006381
  276      -16.3831897223      -0.0000001064     0.999977    0.00006344
  277      -16.3831898276      -0.0000001053     0.999977    0.00006308
  278      -16.3831899318      -0.0000001042     0.999977    0.00006273
  279      -16.3831900348      -0.0000001031     0.999977    0.00006237
  280      -16.3831901368      -0.0000001020     0.999977    0.00006202
  281      -16.3831902377      -0.0000001009     0.999977    0.00006167
  282      -16.3831903375      -0.0000000998     0.999977    0.00006132
  283      -16.3831904363      -0.0000000988     0.999977    0.00006097
  284      -16.3831905340      -0.0000000977     0.999977    0.00006063
  285      -16.3831906307      -0.0000000967     0.999977    0.00006028
  286      -16.3831907263      -0.0000000957     0.999977    0.00005994
  287      -16.3831908210      -0.0000000947     0.999978    0.00005961
  288      -16.3831909147      -0.0000000937     0.999978    0.00005927
  289      -16.3831910073      -0.0000000927     0.999978    0.00005894
  290      -16.3831910990      -0.0000000917     0.999978    0.00005860
  291      -16.3831911897      -0.0000000907     0.999978    0.00005827
  292      -16.3831912795      -0.0000000898     0.999978    0.00005794
  293      -16.3831913683      -0.0000000888     0.999978    0.00005762
  294      -16.3831914562      -0.0000000879     0.999978    0.00005729
  295      -16.3831915432      -0.0000000870     0.999978    0.00005697
  296      -16.3831916292      -0.0000000860     0.999978    0.00005665
  297      -16.3831917144      -0.0000000851     0.999978    0.00005633
  298      -16.3831917986      -0.0000000842     0.999978    0.00005602
  299      -16.3831918820      -0.0000000834     0.999978    0.00005570
  300      -16.3831919645      -0.0000000825     0.999978    0.00005539
  301      -16.3831920461      -0.0000000816     0.999978    0.00005508
  302      -16.3831921268      -0.0000000808     0.999978    0.00005477
  303      -16.3831922067      -0.0000000799     0.999978    0.00005446
  304      -16.3831922858      -0.0000000791     0.999978    0.00005416
  305      -16.3831923640      -0.0000000782     0.999978    0.00005386
  306      -16.3831924415      -0.0000000774     0.999978    0.00005356
  307      -16.3831925181      -0.0000000766     0.999978    0.00005326
  308      -16.3831925939      -0.0000000758     0.999978    0.00005296
  309      -16.3831926689      -0.0000000750     0.999978    0.00005266
  310      -16.3831927431      -0.0000000742     0.999978    0.00005237
  311      -16.3831928165      -0.0000000734     0.999978    0.00005208
  312      -16.3831928892      -0.0000000727     0.999978    0.00005179
  313      -16.3831929611      -0.0000000719     0.999979    0.00005150
  314      -16.3831930323      -0.0000000712     0.999979    0.00005121
  315      -16.3831931027      -0.0000000704     0.999979    0.00005092
  316      -16.3831931724      -0.0000000697     0.999979    0.00005064
  317      -16.3831932413      -0.0000000690     0.999979    0.00005036
  318      -16.3831933096      -0.0000000682     0.999979    0.00005008
  319      -16.3831933771      -0.0000000675     0.999979    0.00004980
  320      -16.3831934439      -0.0000000668     0.999979    0.00004952
  321      -16.3831935100      -0.0000000661     0.999979    0.00004925
  322      -16.3831935754      -0.0000000654     0.999979    0.00004897
  323      -16.3831936402      -0.0000000647     0.999979    0.00004870
  324      -16.3831937042      -0.0000000641     0.999979    0.00004843
  325      -16.3831937676      -0.0000000634     0.999979    0.00004816
  326      -16.3831938304      -0.0000000627     0.999979    0.00004790
  327      -16.3831938924      -0.0000000621     0.999979    0.00004763
  328      -16.3831939539      -0.0000000614     0.999979    0.00004737
  329      -16.3831940147      -0.0000000608     0.999979    0.00004711
  330      -16.3831940748      -0.0000000602     0.999979    0.00004684
  331      -16.3831941343      -0.0000000595     0.999979    0.00004659
  332      -16.3831941932      -0.0000000589     0.999979    0.00004633
  333      -16.3831942515      -0.0000000583     0.999979    0.00004607
  334      -16.3831943092      -0.0000000577     0.999979    0.00004582
  335      -16.3831943663      -0.0000000571     0.999979    0.00004556
  336      -16.3831944228      -0.0000000565     0.999979    0.00004531
  337      -16.3831944787      -0.0000000559     0.999979    0.00004506
  338      -16.3831945341      -0.0000000553     0.999979    0.00004481
  339      -16.3831945888      -0.0000000548     0.999979    0.00004457
  340      -16.3831946430      -0.0000000542     0.999979    0.00004432
  341      -16.3831946966      -0.0000000536     0.999979    0.00004408
  342      -16.3831947497      -0.0000000531     0.999979    0.00004383
  343      -16.3831948022      -0.0000000525     0.999979    0.00004359
  344      -16.3831948541      -0.0000000520     0.999980    0.00004335
  345      -16.3831949056      -0.0000000514     0.999980    0.00004312
  346      -16.3831949564      -0.0000000509     0.999980    0.00004288
  347      -16.3831950068      -0.0000000504     0.999980    0.00004264
  348      -16.3831950567      -0.0000000498     0.999980    0.00004241
  349      -16.3831951060      -0.0000000493     0.999980    0.00004218
  350      -16.3831951548      -0.0000000488     0.999980    0.00004194
  351      -16.3831952031      -0.0000000483     0.999980    0.00004171
  352      -16.3831952509      -0.0000000478     0.999980    0.00004149
  353      -16.3831952982      -0.0000000473     0.999980    0.00004126
  354      -16.3831953450      -0.0000000468     0.999980    0.00004103
  355      -16.3831953914      -0.0000000463     0.999980    0.00004081
  356      -16.3831954372      -0.0000000459     0.999980    0.00004058
  357      -16.3831954826      -0.0000000454     0.999980    0.00004036
  358      -16.3831955275      -0.0000000449     0.999980    0.00004014
  359      -16.3831955720      -0.0000000444     0.999980    0.00003992
  360      -16.3831956159      -0.0000000440     0.999980    0.00003970
  361      -16.3831956595      -0.0000000435     0.999980    0.00003949
  362      -16.3831957026      -0.0000000431     0.999980    0.00003927
  363      -16.3831957452      -0.0000000426     0.999980    0.00003906
  364      -16.3831957874      -0.0000000422     0.999980    0.00003884
  365      -16.3831958291      -0.0000000418     0.999980    0.00003863
  366      -16.3831958705      -0.0000000413     0.999980    0.00003842
  367      -16.3831959114      -0.0000000409     0.999980    0.00003821
  368      -16.3831959518      -0.0000000405     0.999980    0.00003800
  369      -16.3831959919      -0.0000000401     0.999980    0.00003780
  370      -16.3831960316      -0.0000000396     0.999980    0.00003759
  371      -16.3831960708      -0.0000000392     0.999980    0.00003739
  372      -16.3831961096      -0.0000000388     0.999980    0.00003718
  373      -16.3831961481      -0.0000000384     0.999980    0.00003698
  374      -16.3831961861      -0.0000000380     0.999980    0.00003678
  375      -16.3831962237      -0.0000000376     0.999980    0.00003658
  376      -16.3831962610      -0.0000000373     0.999980    0.00003638
  377      -16.3831962979      -0.0000000369     0.999980    0.00003618
  378      -16.3831963343      -0.0000000365     0.999980    0.00003599
  379      -16.3831963705      -0.0000000361     0.999980    0.00003579
  380      -16.3831964062      -0.0000000357     0.999980    0.00003560
  381      -16.3831964416      -0.0000000354     0.999981    0.00003543
  382      -16.3831964766      -0.0000000350     0.999981    0.00003526
  383      -16.3831965112      -0.0000000347     0.999981    0.00003509
  384      -16.3831965455      -0.0000000343     0.999981    0.00003492
  385      -16.3831965795      -0.0000000339     0.999981    0.00003475
  386      -16.3831966131      -0.0000000336     0.999981    0.00003458
  387      -16.3831966463      -0.0000000332     0.999981    0.00003442
  388      -16.3831966792      -0.0000000329     0.999981    0.00003425
  389      -16.3831967118      -0.0000000326     0.999981    0.00003409
  390      -16.3831967440      -0.0000000322     0.999981    0.00003392
  391      -16.3831967759      -0.0000000319     0.999981    0.00003376
  392      -16.3831968075      -0.0000000316     0.999981    0.00003360
  393      -16.3831968387      -0.0000000312     0.999981    0.00003344
  394      -16.3831968697      -0.0000000309     0.999981    0.00003328
  395      -16.3831969003      -0.0000000306     0.999981    0.00003312
  396      -16.3831969306      -0.0000000303     0.999981    0.00003296
  397      -16.3831969605      -0.0000000300     0.999981    0.00003280
  398      -16.3831969902      -0.0000000297     0.999981    0.00003264
  399      -16.3831970196      -0.0000000294     0.999981    0.00003248
  400      -16.3831970487      -0.0000000291     0.999981    0.00003233
  401      -16.3831970774      -0.0000000288     0.999981    0.00003217
  402      -16.3831971059      -0.0000000285     0.999981    0.00003202
  403      -16.3831971341      -0.0000000282     0.999981    0.00003186
  404      -16.3831971620      -0.0000000279     0.999981    0.00003171
  405      -16.3831971896      -0.0000000276     0.999981    0.00003156
  406      -16.3831972169      -0.0000000273     0.999981    0.00003140
  407      -16.3831972440      -0.0000000270     0.999981    0.00003125
  408      -16.3831972707      -0.0000000268     0.999981    0.00003110
  409      -16.3831972972      -0.0000000265     0.999981    0.00003095
  410      -16.3831973235      -0.0000000262     0.999981    0.00003080
  411      -16.3831973494      -0.0000000260     0.999981    0.00003065
  412      -16.3831973751      -0.0000000257     0.999981    0.00003051
  413      -16.3831974005      -0.0000000254     0.999981    0.00003036
  414      -16.3831974257      -0.0000000252     0.999981    0.00003021
  415      -16.3831974506      -0.0000000249     0.999981    0.00003007
  416      -16.3831974753      -0.0000000247     0.999981    0.00002992
  417      -16.3831974997      -0.0000000244     0.999981    0.00002978
  418      -16.3831975238      -0.0000000242     0.999981    0.00002963
  419      -16.3831975477      -0.0000000239     0.999981    0.00002949
  420      -16.3831975714      -0.0000000237     0.999981    0.00002935
  421      -16.3831975948      -0.0000000234     0.999981    0.00002920
  422      -16.3831976180      -0.0000000232     0.999981    0.00002906
  423      -16.3831976409      -0.0000000229     0.999981    0.00002892
  424      -16.3831976636      -0.0000000227     0.999981    0.00002878
  425      -16.3831976861      -0.0000000225     0.999981    0.00002864
  426      -16.3831977083      -0.0000000222     0.999981    0.00002850
  427      -16.3831977304      -0.0000000220     0.999981    0.00002837
  428      -16.3831977522      -0.0000000218     0.999982    0.00002823
  429      -16.3831977737      -0.0000000216     0.999982    0.00002809
  430      -16.3831977951      -0.0000000214     0.999982    0.00002796
  431      -16.3831978162      -0.0000000211     0.999982    0.00002782
  432      -16.3831978371      -0.0000000209     0.999982    0.00002769
  433      -16.3831978578      -0.0000000207     0.999982    0.00002755
  434      -16.3831978783      -0.0000000205     0.999982    0.00002742
  435      -16.3831978986      -0.0000000203     0.999982    0.00002728
  436      -16.3831979187      -0.0000000201     0.999982    0.00002715
  437      -16.3831979386      -0.0000000199     0.999982    0.00002702
  438      -16.3831979582      -0.0000000197     0.999982    0.00002689
  439      -16.3831979777      -0.0000000195     0.999982    0.00002676
  440      -16.3831979970      -0.0000000193     0.999982    0.00002663
  441      -16.3831980160      -0.0000000191     0.999982    0.00002650
  442      -16.3831980349      -0.0000000189     0.999982    0.00002637
  443      -16.3831980536      -0.0000000187     0.999982    0.00002624
  444      -16.3831980721      -0.0000000185     0.999982    0.00002612
  445      -16.3831980904      -0.0000000183     0.999982    0.00002599
  446      -16.3831981085      -0.0000000181     0.999982    0.00002586
  447      -16.3831981265      -0.0000000179     0.999982    0.00002574
  448      -16.3831981442      -0.0000000178     0.999982    0.00002561
  449      -16.3831981618      -0.0000000176     0.999982    0.00002549
  450      -16.3831981792      -0.0000000174     0.999982    0.00002536
  451      -16.3831981964      -0.0000000172     0.999982    0.00002524
  452      -16.3831982135      -0.0000000170     0.999982    0.00002512
  453      -16.3831982303      -0.0000000169     0.999982    0.00002500
  454      -16.3831982470      -0.0000000167     0.999982    0.00002487
  455      -16.3831982636      -0.0000000165     0.999982    0.00002475
  456      -16.3831982799      -0.0000000164     0.999982    0.00002463
  457      -16.3831982961      -0.0000000162     0.999982    0.00002451
  458      -16.3831983121      -0.0000000160     0.999982    0.00002439
  459      -16.3831983280      -0.0000000159     0.999982    0.00002427
  460      -16.3831983437      -0.0000000157     0.999982    0.00002416
  461      -16.3831983593      -0.0000000155     0.999982    0.00002404
  462      -16.3831983746      -0.0000000154     0.999982    0.00002392
  463      -16.3831983899      -0.0000000152     0.999982    0.00002380
  464      -16.3831984050      -0.0000000151     0.999982    0.00002369
  465      -16.3831984199      -0.0000000149     0.999982    0.00002357
  466      -16.3831984346      -0.0000000148     0.999982    0.00002346
  467      -16.3831984493      -0.0000000146     0.999982    0.00002334
  468      -16.3831984637      -0.0000000145     0.999982    0.00002323
  469      -16.3831984781      -0.0000000143     0.999982    0.00002312
  470      -16.3831984922      -0.0000000142     0.999982    0.00002300
  471      -16.3831985063      -0.0000000140     0.999982    0.00002289
  472      -16.3831985202      -0.0000000139     0.999982    0.00002278
  473      -16.3831985339      -0.0000000138     0.999982    0.00002267
  474      -16.3831985475      -0.0000000136     0.999982    0.00002256
  475      -16.3831985610      -0.0000000135     0.999982    0.00002245
  476      -16.3831985744      -0.0000000133     0.999982    0.00002234
  477      -16.3831985876      -0.0000000132     0.999982    0.00002223
  478      -16.3831986006      -0.0000000131     0.999982    0.00002212
  479      -16.3831986136      -0.0000000129     0.999982    0.00002201
  480      -16.3831986264      -0.0000000128     0.999982    0.00002191
  481      -16.3831986390      -0.0000000127     0.999982    0.00002180
  482      -16.3831986516      -0.0000000125     0.999982    0.00002169
  483      -16.3831986640      -0.0000000124     0.999982    0.00002159
  484      -16.3831986763      -0.0000000123     0.999982    0.00002148
  485      -16.3831986885      -0.0000000122     0.999982    0.00002138
  486      -16.3831987005      -0.0000000120     0.999982    0.00002127
  487      -16.3831987125      -0.0000000119     0.999982    0.00002117
  488      -16.3831987243      -0.0000000118     0.999982    0.00002107
  489      -16.3831987359      -0.0000000117     0.999982    0.00002096
  490      -16.3831987475      -0.0000000116     0.999983    0.00002086
  491      -16.3831987590      -0.0000000114     0.999983    0.00002076
  492      -16.3831987703      -0.0000000113     0.999983    0.00002066
  493      -16.3831987815      -0.0000000112     0.999983    0.00002056
  494      -16.3831987926      -0.0000000111     0.999983    0.00002045
  495      -16.3831988036      -0.0000000110     0.999983    0.00002035
  496      -16.3831988145      -0.0000000109     0.999983    0.00002026
  497      -16.3831988253      -0.0000000108     0.999983    0.00002016
  498      -16.3831988359      -0.0000000107     0.999983    0.00002006
  499      -16.3831988465      -0.0000000106     0.999983    0.00001996
  500      -16.3831988569      -0.0000000104     0.999983    0.00001986
  501      -16.3831988673      -0.0000000103     0.999983    0.00001976
  502      -16.3831988775      -0.0000000102     0.999983    0.00001967
  503      -16.3831988876      -0.0000000101     0.999983    0.00001957
  504      -16.3831988977      -0.0000000100     0.999983    0.00001948
  505      -16.3831989076      -0.0000000099     0.999983    0.00001938
  506      -16.3831989174      -0.0000000098     0.999983    0.00001929
  507      -16.3831989271      -0.0000000097     0.999983    0.00001919
  508      -16.3831989368      -0.0000000096     0.999983    0.00001910
  509      -16.3831989463      -0.0000000095     0.999983    0.00001900
  510      -16.3831989557      -0.0000000094     0.999983    0.00001891
  511      -16.3831989651      -0.0000000093     0.999983    0.00001882
  512      -16.3831989743      -0.0000000092     0.999983    0.00001873
  513      -16.3831989835      -0.0000000092     0.999983    0.00001863
  514      -16.3831989925      -0.0000000091     0.999983    0.00001854
  515      -16.3831990015      -0.0000000090     0.999983    0.00001845
  516      -16.3831990104      -0.0000000089     0.999983    0.00001836
  517      -16.3831990192      -0.0000000088     0.999983    0.00001827
  518      -16.3831990279      -0.0000000087     0.999983    0.00001818
  519      -16.3831990365      -0.0000000086     0.999983    0.00001809
  520      -16.3831990450      -0.0000000085     0.999983    0.00001800
  521      -16.3831990535      -0.0000000084     0.999983    0.00001792
  522      -16.3831990618      -0.0000000084     0.999983    0.00001783
  523      -16.3831990701      -0.0000000083     0.999983    0.00001774
  524      -16.3831990783      -0.0000000082     0.999983    0.00001765
  525      -16.3831990864      -0.0000000081     0.999983    0.00001757
  526      -16.3831990944      -0.0000000080     0.999983    0.00001748
  527      -16.3831991024      -0.0000000079     0.999983    0.00001740
  528      -16.3831991102      -0.0000000079     0.999983    0.00001731
  529      -16.3831991180      -0.0000000078     0.999983    0.00001723
  530      -16.3831991257      -0.0000000077     0.999983    0.00001714
  531      -16.3831991333      -0.0000000076     0.999983    0.00001706
  532      -16.3831991409      -0.0000000075     0.999983    0.00001697
  533      -16.3831991483      -0.0000000075     0.999983    0.00001689
  534      -16.3831991557      -0.0000000074     0.999983    0.00001681
  535      -16.3831991631      -0.0000000073     0.999983    0.00001672
  536      -16.3831991703      -0.0000000072     0.999983    0.00001664
  537      -16.3831991775      -0.0000000072     0.999983    0.00001656
  538      -16.3831991846      -0.0000000071     0.999983    0.00001648
  539      -16.3831991916      -0.0000000070     0.999983    0.00001640
  540      -16.3831991986      -0.0000000070     0.999983    0.00001632
  541      -16.3831992055      -0.0000000069     0.999983    0.00001624
  542      -16.3831992123      -0.0000000068     0.999983    0.00001616
  543      -16.3831992191      -0.0000000068     0.999983    0.00001608
  544      -16.3831992257      -0.0000000067     0.999983    0.00001600
  545      -16.3831992324      -0.0000000066     0.999983    0.00001592
  546      -16.3831992389      -0.0000000066     0.999983    0.00001584
  547      -16.3831992454      -0.0000000065     0.999983    0.00001576
  548      -16.3831992518      -0.0000000064     0.999983    0.00001569
  549      -16.3831992582      -0.0000000064     0.999983    0.00001561
  550      -16.3831992645      -0.0000000063     0.999983    0.00001553
  551      -16.3831992707      -0.0000000062     0.999983    0.00001546
  552      -16.3831992769      -0.0000000062     0.999983    0.00001538
  553      -16.3831992830      -0.0000000061     0.999983    0.00001531
  554      -16.3831992890      -0.0000000060     0.999983    0.00001523
  555      -16.3831992950      -0.0000000060     0.999983    0.00001516
  556      -16.3831993009      -0.0000000059     0.999983    0.00001508
  557      -16.3831993068      -0.0000000059     0.999983    0.00001501
  558      -16.3831993126      -0.0000000058     0.999983    0.00001493
  559      -16.3831993183      -0.0000000057     0.999983    0.00001486
  560      -16.3831993240      -0.0000000057     0.999983    0.00001479
  561      -16.3831993296      -0.0000000056     0.999983    0.00001471
  562      -16.3831993352      -0.0000000056     0.999983    0.00001464
  563      -16.3831993407      -0.0000000055     0.999983    0.00001457
  564      -16.3831993462      -0.0000000055     0.999983    0.00001450
  565      -16.3831993516      -0.0000000054     0.999983    0.00001443
  566      -16.3831993569      -0.0000000054     0.999983    0.00001436
  567      -16.3831993622      -0.0000000053     0.999983    0.00001429
  568      -16.3831993675      -0.0000000052     0.999983    0.00001421
  569      -16.3831993727      -0.0000000052     0.999983    0.00001415
  570      -16.3831993778      -0.0000000051     0.999983    0.00001408
  571      -16.3831993829      -0.0000000051     0.999983    0.00001401
  572      -16.3831993879      -0.0000000050     0.999983    0.00001394
  573      -16.3831993929      -0.0000000050     0.999983    0.00001387
  574      -16.3831993978      -0.0000000049     0.999983    0.00001380
  575      -16.3831994027      -0.0000000049     0.999983    0.00001373
  576      -16.3831994076      -0.0000000048     0.999983    0.00001366
  577      -16.3831994124      -0.0000000048     0.999983    0.00001360
  578      -16.3831994171      -0.0000000047     0.999983    0.00001353
  579      -16.3831994218      -0.0000000047     0.999983    0.00001346
  580      -16.3831994264      -0.0000000046     0.999983    0.00001340
  581      -16.3831994310      -0.0000000046     0.999983    0.00001333
  582      -16.3831994356      -0.0000000046     0.999983    0.00001327
  583      -16.3831994401      -0.0000000045     0.999983    0.00001320
  584      -16.3831994446      -0.0000000045     0.999983    0.00001314
  585      -16.3831994490      -0.0000000044     0.999983    0.00001307
  586      -16.3831994533      -0.0000000044     0.999984    0.00001301
  587      -16.3831994577      -0.0000000043     0.999984    0.00001294
  588      -16.3831994620      -0.0000000043     0.999984    0.00001288
  589      -16.3831994662      -0.0000000042     0.999984    0.00001282
  590      -16.3831994704      -0.0000000042     0.999984    0.00001275
  591      -16.3831994746      -0.0000000042     0.999984    0.00001269
  592      -16.3831994787      -0.0000000041     0.999984    0.00001263
  593      -16.3831994827      -0.0000000041     0.999984    0.00001257
  594      -16.3831994868      -0.0000000040     0.999984    0.00001250
  595      -16.3831994908      -0.0000000040     0.999984    0.00001244
  596      -16.3831994947      -0.0000000040     0.999984    0.00001238
  597      -16.3831994986      -0.0000000039     0.999984    0.00001232
  598      -16.3831995025      -0.0000000039     0.999984    0.00001226
  599      -16.3831995063      -0.0000000038     0.999984    0.00001220
  600      -16.3831995101      -0.0000000038     0.999984    0.00001214
  601      -16.3831995139      -0.0000000038     0.999984    0.00001208
  602      -16.3831995176      -0.0000000037     0.999984    0.00001202
  603      -16.3831995213      -0.0000000037     0.999984    0.00001196
  604      -16.3831995249      -0.0000000036     0.999984    0.00001190
  605      -16.3831995286      -0.0000000036     0.999984    0.00001184
  606      -16.3831995321      -0.0000000036     0.999984    0.00001178
  607      -16.3831995357      -0.0000000035     0.999984    0.00001173
  608      -16.3831995392      -0.0000000035     0.999984    0.00001167
  609      -16.3831995426      -0.0000000035     0.999984    0.00001161
  610      -16.3831995461      -0.0000000034     0.999984    0.00001155
  611      -16.3831995495      -0.0000000034     0.999984    0.00001150
  612      -16.3831995528      -0.0000000034     0.999984    0.00001144
  613      -16.3831995562      -0.0000000033     0.999984    0.00001138
  614      -16.3831995595      -0.0000000033     0.999984    0.00001133
  615      -16.3831995627      -0.0000000033     0.999984    0.00001127
  616      -16.3831995660      -0.0000000032     0.999984    0.00001122
  617      -16.3831995692      -0.0000000032     0.999984    0.00001116
  618      -16.3831995723      -0.0000000032     0.999984    0.00001110
  619      -16.3831995755      -0.0000000031     0.999984    0.00001105
  620      -16.3831995786      -0.0000000031     0.999984    0.00001100
  621      -16.3831995816      -0.0000000031     0.999984    0.00001094
  622      -16.3831995847      -0.0000000030     0.999984    0.00001089
  623      -16.3831995877      -0.0000000030     0.999984    0.00001083
  624      -16.3831995907      -0.0000000030     0.999984    0.00001078
  625      -16.3831995936      -0.0000000030     0.999984    0.00001073
  626      -16.3831995965      -0.0000000029     0.999984    0.00001067
  627      -16.3831995994      -0.0000000029     0.999984    0.00001062
  628      -16.3831996023      -0.0000000029     0.999984    0.00001057
  629      -16.3831996051      -0.0000000028     0.999984    0.00001052
  630      -16.3831996079      -0.0000000028     0.999984    0.00001046
  631      -16.3831996107      -0.0000000028     0.999984    0.00001041
  632      -16.3831996135      -0.0000000028     0.999984    0.00001036
  633      -16.3831996162      -0.0000000027     0.999984    0.00001031
  634      -16.3831996189      -0.0000000027     0.999984    0.00001026
  635      -16.3831996215      -0.0000000027     0.999984    0.00001021
  636      -16.3831996242      -0.0000000026     0.999984    0.00001016
  637      -16.3831996268      -0.0000000026     0.999984    0.00001011
  638      -16.3831996294      -0.0000000026     0.999984    0.00001006
  639      -16.3831996320      -0.0000000026     0.999984    0.00001001
  640      -16.3831996345      -0.0000000025     0.999984    0.00000996
  641      -16.3831996370      -0.0000000025     0.999984    0.00000991
  642      -16.3831996395      -0.0000000025     0.999984    0.00000986
  643      -16.3831996420      -0.0000000025     0.999984    0.00000981
  644      -16.3831996444      -0.0000000024     0.999984    0.00000976
  645      -16.3831996468      -0.0000000024     0.999984    0.00000972
  646      -16.3831996492      -0.0000000024     0.999984    0.00000967
  647      -16.3831996516      -0.0000000024     0.999984    0.00000962
  648      -16.3831996539      -0.0000000023     0.999984    0.00000957
  649      -16.3831996562      -0.0000000023     0.999984    0.00000953
  650      -16.3831996585      -0.0000000023     0.999984    0.00000948
  651      -16.3831996608      -0.0000000023     0.999984    0.00000943
  652      -16.3831996630      -0.0000000022     0.999984    0.00000939
  653      -16.3831996653      -0.0000000022     0.999984    0.00000934
  654      -16.3831996675      -0.0000000022     0.999984    0.00000929
  655      -16.3831996696      -0.0000000022     0.999984    0.00000925
  656      -16.3831996718      -0.0000000022     0.999984    0.00000920
  657      -16.3831996739      -0.0000000021     0.999984    0.00000916
  658      -16.3831996761      -0.0000000021     0.999984    0.00000911
  659      -16.3831996782      -0.0000000021     0.999984    0.00000907
  660      -16.3831996802      -0.0000000021     0.999984    0.00000902
  661      -16.3831996823      -0.0000000021     0.999984    0.00000898
  662      -16.3831996843      -0.0000000020     0.999984    0.00000893
  663      -16.3831996863      -0.0000000020     0.999984    0.00000889
  664      -16.3831996883      -0.0000000020     0.999984    0.00000884
  665      -16.3831996903      -0.0000000020     0.999984    0.00000880
  666      -16.3831996922      -0.0000000020     0.999984    0.00000876
  667      -16.3831996942      -0.0000000019     0.999984    0.00000871
  668      -16.3831996961      -0.0000000019     0.999984    0.00000867
  669      -16.3831996980      -0.0000000019     0.999984    0.00000863
  670      -16.3831996999      -0.0000000019     0.999984    0.00000858
  671      -16.3831997017      -0.0000000019     0.999984    0.00000854
  672      -16.3831997036      -0.0000000018     0.999984    0.00000850
  673      -16.3831997054      -0.0000000018     0.999984    0.00000846
  674      -16.3831997072      -0.0000000018     0.999984    0.00000842
  675      -16.3831997090      -0.0000000018     0.999984    0.00000837
  676      -16.3831997107      -0.0000000018     0.999984    0.00000833
  677      -16.3831997125      -0.0000000017     0.999984    0.00000829
  678      -16.3831997142      -0.0000000017     0.999984    0.00000825
  679      -16.3831997159      -0.0000000017     0.999984    0.00000821
  680      -16.3831997176      -0.0000000017     0.999984    0.00000817
  681      -16.3831997193      -0.0000000017     0.999984    0.00000813
  682      -16.3831997210      -0.0000000017     0.999984    0.00000809
  683      -16.3831997226      -0.0000000016     0.999984    0.00000805
  684      -16.3831997243      -0.0000000016     0.999984    0.00000801
  685      -16.3831997259      -0.0000000016     0.999984    0.00000797
  686      -16.3831997275      -0.0000000016     0.999984    0.00000793
  687      -16.3831997290      -0.0000000016     0.999984    0.00000789
  688      -16.3831997306      -0.0000000016     0.999984    0.00000785
  689      -16.3831997322      -0.0000000016     0.999984    0.00000781
  690      -16.3831997337      -0.0000000015     0.999984    0.00000777
  691      -16.3831997352      -0.0000000015     0.999984    0.00000774
  692      -16.3831997367      -0.0000000015     0.999984    0.00000770
  693      -16.3831997382      -0.0000000015     0.999984    0.00000766
  694      -16.3831997397      -0.0000000015     0.999984    0.00000762
  695      -16.3831997411      -0.0000000015     0.999984    0.00000758
  696      -16.3831997426      -0.0000000014     0.999984    0.00000755
  697      -16.3831997440      -0.0000000014     0.999984    0.00000751
  698      -16.3831997454      -0.0000000014     0.999984    0.00000747
  699      -16.3831997468      -0.0000000014     0.999984    0.00000744
  700      -16.3831997482      -0.0000000014     0.999984    0.00000740
  701      -16.3831997496      -0.0000000014     0.999984    0.00000736
  702      -16.3831997510      -0.0000000014     0.999984    0.00000733
  703      -16.3831997523      -0.0000000013     0.999984    0.00000729
  704      -16.3831997537      -0.0000000013     0.999984    0.00000725
  705      -16.3831997550      -0.0000000013     0.999984    0.00000722
  706      -16.3831997563      -0.0000000013     0.999984    0.00000718
  707      -16.3831997576      -0.0000000013     0.999984    0.00000715
  708      -16.3831997589      -0.0000000013     0.999984    0.00000711
  709      -16.3831997601      -0.0000000013     0.999984    0.00000708
  710      -16.3831997614      -0.0000000013     0.999984    0.00000704
  711      -16.3831997626      -0.0000000012     0.999984    0.00000701
  712      -16.3831997639      -0.0000000012     0.999984    0.00000697
  713      -16.3831997651      -0.0000000012     0.999984    0.00000694
  714      -16.3831997663      -0.0000000012     0.999984    0.00000690
  715      -16.3831997675      -0.0000000012     0.999984    0.00000687
  716      -16.3831997687      -0.0000000012     0.999984    0.00000683
  717      -16.3831997698      -0.0000000012     0.999984    0.00000680
  718      -16.3831997710      -0.0000000012     0.999984    0.00000677
  719      -16.3831997721      -0.0000000011     0.999984    0.00000673
  720      -16.3831997733      -0.0000000011     0.999984    0.00000670
  721      -16.3831997744      -0.0000000011     0.999984    0.00000667
  722      -16.3831997755      -0.0000000011     0.999984    0.00000663
  723      -16.3831997766      -0.0000000011     0.999984    0.00000660
  724      -16.3831997777      -0.0000000011     0.999984    0.00000657
  725      -16.3831997788      -0.0000000011     0.999984    0.00000654
  726      -16.3831997798      -0.0000000011     0.999984    0.00000650
  727      -16.3831997809      -0.0000000011     0.999984    0.00000647
  728      -16.3831997820      -0.0000000010     0.999984    0.00000644
  729      -16.3831997830      -0.0000000010     0.999984    0.00000641
  730      -16.3831997840      -0.0000000010     0.999984    0.00000638
  731      -16.3831997850      -0.0000000010     0.999984    0.00000634
  732      -16.3831997860      -0.0000000010     0.999984    0.00000631
  733      -16.3831997870      -0.0000000010     0.999984    0.00000628
  734      -16.3831997880      -0.0000000010     0.999984    0.00000625
  735      -16.3831997890      -0.0000000010     0.999984    0.00000622
  736      -16.3831997900      -0.0000000010     0.999984    0.00000619
  737      -16.3831997909      -0.0000000010     0.999984    0.00000616
  738      -16.3831997919      -0.0000000009     0.999984    0.00000613
  739      -16.3831997928      -0.0000000009     0.999984    0.00000610
  740      -16.3831997938      -0.0000000009     0.999984    0.00000607
  741      -16.3831997947      -0.0000000009     0.999984    0.00000604
  742      -16.3831997956      -0.0000000009     0.999984    0.00000601
  743      -16.3831997965      -0.0000000009     0.999984    0.00000598
  744      -16.3831997974      -0.0000000009     0.999984    0.00000595
  745      -16.3831997983      -0.0000000009     0.999984    0.00000592
  746      -16.3831997991      -0.0000000009     0.999984    0.00000589
  747      -16.3831998000      -0.0000000009     0.999984    0.00000586
  748      -16.3831998009      -0.0000000009     0.999984    0.00000583
  749      -16.3831998017      -0.0000000008     0.999984    0.00000580
  750      -16.3831998026      -0.0000000008     0.999984    0.00000577
  751      -16.3831998034      -0.0000000008     0.999984    0.00000574
  752      -16.3831998042      -0.0000000008     0.999984    0.00000572
  753      -16.3831998050      -0.0000000008     0.999984    0.00000569
  754      -16.3831998058      -0.0000000008     0.999984    0.00000566
  755      -16.3831998066      -0.0000000008     0.999984    0.00000563
  756      -16.3831998074      -0.0000000008     0.999984    0.00000560
  757      -16.3831998082      -0.0000000008     0.999984    0.00000558
  758      -16.3831998090      -0.0000000008     0.999984    0.00000555
  759      -16.3831998098      -0.0000000008     0.999984    0.00000552
  760      -16.3831998105      -0.0000000008     0.999984    0.00000549
  761      -16.3831998113      -0.0000000008     0.999984    0.00000547
  762      -16.3831998120      -0.0000000007     0.999984    0.00000544
  763      -16.3831998128      -0.0000000007     0.999984    0.00000541
  764      -16.3831998135      -0.0000000007     0.999984    0.00000539
  765      -16.3831998142      -0.0000000007     0.999984    0.00000536
  766      -16.3831998149      -0.0000000007     0.999984    0.00000533
  767      -16.3831998156      -0.0000000007     0.999984    0.00000531
  768      -16.3831998163      -0.0000000007     0.999984    0.00000528
  769      -16.3831998170      -0.0000000007     0.999984    0.00000525
  770      -16.3831998177      -0.0000000007     0.999984    0.00000523
  771      -16.3831998184      -0.0000000007     0.999984    0.00000520
  772      -16.3831998191      -0.0000000007     0.999984    0.00000518
  773      -16.3831998197      -0.0000000007     0.999984    0.00000515
  774      -16.3831998204      -0.0000000007     0.999984    0.00000512
  775      -16.3831998211      -0.0000000007     0.999984    0.00000510
  776      -16.3831998217      -0.0000000006     0.999984    0.00000507
  777      -16.3831998223      -0.0000000006     0.999984    0.00000505
  778      -16.3831998230      -0.0000000006     0.999984    0.00000502
  779      -16.3831998236      -0.0000000006     0.999984    0.00000500
  780      -16.3831998242      -0.0000000006     0.999984    0.00000497
  781      -16.3831998249      -0.0000000006     0.999984    0.00000495
  782      -16.3831998255      -0.0000000006     0.999984    0.00000492
  783      -16.3831998261      -0.0000000006     0.999984    0.00000490
  784      -16.3831998267      -0.0000000006     0.999985    0.00000488
  785      -16.3831998273      -0.0000000006     0.999985    0.00000485
  786      -16.3831998278      -0.0000000006     0.999985    0.00000483
  787      -16.3831998284      -0.0000000006     0.999985    0.00000480
  788      -16.3831998290      -0.0000000006     0.999985    0.00000478
  789      -16.3831998296      -0.0000000006     0.999985    0.00000476
  790      -16.3831998301      -0.0000000006     0.999985    0.00000473
  791      -16.3831998307      -0.0000000006     0.999985    0.00000471
  792      -16.3831998312      -0.0000000006     0.999985    0.00000469
  793      -16.3831998318      -0.0000000005     0.999985    0.00000466
  794      -16.3831998323      -0.0000000005     0.999985    0.00000464
  795      -16.3831998329      -0.0000000005     0.999985    0.00000462
  796      -16.3831998334      -0.0000000005     0.999985    0.00000459
  797      -16.3831998339      -0.0000000005     0.999985    0.00000457
  798      -16.3831998344      -0.0000000005     0.999985    0.00000455
  799      -16.3831998350      -0.0000000005     0.999985    0.00000453
  800      -16.3831998355      -0.0000000005     0.999985    0.00000450
  801      -16.3831998360      -0.0000000005     0.999985    0.00000448
  802      -16.3831998365      -0.0000000005     0.999985    0.00000446
  803      -16.3831998370      -0.0000000005     0.999985    0.00000444
  804      -16.3831998375      -0.0000000005     0.999985    0.00000441
  805      -16.3831998379      -0.0000000005     0.999985    0.00000439
  806      -16.3831998384      -0.0000000005     0.999985    0.00000437
  807      -16.3831998389      -0.0000000005     0.999985    0.00000435
  808      -16.3831998394      -0.0000000005     0.999985    0.00000433
  809      -16.3831998398      -0.0000000005     0.999985    0.00000431
  810      -16.3831998403      -0.0000000005     0.999985    0.00000429
  811      -16.3831998407      -0.0000000005     0.999985    0.00000426
  812      -16.3831998412      -0.0000000005     0.999985    0.00000424
  813      -16.3831998416      -0.0000000004     0.999985    0.00000422
  814      -16.3831998421      -0.0000000004     0.999985    0.00000420
  815      -16.3831998425      -0.0000000004     0.999985    0.00000418
  816      -16.3831998430      -0.0000000004     0.999985    0.00000416
  817      -16.3831998434      -0.0000000004     0.999985    0.00000414
  818      -16.3831998438      -0.0000000004     0.999985    0.00000412
  819      -16.3831998442      -0.0000000004     0.999985    0.00000410
  820      -16.3831998447      -0.0000000004     0.999985    0.00000408
  821      -16.3831998451      -0.0000000004     0.999985    0.00000406
  822      -16.3831998455      -0.0000000004     0.999985    0.00000404
  823      -16.3831998459      -0.0000000004     0.999985    0.00000402
  824      -16.3831998463      -0.0000000004     0.999985    0.00000400
  825      -16.3831998467      -0.0000000004     0.999985    0.00000398
  826      -16.3831998471      -0.0000000004     0.999985    0.00000396
  827      -16.3831998475      -0.0000000004     0.999985    0.00000394
  828      -16.3831998478      -0.0000000004     0.999985    0.00000392
  829      -16.3831998482      -0.0000000004     0.999985    0.00000390
  830      -16.3831998486      -0.0000000004     0.999985    0.00000388
  831      -16.3831998490      -0.0000000004     0.999985    0.00000386
  832      -16.3831998494      -0.0000000004     0.999985    0.00000384
  833      -16.3831998497      -0.0000000004     0.999985    0.00000382
  834      -16.3831998501      -0.0000000004     0.999985    0.00000380
  835      -16.3831998504      -0.0000000004     0.999985    0.00000378
  836      -16.3831998508      -0.0000000004     0.999985    0.00000377
  837      -16.3831998511      -0.0000000004     0.999985    0.00000375
  838      -16.3831998515      -0.0000000003     0.999985    0.00000373
  839      -16.3831998518      -0.0000000003     0.999985    0.00000371
  840      -16.3831998522      -0.0000000003     0.999985    0.00000369
  841      -16.3831998525      -0.0000000003     0.999985    0.00000367
  842      -16.3831998529      -0.0000000003     0.999985    0.00000365
  843      -16.3831998532      -0.0000000003     0.999985    0.00000364
  844      -16.3831998535      -0.0000000003     0.999985    0.00000362
  845      -16.3831998538      -0.0000000003     0.999985    0.00000360
  846      -16.3831998542      -0.0000000003     0.999985    0.00000358
  847      -16.3831998545      -0.0000000003     0.999985    0.00000357
  848      -16.3831998548      -0.0000000003     0.999985    0.00000355
  849      -16.3831998551      -0.0000000003     0.999985    0.00000353
  850      -16.3831998554      -0.0000000003     0.999985    0.00000351
  851      -16.3831998557      -0.0000000003     0.999985    0.00000350
  852      -16.3831998560      -0.0000000003     0.999985    0.00000348
  853      -16.3831998563      -0.0000000003     0.999985    0.00000346
  854      -16.3831998566      -0.0000000003     0.999985    0.00000344
  855      -16.3831998569      -0.0000000003     0.999985    0.00000343
  856      -16.3831998572      -0.0000000003     0.999985    0.00000341
  857      -16.3831998575      -0.0000000003     0.999985    0.00000339
  858      -16.3831998578      -0.0000000003     0.999985    0.00000338
  859      -16.3831998581      -0.0000000003     0.999985    0.00000336
  860      -16.3831998583      -0.0000000003     0.999985    0.00000334
  861      -16.3831998586      -0.0000000003     0.999985    0.00000333
  862      -16.3831998589      -0.0000000003     0.999985    0.00000331
  863      -16.3831998592      -0.0000000003     0.999985    0.00000329
  864      -16.3831998594      -0.0000000003     0.999985    0.00000328
  865      -16.3831998597      -0.0000000003     0.999985    0.00000326
  866      -16.3831998600      -0.0000000003     0.999985    0.00000324
  867      -16.3831998602      -0.0000000003     0.999985    0.00000323
  868      -16.3831998605      -0.0000000003     0.999985    0.00000321
  869      -16.3831998607      -0.0000000003     0.999985    0.00000320
  870      -16.3831998610      -0.0000000003     0.999985    0.00000318
  871      -16.3831998612      -0.0000000003     0.999985    0.00000316
  872      -16.3831998615      -0.0000000002     0.999985    0.00000315
  873      -16.3831998617      -0.0000000002     0.999985    0.00000313
  874      -16.3831998620      -0.0000000002     0.999985    0.00000312
  875      -16.3831998622      -0.0000000002     0.999985    0.00000310
  876      -16.3831998625      -0.0000000002     0.999985    0.00000309
  877      -16.3831998627      -0.0000000002     0.999985    0.00000307
  878      -16.3831998629      -0.0000000002     0.999985    0.00000306
  879      -16.3831998632      -0.0000000002     0.999985    0.00000304
  880      -16.3831998634      -0.0000000002     0.999985    0.00000303
  881      -16.3831998636      -0.0000000002     0.999985    0.00000301
  882      -16.3831998638      -0.0000000002     0.999985    0.00000300
  883      -16.3831998641      -0.0000000002     0.999985    0.00000298
  884      -16.3831998643      -0.0000000002     0.999985    0.00000297
  885      -16.3831998645      -0.0000000002     0.999985    0.00000295
  886      -16.3831998647      -0.0000000002     0.999985    0.00000294
  887      -16.3831998649      -0.0000000002     0.999985    0.00000292
  888      -16.3831998651      -0.0000000002     0.999985    0.00000291
  889      -16.3831998654      -0.0000000002     0.999985    0.00000289
  890      -16.3831998656      -0.0000000002     0.999985    0.00000288
  891      -16.3831998658      -0.0000000002     0.999985    0.00000286
  892      -16.3831998660      -0.0000000002     0.999985    0.00000285
  893      -16.3831998662      -0.0000000002     0.999985    0.00000284
  894      -16.3831998664      -0.0000000002     0.999985    0.00000282
  895      -16.3831998666      -0.0000000002     0.999985    0.00000281
  896      -16.3831998668      -0.0000000002     0.999985    0.00000279
  897      -16.3831998670      -0.0000000002     0.999985    0.00000278
  898      -16.3831998671      -0.0000000002     0.999985    0.00000277
  899      -16.3831998673      -0.0000000002     0.999985    0.00000275
  900      -16.3831998675      -0.0000000002     0.999985    0.00000274
  901      -16.3831998677      -0.0000000002     0.999985    0.00000273
  902      -16.3831998679      -0.0000000002     0.999985    0.00000271
  903      -16.3831998681      -0.0000000002     0.999985    0.00000270
  904      -16.3831998683      -0.0000000002     0.999985    0.00000269
  905      -16.3831998684      -0.0000000002     0.999985    0.00000267
  906      -16.3831998686      -0.0000000002     0.999985    0.00000266
  907      -16.3831998688      -0.0000000002     0.999985    0.00000265
  908      -16.3831998690      -0.0000000002     0.999985    0.00000263
  909      -16.3831998691      -0.0000000002     0.999985    0.00000262
  910      -16.3831998693      -0.0000000002     0.999985    0.00000261
  911      -16.3831998695      -0.0000000002     0.999985    0.00000259
  912      -16.3831998696      -0.0000000002     0.999985    0.00000258
  913      -16.3831998698      -0.0000000002     0.999985    0.00000257
  914      -16.3831998700      -0.0000000002     0.999985    0.00000255
  915      -16.3831998701      -0.0000000002     0.999985    0.00000254
  916      -16.3831998703      -0.0000000002     0.999985    0.00000253
  917      -16.3831998704      -0.0000000002     0.999985    0.00000252
  918      -16.3831998706      -0.0000000002     0.999985    0.00000250
  919      -16.3831998707      -0.0000000002     0.999985    0.00000249
  920      -16.3831998709      -0.0000000002     0.999985    0.00000248
  921      -16.3831998711      -0.0000000002     0.999985    0.00000247
  922      -16.3831998712      -0.0000000002     0.999985    0.00000246
  923      -16.3831998714      -0.0000000001     0.999985    0.00000244
  924      -16.3831998715      -0.0000000001     0.999985    0.00000243
  925      -16.3831998716      -0.0000000001     0.999985    0.00000242
  926      -16.3831998718      -0.0000000001     0.999985    0.00000241
  927      -16.3831998719      -0.0000000001     0.999985    0.00000239
  928      -16.3831998721      -0.0000000001     0.999985    0.00000238
  929      -16.3831998722      -0.0000000001     0.999985    0.00000237
  930      -16.3831998724      -0.0000000001     0.999985    0.00000236
  931      -16.3831998725      -0.0000000001     0.999985    0.00000235
  932      -16.3831998726      -0.0000000001     0.999985    0.00000234
  933      -16.3831998728      -0.0000000001     0.999985    0.00000232
  934      -16.3831998729      -0.0000000001     0.999985    0.00000231
  935      -16.3831998730      -0.0000000001     0.999985    0.00000230
  936      -16.3831998732      -0.0000000001     0.999985    0.00000229
  937      -16.3831998733      -0.0000000001     0.999985    0.00000228
  938      -16.3831998734      -0.0000000001     0.999985    0.00000227
  939      -16.3831998735      -0.0000000001     0.999985    0.00000226
  940      -16.3831998737      -0.0000000001     0.999985    0.00000224
  941      -16.3831998738      -0.0000000001     0.999985    0.00000223
  942      -16.3831998739      -0.0000000001     0.999985    0.00000222
  943      -16.3831998740      -0.0000000001     0.999985    0.00000221
  944      -16.3831998742      -0.0000000001     0.999985    0.00000220
  945      -16.3831998743      -0.0000000001     0.999985    0.00000219
  946      -16.3831998744      -0.0000000001     0.999985    0.00000218
  947      -16.3831998745      -0.0000000001     0.999985    0.00000217
  948      -16.3831998746      -0.0000000001     0.999985    0.00000216
  949      -16.3831998748      -0.0000000001     0.999985    0.00000215
  950      -16.3831998749      -0.0000000001     0.999985    0.00000214
  951      -16.3831998750      -0.0000000001     0.999985    0.00000213
  952      -16.3831998751      -0.0000000001     0.999985    0.00000211
  953      -16.3831998752      -0.0000000001     0.999985    0.00000210
  954      -16.3831998753      -0.0000000001     0.999985    0.00000209
  955      -16.3831998754      -0.0000000001     0.999985    0.00000208
  956      -16.3831998755      -0.0000000001     0.999985    0.00000207
  957      -16.3831998756      -0.0000000001     0.999985    0.00000206
  958      -16.3831998757      -0.0000000001     0.999985    0.00000205
  959      -16.3831998758      -0.0000000001     0.999985    0.00000204
  960      -16.3831998759      -0.0000000001     0.999985    0.00000203
  961      -16.3831998760      -0.0000000001     0.999985    0.00000202
  962      -16.3831998761      -0.0000000001     0.999985    0.00000201
  963      -16.3831998762      -0.0000000001     0.999985    0.00000200
  964      -16.3831998763      -0.0000000001     0.999985    0.00000199
  965      -16.3831998764      -0.0000000001     0.999985    0.00000198
  966      -16.3831998765      -0.0000000001     0.999985    0.00000197
  967      -16.3831998766      -0.0000000001     0.999985    0.00000196
  968      -16.3831998767      -0.0000000001     0.999985    0.00000195
  969      -16.3831998768      -0.0000000001     0.999985    0.00000194
  970      -16.3831998769      -0.0000000001     0.999985    0.00000193
  971      -16.3831998770      -0.0000000001     0.999985    0.00000192
  972      -16.3831998771      -0.0000000001     0.999985    0.00000191
  973      -16.3831998772      -0.0000000001     0.999985    0.00000190
  974      -16.3831998773      -0.0000000001     0.999985    0.00000190
  975      -16.3831998774      -0.0000000001     0.999985    0.00000189
  976      -16.3831998775      -0.0000000001     0.999985    0.00000188
  977      -16.3831998775      -0.0000000001     0.999985    0.00000187
  978      -16.3831998776      -0.0000000001     0.999985    0.00000186
  979      -16.3831998777      -0.0000000001     0.999985    0.00000185
  980      -16.3831998778      -0.0000000001     0.999985    0.00000184
  981      -16.3831998779      -0.0000000001     0.999985    0.00000183
  982      -16.3831998780      -0.0000000001     0.999985    0.00000182
  983      -16.3831998780      -0.0000000001     0.999985    0.00000181
  984      -16.3831998781      -0.0000000001     0.999985    0.00000180
  985      -16.3831998782      -0.0000000001     0.999985    0.00000179
  986      -16.3831998783      -0.0000000001     0.999985    0.00000179
  987      -16.3831998784      -0.0000000001     0.999985    0.00000178
  988      -16.3831998784      -0.0000000001     0.999985    0.00000177
  989      -16.3831998785      -0.0000000001     0.999985    0.00000176
  990      -16.3831998786      -0.0000000001     0.999985    0.00000175
  991      -16.3831998787      -0.0000000001     0.999985    0.00000174
  992      -16.3831998787      -0.0000000001     0.999985    0.00000173
  993      -16.3831998788      -0.0000000001     0.999985    0.00000172
  994      -16.3831998789      -0.0000000001     0.999985    0.00000172
  995      -16.3831998790      -0.0000000001     0.999985    0.00000171
  996      -16.3831998790      -0.0000000001     0.999985    0.00000170
  997      -16.3831998791      -0.0000000001     0.999985    0.00000169
  998      -16.3831998792      -0.0000000001     0.999985    0.00000168
  999      -16.3831998793      -0.0000000001     0.999985    0.00000167
 1000      -16.3831998793      -0.0000000001     0.999985    0.00000167

Total Energy:                      -16.3831998793 H         -445.8096 eV
Extrapolated to 0:                 -16.3594402522 H         -445.1630 eV

----------------------------------------------------------------------------------
 Solving CP-REKS equation for  1 state vector...
----------------------------------------------------------------------------------
  CG solver: Constructing Y initial guess
  CG solver: Iteration    1    eps =    0.051894350304
  CG solver: Iteration    2    eps =    0.024076727345
  CG solver: Iteration    3    eps =    0.007011692605
  CG solver: Iteration    4    eps =    0.012124023969
  CG solver: Iteration    5    eps =    0.047574440930
  CG solver: Iteration    6    eps =    0.036855027817
  CG solver: Iteration    7    eps =    0.034580547447
  CG solver: Iteration    8    eps =    0.016251230366
  CG solver: Iteration    9    eps =    0.004232062890
  CG solver: Iteration   10    eps =    0.001817035174
  CG solver: Iteration   11    eps =    0.001174901316
  CG solver: Iteration   12    eps =    0.000165601743
  CG solver: Iteration   13    eps =    0.000022675653
  CG solver: Iteration   14    eps =    0.000002365247
  CG solver: Iteration   15    eps =    0.000000152519
  CG solver: Iteration   16    eps =    0.000000007379
  Convergence reached in CG solver after   16 iterations
  CG solver: Calculating converged R, Z, Q2 matrix
----------------------------------------------------------------------------------

----------------------------------------------------------------------------------
 Solving CP-REKS equation for SI between  1 and  2 state vectors...
----------------------------------------------------------------------------------
  CG solver: Constructing Y initial guess
  CG solver: Iteration    1    eps =    0.040422600036
  CG solver: Iteration    2    eps =    0.003951755811
  CG solver: Iteration    3    eps =    0.001039307869
  CG solver: Iteration    4    eps =    0.002121275856
  CG solver: Iteration    5    eps =    0.000758460912
  CG solver: Iteration    6    eps =    0.001067841062
  CG solver: Iteration    7    eps =    0.007272049497
  CG solver: Iteration    8    eps =    0.003240502230
  CG solver: Iteration    9    eps =    0.000488149760
  CG solver: Iteration   10    eps =    0.000105675257
  CG solver: Iteration   11    eps =    0.000022832050
  CG solver: Iteration   12    eps =    0.000001841900
  CG solver: Iteration   13    eps =    0.000000177588
  CG solver: Iteration   14    eps =    0.000000030048
  CG solver: Iteration   15    eps =    0.000000001465
  Convergence reached in CG solver after   15 iterations
  CG solver: Calculating converged R, Z, Q2 matrix
----------------------------------------------------------------------------------

--------------------------------------------------
 Gradient Information
--------------------------------------------------
           1 st state (SSR)
     0.00000000     0.00000000     0.00000000
     0.00000000     0.00000000     0.00000000
     0.00000000     0.00000000     0.00000000
     0.00000000     0.00000000     0.00000000
     0.00000000     0.00000000     0.00000000
     0.00000000     0.00000000     0.00000000
     0.00000000     0.00000000     0.00000000
     0.00000000     0.00000000     0.00000000
     0.00000000     0.00000000     0.00000000
     0.00000000     0.00000000     0.00000000
     0.00000000     0.00000000     0.00000000
     0.00000000     0.00000000     0.00000000
     0.00000000     0.00000000     0.00000000
     0.00000000     0.00000000     0.00000000

           2 st state (SSR)
     0.00000000     0.00000000     0.00000000
     0.00000000     0.00000000     0.00000000
     0.00000000     0.00000000     0.00000000
     0.00000000     0.00000000     0.00000000
     0.00000000     0.00000000     0.00000000
     0.00000000     0.00000000     0.00000000
     0.00000000     0.00000000     0.00000000
     0.00000000     0.00000000     0.00000000
     0.00000000     0.00000000     0.00000000
     0.00000000     0.00000000     0.00000000
     0.00000000     0.00000000     0.00000000
     0.00000000     0.00000000     0.00000000
     0.00000000     0.00000000     0.00000000
     0.00000000     0.00000000     0.00000000
--------------------------------------------------
 Coupling Information
--------------------------------------------------
 between  1 and  2 states
--------------------------------------------------
 g vector - difference gradient
    -0.17670526     0.57307252     0.06153550
    -0.30161315    -0.44713952     0.38309226
     0.07437160    -0.10877082    -0.03043602
    -0.02776117     0.12387990     0.03396035
     0.33073428    -0.29166360    -0.16682829
    -0.37092640     0.18046134    -0.31436019
     0.22928351     0.27841196    -0.04845092
    -0.08688789    -0.13973479     0.08023261
     0.12326335    -0.17316970     0.04699523
    -0.07393722    -0.11326019    -0.00547964
     0.13586491     0.06637853    -0.00956795
     0.15659540    -0.03529408    -0.00315059
    -0.14810249     0.08009498    -0.07169008
     0.13582054     0.00673347     0.04414773

 h vector - derivative coupling
    -0.02906945     0.11155538     0.01562475
    -0.11659397    -0.06435436     0.04148138
     0.06553518    -0.02896974     0.00578887
    -0.02159545     0.01925430    -0.00347033
     0.08944585    -0.04520070     0.02555006
    -0.18775123     0.02205235    -0.09016554
     0.13715192     0.03279158    -0.00832181
    -0.01685340    -0.04155214     0.02548696
     0.00578365    -0.01603298     0.01168557
     0.02625224    -0.03061582    -0.03757711
     0.04185729     0.02066697     0.01775029
     0.00173589     0.02440311     0.00104157
     0.01131129    -0.00847494     0.00099543
    -0.00720980     0.00447700    -0.00587010

 G vector - GDV
     0.00000000     0.00000000     0.00000000
     0.00000000     0.00000000     0.00000000
     0.00000000     0.00000000     0.00000000
     0.00000000     0.00000000     0.00000000
     0.00000000     0.00000000     0.00000000
     0.00000000     0.00000000     0.00000000
     0.00000000     0.00000000     0.00000000
     0.00000000     0.00000000     0.00000000
     0.00000000     0.00000000     0.00000000
     0.00000000     0.00000000     0.00000000
     0.00000000     0.00000000     0.00000000
     0.00000000     0.00000000     0.00000000
     0.00000000     0.00000000     0.00000000
     0.00000000     0.00000000     0.00000000

 H vector - DCV - non-adiabatic coupling
     0.00000000     0.00000000     0.00000000
     0.00000000     0.00000000     0.00000000
     0.00000000     0.00000000     0.00000000
     0.00000000     0.00000000     0.00000000
     0.00000000     0.00000000     0.00000000
     0.00000000     0.00000000     0.00000000
     0.00000000     0.00000000     0.00000000
     0.00000000     0.00000000     0.00000000
     0.00000000     0.00000000     0.00000000
     0.00000000     0.00000000     0.00000000
     0.00000000     0.00000000     0.00000000
     0.00000000     0.00000000     0.00000000
     0.00000000     0.00000000     0.00000000
     0.00000000     0.00000000     0.00000000
--------------------------------------------------

WARNING!
-> SCC is NOT converged, maximal SCC iterations exceeded

--------------------------------------------------------------------------------
DFTB+ running times                          cpu [s]             wall clock [s]
--------------------------------------------------------------------------------
SCC                                    +     1.43  ( 77.8%)      1.44  ( 77.5%)
      Sparse to dense                        0.08  (  4.1%)      0.10  (  5.2%)
      Dense to sparse                        0.26  ( 14.2%)      0.24  ( 13.1%)
      Range separated Hamiltonian            0.12  (  6.7%)      0.13  (  7.0%)
  Density matrix creation                    0.16  (  8.5%)      0.16  (  8.5%)
  Force calculation                          0.41  ( 22.1%)      0.41  ( 22.1%)
--------------------------------------------------------------------------------
Missing                                +     0.41  ( 22.2%)      0.42  ( 22.5%)
Total                                  =     1.84  (100.0%)      1.85  (100.0%)
--------------------------------------------------------------------------------
