 Fermi distribution function

Calculation with static geometry


********************************************************************************
 iSCC Total electronic   Diff electronic      SCC error    
   13   -0.53133432E+01   -0.11841372E-09    0.55910307E-06
********************************************************************************

 Total charge:     1.00000000

 Atomic gross charges (e)
 Atom           Charge
    1       0.31746085
    2      -0.22344593
    3       0.17654468
    4       0.28912919
    5       0.27033101
    6       0.16998019

Nr. of electrons (up):     12.00000000
Atom populations (up)
 Atom       Population
    1       3.68253915
    2       5.22344593
    3       0.82345532
    4       0.71087081
    5       0.72966899
    6       0.83001981

l-shell populations (up)
 Atom Sh.   l       Population
    1   1   0       1.37572298
    1   2   1       2.30681617
    2   1   0       1.47271743
    2   2   1       3.75072850
    3   1   0       0.82345532
    4   1   0       0.71087081
    5   1   0       0.72966899
    6   1   0       0.83001981

Orbital populations (up)
 Atom Sh.   l   m       Population  Label
    1   1   0   0       1.37572298  s
    1   2   1  -1       0.48128852  p_y
    1   2   1   0       0.86400596  p_z
    1   2   1   1       0.96152169  p_x
    2   1   0   0       1.47271743  s
    2   2   1  -1       1.36395984  p_y
    2   2   1   0       1.05779666  p_z
    2   2   1   1       1.32897200  p_x
    3   1   0   0       0.82345532  s
    4   1   0   0       0.71087081  s
    5   1   0   0       0.72966899  s
    6   1   0   0       0.83001981  s

Fermi level:                        -0.4957728392 H          -13.4907 eV
Band energy:                        -8.6743182194 H         -236.0402 eV
TS:                                  0.0000000000 H            0.0000 eV
Band free energy (E-TS):            -8.6743182194 H         -236.0402 eV
Extrapolated E(0K):                 -8.6743182194 H         -236.0402 eV
Input / Output electrons (q):     12.0000000000     12.0000000000

Energy H0:                          -5.4453722272 H         -148.1761 eV
Energy SCC:                          0.1320290715 H            3.5927 eV
Total Electronic energy:            -5.3133431557 H         -144.5834 eV
Repulsive energy:                    0.1460011909 H            3.9729 eV
Total energy:                       -5.1673419648 H         -140.6105 eV
Extrapolated to 0:                  -5.1673419648 H         -140.6105 eV
Total Mermin free energy:           -5.1673419648 H         -140.6105 eV
Force related energy:               -5.1673419648 H         -140.6105 eV

SCC converged

Excitation Energy:                   0.0993030960 H            2.7022 eV

Total Forces
    1     -0.002106698272     -0.002792222128      0.084866895345
    2      0.006046191732      0.001346956422     -0.081414140260
    3     -0.008467474886      0.012137877626      0.004244967204
    4     -0.017405196916     -0.008089217823     -0.006350700805
    5      0.012179265561      0.011024035650     -0.002512789614
    6      0.009753912781     -0.013627429746      0.001165768129

Maximal derivative component:        0.848669E-01 au


