 Fermi distribution function

Calculation with static geometry


********************************************************************************
 iSCC Total electronic   Diff electronic      SCC error    
   13   -0.52906763E+01   -0.27235103E-10    0.11771952E-06
********************************************************************************

 Total charge:     1.00000000

 Atomic gross charges (e)
 Atom           Charge
    1       0.31332785
    2      -0.20092510
    3       0.18199327
    4       0.27751005
    5       0.25980429
    6       0.16828964

Nr. of electrons (up):     12.00000000
Atom populations (up)
 Atom       Population
    1       3.68667215
    2       5.20092510
    3       0.81800673
    4       0.72248995
    5       0.74019571
    6       0.83171036

l-shell populations (up)
 Atom Sh.   l       Population
    1   1   0       1.38346990
    1   2   1       2.30320225
    2   1   0       1.50186538
    2   2   1       3.69905972
    3   1   0       0.81800673
    4   1   0       0.72248995
    5   1   0       0.74019571
    6   1   0       0.83171036

Orbital populations (up)
 Atom Sh.   l   m       Population  Label
    1   1   0   0       1.38346990  s
    1   2   1  -1       0.43774047  p_y
    1   2   1   0       0.88021686  p_z
    1   2   1   1       0.98524493  p_x
    2   1   0   0       1.50186538  s
    2   2   1  -1       1.29720566  p_y
    2   2   1   0       1.12332866  p_z
    2   2   1   1       1.27852540  p_x
    3   1   0   0       0.81800673  s
    4   1   0   0       0.72248995  s
    5   1   0   0       0.74019571  s
    6   1   0   0       0.83171036  s

Fermi level:                        -0.5115233941 H          -13.9193 eV
Band energy:                        -8.7155582488 H         -237.1624 eV
TS:                                  0.0000000000 H            0.0000 eV
Band free energy (E-TS):            -8.7155582488 H         -237.1624 eV
Extrapolated E(0K):                 -8.7155582488 H         -237.1624 eV
Input / Output electrons (q):     12.0000000000     12.0000000000

Energy H0:                          -5.4274515525 H         -147.6885 eV
Energy SCC:                          0.1367752842 H            3.7218 eV
Total Electronic energy:            -5.2906762683 H         -143.9666 eV
Repulsive energy:                    0.1416319830 H            3.8540 eV
Total energy:                       -5.1490442854 H         -140.1126 eV
Extrapolated to 0:                  -5.1490442854 H         -140.1126 eV
Total Mermin free energy:           -5.1490442854 H         -140.1126 eV
Force related energy:               -5.1490442854 H         -140.1126 eV

SCC converged

Excitation Energy:                   0.0953121367 H            2.5936 eV

Total Forces
    1     -0.008038987858     -0.011373995516      0.064424221016
    2      0.013052840178     -0.013410691003     -0.072977909927
    3     -0.006004597182      0.014086119666      0.003224912272
    4     -0.011183880954     -0.000825319494      0.001200697229
    5      0.000243028430      0.015052125704      0.002888770785
    6      0.011931597386     -0.003528239356      0.001239308625

Maximal derivative component:        0.729779E-01 au


