|===============================================================================
|
|  DFTB+ release 20.1
|
|  Copyright (C) 2006 - 2020  DFTB+ developers group
|
|===============================================================================
|
|  When publishing results obtained with DFTB+, please cite the following
|  reference:
|
|  * DFTB+, a software package for efficient approximate density functional
|    theory based atomistic simulations, J. Chem. Phys. 152, 124101 (2020).
|    [doi: 10.1063/1.5143190]
|
|  You should also cite additional publications crediting the parametrization
|  data you use. Please consult the documentation of the SK-files for the
|  references.
|
|===============================================================================

Reading input file 'dftb_in.hsd'
Parser version: 8

--------------------------------------------------------------------------------
Reading SK-files:
Done.


Processed input in HSD format written to 'dftb_pin.hsd'

Starting initialization...
--------------------------------------------------------------------------------
WARNING!
-> Excited state forces are not implemented yet for fractional occupations, kT=  0.3158E-02K
OpenMP threads:              1
Chosen random seed:          508848458
Mode:                        Static calculation
Self consistent charges:     Yes
SCC-tolerance:                 0.100000E-05
Max. scc iterations:                    100
Shell resolved Hubbard:      No
Spin polarisation:           No
Nr. of up electrons:             6.000000
Nr. of down electrons:           6.000000
Periodic boundaries:         No
Electronic solver:           Relatively robust
Mixer:                       Broyden mixer
Mixing parameter:                  0.200000
Maximal SCC-cycles:                     100
Nr. of chrg. vec. in memory:              0
Electronic temperature:        0.100000E-07 H      0.272114E-06 eV
Initial charges:             Set automatically (system chrg:   0.100E+01)
Included shells:             C:  s, p
                             N:  s, p
                             H:  s
Extra options:
                             Mulliken analysis
                             Force calculation
Force type                   original
                             Eigenvector printing

--------------------------------------------------------------------------------

***  Geometry step: 0

 iSCC Total electronic   Diff electronic      SCC error    
    1   -0.54215944E+01    0.00000000E+00    0.78475869E+00
    2   -0.54260982E+01   -0.45037665E-02    0.54684928E+00
    3   -0.54297116E+01   -0.36134496E-02    0.65790779E-01
    4   -0.54298149E+01   -0.10329653E-03    0.69567269E-01
    5   -0.54299770E+01   -0.16204793E-03    0.12313340E-01
    6   -0.54299789E+01   -0.19260410E-05    0.33492715E-02
    7   -0.54299791E+01   -0.17530972E-06    0.83869858E-04
    8   -0.54299791E+01   -0.14781154E-09    0.60659604E-04
    9   -0.54299791E+01   -0.11624923E-09    0.16352383E-05
   10   -0.54299791E+01   -0.64837025E-13    0.73413780E-06
>> Charges saved for restart in charges.bin

Total Energy:                       -5.1006620126 H         -138.7961 eV
Extrapolated to 0:                  -5.1982095469 H         -141.4505 eV
Total Mermin free energy:           -5.1006620126 H         -138.7961 eV
Force related energy:               -5.1982095469 H         -141.4505 eV

--------------------------------------------------------------------------------
DFTB+ running times                          cpu [s]             wall clock [s]
--------------------------------------------------------------------------------
SCC                                    +     0.01  ( 58.6%)      0.11  ( 86.9%)
Post-SCC processing                    +     0.00  ( 31.8%)      0.01  (  9.2%)
--------------------------------------------------------------------------------
Missing                                +     0.00  (  9.6%)      0.00  (  3.8%)
Total                                  =     0.01  (100.0%)      0.13  (100.0%)
--------------------------------------------------------------------------------
