     6
  Step:     0            Position(A)                                  Velocity(au)
C        -0.04069861     0.00947924     0.03298769    -0.00007101     0.00007504     0.00019735
N        -0.03942525    -0.05206236     1.28175572     0.00013409    -0.00005288    -0.00014257
H         0.89722323     0.02435151    -0.51982596     0.00049946    -0.00025146    -0.00021290
H         0.81112866    -0.11185012     1.90677464    -0.00046964     0.00022043    -0.00064735
H        -0.91150425    -0.08078410     1.81568177    -0.00125096     0.00018112     0.00062686
H        -0.97695136     0.10902650    -0.51540042     0.00020396    -0.00030938    -0.00013710
     6
  Step:     1            Position(A)                                  Velocity(au)
C        -0.04108288     0.00989646     0.03384759    -0.00006928     0.00007771     0.00011604
N        -0.03867196    -0.05236139     1.28120607     0.00013987    -0.00005660    -0.00005740
H         0.90017593     0.02298686    -0.52127523     0.00057510    -0.00024803    -0.00031343
H         0.80835818    -0.11062447     1.90306310    -0.00053703     0.00022747    -0.00070431
H        -0.91848138    -0.07982233     1.81924959    -0.00128392     0.00017146     0.00066723
H        -0.97604534     0.10738788    -0.51641622     0.00012780    -0.00029026    -0.00023457
     6
  Step:     2            Position(A)                                  Velocity(au)
C        -0.04145620     0.01032901     0.03425658    -0.00006711     0.00008072     0.00003296
N        -0.03789580    -0.05268132     1.28112801     0.00014260    -0.00006056     0.00002935
H         0.90351198     0.02163923    -0.52325340     0.00064001    -0.00024551    -0.00040654
H         0.80525614    -0.10936274     1.89907297    -0.00059021     0.00023382    -0.00074900
H        -0.92554400    -0.07890918     1.82297803    -0.00128471     0.00016344     0.00068705
H        -0.97555383     0.10585244    -0.51796552     0.00005313    -0.00027204    -0.00033217
     6
  Step:     3            Position(A)                                  Velocity(au)
C        -0.04181636     0.01077865     0.03420781    -0.00006456     0.00008403    -0.00005102
N        -0.03711359    -0.05302323     1.28152681     0.00014222    -0.00006468     0.00011660
H         0.90717033     0.02030374    -0.52571817     0.00069347    -0.00024382    -0.00049182
H         0.80190798    -0.10806909     1.89487751    -0.00062638     0.00023932    -0.00077917
H        -0.93252154    -0.07803615     1.82675808    -0.00125529     0.00015684     0.00068765
H        -0.97546468     0.10441487    -0.52004634    -0.00001879    -0.00025477    -0.00042909
     6
  Step:     4            Position(A)                                  Velocity(au)
C        -0.04216144     0.01124683     0.03369926    -0.00006167     0.00008754    -0.00013496
N        -0.03634230    -0.05338780     1.28240167     0.00013870    -0.00006887     0.00020318
H         0.91108685     0.01897593    -0.52862562     0.00073489    -0.00024284    -0.00056891
H         0.79841411    -0.10674857     1.89056192    -0.00064273     0.00024378    -0.00079257
H        -0.93925575    -0.07719594     1.83048930    -0.00119789     0.00015143     0.00067061
H        -0.97575909     0.10306951    -0.52265250    -0.00008675    -0.00023849    -0.00052445
     6
  Step:     5            Position(A)                                  Velocity(au)
C        -0.04248977     0.01173458     0.03273416    -0.00005848     0.00009118    -0.00021778
N        -0.03559908    -0.05377522     1.28374538     0.00013199    -0.00007303     0.00028778
H         0.91519489     0.01765202    -0.53193038     0.00076375    -0.00024242    -0.00063746
H         0.79488968    -0.10540714     1.88622302    -0.00063660     0.00024700    -0.00078709
H        -0.94560187    -0.07638257     1.83408083    -0.00111495     0.00014696     0.00063770
H        -0.97641198     0.10181065    -0.52577306    -0.00014957    -0.00022319    -0.00061724
     6
  Step:     6            Position(A)                                  Velocity(au)
C        -0.04279991     0.01224241     0.03132144    -0.00005501     0.00009483    -0.00029831
N        -0.03490116    -0.05418516     1.28554378     0.00012210    -0.00007705     0.00036902
H         0.91942577     0.01632911    -0.53558561     0.00077963    -0.00024235    -0.00069705
H         0.79146348    -0.10405178     1.88196822    -0.00060564     0.00024878    -0.00076090
H        -0.95142919    -0.07559136     1.83745192    -0.00100906     0.00014318     0.00059075
H        -0.97739218     0.10063269    -0.52939174    -0.00020609    -0.00020881    -0.00070627
     6
  Step:     7            Position(A)                                  Velocity(au)
C        -0.04309055     0.01277020     0.02947642    -0.00005130     0.00009836    -0.00037524
N        -0.03426569    -0.05461669     1.28777534     0.00010906    -0.00008082     0.00044542
H         0.92370891     0.01500539    -0.53954260     0.00078215    -0.00024242    -0.00074723
H         0.78827577    -0.10269034     1.87791355    -0.00054814     0.00024896    -0.00071274
H        -0.95662143    -0.07481897     1.84053216    -0.00088301     0.00013983     0.00053173
H        -0.97866266     0.09953033    -0.53348599    -0.00025521    -0.00019530    -0.00079021
     6
  Step:     8            Position(A)                                  Velocity(au)
C        -0.04336049     0.01331713     0.02722130    -0.00004737     0.00010161    -0.00044715
N        -0.03370945    -0.05506822     1.29041080     0.00009302    -0.00008418     0.00051543
H         0.92797225     0.01368026    -0.54375046     0.00077110    -0.00024236    -0.00078748
H         0.78547400    -0.10133144     1.87418023    -0.00046345     0.00024741    -0.00064217
H        -0.96107772    -0.07406341     1.84326205    -0.00073990     0.00013668     0.00046276
H        -0.98018084     0.09849869    -0.53802620    -0.00029589    -0.00018257    -0.00086753
     6
  Step:     9            Position(A)                                  Velocity(au)
C        -0.04360863     0.01388155     0.02458569    -0.00004322     0.00010442    -0.00051257
N        -0.03324831    -0.05553748     1.29341294     0.00007422    -0.00008703     0.00057752
H         0.93214294     0.01235456    -0.54815586     0.00074644    -0.00024190    -0.00081732
H         0.78320666    -0.09998423     1.87088966    -0.00035229     0.00024407    -0.00054987
H        -0.96471419    -0.07332401     1.84559364    -0.00058321     0.00013348     0.00038612
H        -0.98189897     0.09753341    -0.54297478    -0.00032720    -0.00017054    -0.00093663
     6
  Step:    10            Position(A)                                  Velocity(au)
C        -0.04383393     0.01446095     0.02160688    -0.00003889     0.00010664    -0.00057001
N        -0.03289653    -0.05602150     1.29673667     0.00005306    -0.00008922     0.00063022
H         0.93614846     0.01103058    -0.55270300     0.00070844    -0.00024077    -0.00083627
H         0.78161519    -0.09865799     1.86815721    -0.00021705     0.00023895    -0.00043779
H        -0.96746598    -0.07260136     1.84749144    -0.00041692     0.00013000     0.00030432
H        -0.98376484     0.09663072    -0.54828558    -0.00034842    -0.00015908    -0.00099580
     6
  Step:    11            Position(A)                                  Velocity(au)
C        -0.04403546     0.01505195     0.01832991    -0.00003440     0.00010811    -0.00061806
N        -0.03266593    -0.05651665     1.30032950     0.00003014    -0.00009064     0.00067222
H         0.93991797     0.00971212    -0.55733385     0.00065768    -0.00023870    -0.00084401
H         0.78082452    -0.09736180     1.86608495    -0.00006205     0.00023214    -0.00030934
H        -0.96928985    -0.07189725     1.84893354    -0.00024552     0.00012605     0.00022008
H        -0.98572278     0.09578750    -0.55390357    -0.00035904    -0.00014811    -0.00104342
     6
  Step:    12            Position(A)                                  Velocity(au)
C        -0.04421237     0.01565030     0.01480715    -0.00002977     0.00010866    -0.00065546
N        -0.03256493    -0.05701866     1.30413231     0.00000619    -0.00009118     0.00070247
H         0.94338419     0.00840447    -0.56198868     0.00059518    -0.00023544    -0.00084039
H         0.78093254    -0.09610407     1.86475388     0.00010653     0.00022382    -0.00016933
H        -0.97016711    -0.07121454     1.84991272    -0.00007399     0.00012146     0.00013630
H        -0.98771498     0.09500121    -0.55976507    -0.00035892    -0.00013753    -0.00107800
     6
  Step:    13            Position(A)                                  Velocity(au)
C        -0.04436399     0.01625099     0.01109734    -0.00002506     0.00010821    -0.00068127
N        -0.03259762    -0.05752279     1.30808085    -0.00001789    -0.00009079     0.00072031
H         0.94648541     0.00711418    -0.56660709     0.00052238    -0.00023082    -0.00082558
H         0.78200000    -0.09489214     1.86421652     0.00028087     0.00021425    -0.00002372
H        -0.97010634    -0.07055697     1.85043756     0.00009226     0.00011612     0.00005602
H        -0.98968327     0.09426992    -0.56579866    -0.00034828    -0.00012726    -0.00109842
     6
  Step:    14            Position(A)                                  Velocity(au)
C        -0.04448985     0.01684845     0.00726393    -0.00002031     0.00010669    -0.00069503
N        -0.03276300    -0.05802394     1.31210778    -0.00004111    -0.00008945     0.00072560
H         0.94916813     0.00584878    -0.57112966     0.00044126    -0.00022475    -0.00080017
H         0.78404242    -0.09373187     1.86449121     0.00045218     0.00020378     0.00012079
H        -0.96914558    -0.06992887     1.85053303     0.00024773     0.00010996    -0.00001773
H        -0.99157127     0.09359214    -0.57192710    -0.00032782    -0.00011726    -0.00110414
     6
  Step:    15            Position(A)                                  Velocity(au)
C        -0.04458974     0.01743679     0.00337262    -0.00001559     0.00010412    -0.00069688
N        -0.03305455    -0.05851695     1.31614535    -0.00006250    -0.00008720     0.00071885
H         0.95138970     0.00461626    -0.57550036     0.00035423    -0.00021728    -0.00076534
H         0.78702570    -0.09262732     1.86555898     0.00061162     0.00019281     0.00025749
H        -0.96735295    -0.06933483     1.85024045     0.00038722     0.00010303    -0.00008217
H        -0.99332680     0.09296664    -0.57807040    -0.00029871    -0.00010754    -0.00109544
     6
  Step:    16            Position(A)                                  Velocity(au)
C        -0.04466384     0.01801028    -0.00051208    -0.00001098     0.00010062    -0.00068778
N        -0.03346040    -0.05899690     1.32012898    -0.00008121    -0.00008415     0.00070138
H         0.95312078     0.00342430    -0.57966962     0.00026402    -0.00020864    -0.00072293
H         0.79086711    -0.09158039     1.86736443     0.00075145     0.00018184     0.00038050
H        -0.96482481    -0.06877922     1.84961614     0.00050641     0.00009545    -0.00013497
H        -0.99490441     0.09239217    -0.58415040    -0.00026256    -0.00009816    -0.00107367
     6
  Step:    17            Position(A)                                  Velocity(au)
C        -0.04471272     0.01856382    -0.00433117    -0.00000654     0.00009640    -0.00066953
N        -0.03396412    -0.05945956     1.32400148    -0.00009663    -0.00008053     0.00067528
H         0.95434693     0.00227930    -0.58359785     0.00017334    -0.00019924    -0.00067537
H         0.79544269    -0.09059051     1.86982096     0.00086621     0.00017140     0.00048554
H        -0.96168070    -0.06826565     1.84872864     0.00060246     0.00008745    -0.00017457
H        -0.99626776     0.09186714    -0.59009655    -0.00022130    -0.00008925    -0.00104136
     6
  Step:    18            Position(A)                                  Velocity(au)
C        -0.04473733     0.01909354    -0.00803566    -0.00000233     0.00009176    -0.00064460
N        -0.03454619    -0.05990179     1.32771711    -0.00010849    -0.00007658     0.00064320
H         0.95506861     0.00118541    -0.58725876     0.00008454    -0.00018964    -0.00062547
H         0.80060075    -0.08965441     1.87282051     0.00095339     0.00016202     0.00057054
H        -0.95805489    -0.06779650     1.84765452     0.00067443     0.00007930    -0.00020027
H        -0.99739120     0.09138927    -0.59585220    -0.00017691    -0.00008096    -0.00100196
     6
  Step:    19            Position(A)                                  Velocity(au)
C        -0.04473893     0.01959718    -0.01159008     0.00000164     0.00008703    -0.00061570
N        -0.03518590    -0.06032189     1.33124467    -0.00011687    -0.00007258     0.00060797
H         0.95529899     0.00014370    -0.59064137    -0.00000077    -0.00018045    -0.00057600
H         0.80617892    -0.08876600     1.87624587     0.00101336     0.00015421     0.00063558
H        -0.95408589    -0.06737262     1.84647340     0.00072305     0.00007127    -0.00021217
H        -0.99825999     0.09095542    -0.60137971    -0.00013113    -0.00007344    -0.00095930
     6
  Step:    20            Position(A)                                  Velocity(au)
C        -0.04471887     0.02007424    -0.01497393     0.00000537     0.00008248    -0.00058531
N        -0.03586314    -0.06071966     1.33456826    -0.00012201    -0.00006877     0.00057203
H         0.95505989    -0.00084811    -0.59374969    -0.00008190    -0.00017221    -0.00052922
H         0.81202019    -0.08791667     1.87998278     0.00104845     0.00014833     0.00068233
H        -0.94990692    -0.06699333     1.84526355     0.00075014     0.00006358    -0.00021085
H        -0.99886886     0.09056163    -0.60666244    -0.00008520    -0.00006679    -0.00091686
     6
  Step:    21            Position(A)                                  Velocity(au)
C        -0.04467846     0.02052582    -0.01818014     0.00001099     0.00008118    -0.00060593
N        -0.03655959    -0.06109622     1.33768521    -0.00012554    -0.00006751     0.00057643
H         0.95437691    -0.00179525    -0.59659995    -0.00019591    -0.00020849    -0.00044777
H         0.81798352    -0.08709592     1.88392831     0.00104914     0.00019257     0.00069902
H        -0.94564002    -0.06665677     1.84409938     0.00077834     0.00000759    -0.00021017
H        -0.99921928     0.09020341    -0.61170267    -0.00001795    -0.00002076    -0.00083105
     6
  Step:    22            Position(A)                                  Velocity(au)
C        -0.04459540     0.02098643    -0.02178274     0.00001840     0.00008308    -0.00067878
N        -0.03727380    -0.06147831     1.34104554    -0.00012757    -0.00006886     0.00062244
H         0.95285850    -0.00319087    -0.59878127    -0.00034121    -0.00027301    -0.00033115
H         0.82380925    -0.08575275     1.88783763     0.00101569     0.00026945     0.00068447
H        -0.94116081    -0.06690807     1.84290186     0.00080945    -0.00007896    -0.00021154
H        -0.99907057     0.09032834    -0.61600091     0.00006956     0.00004948    -0.00070312
     6
  Step:    23            Position(A)                                  Velocity(au)
C        -0.04447212     0.02145730    -0.02579077     0.00002534     0.00008502    -0.00075023
N        -0.03798993    -0.06186828     1.34466417    -0.00012664    -0.00007042     0.00066829
H         0.95055123    -0.00485624    -0.60031291    -0.00047718    -0.00031531    -0.00021949
H         0.82937159    -0.08407483     1.89160274     0.00096154     0.00032314     0.00065402
H        -0.93656431    -0.06754205     1.84172753     0.00082030    -0.00013990    -0.00020095
H        -0.99843940     0.09075815    -0.61958618     0.00015331     0.00009762    -0.00058072
     6
  Step:    24            Position(A)                                  Velocity(au)
C        -0.04431184     0.02193792    -0.03017932     0.00003167     0.00008673    -0.00081592
N        -0.03869118    -0.06226643     1.34852512    -0.00012261    -0.00007190     0.00071003
H         0.94751786    -0.00671984    -0.60123782    -0.00060096    -0.00034725    -0.00011570
H         0.83457083    -0.08213620     1.89515743     0.00088989     0.00036606     0.00061249
H        -0.93197994    -0.06847389     1.84065282     0.00080630    -0.00018871    -0.00017604
H        -0.99735467     0.09142086    -0.62250037     0.00023127     0.00013560    -0.00046521
     6
  Step:    25            Position(A)                                  Velocity(au)
C        -0.04411811     0.02242688    -0.03491227     0.00003730     0.00008805    -0.00087380
N        -0.03936062    -0.06267206     1.35260199    -0.00011548    -0.00007313     0.00074586
H         0.94383278    -0.00873830    -0.60160639    -0.00070987    -0.00037233    -0.00002129
H         0.83932005    -0.07998245     1.89845011     0.00080295     0.00040169     0.00056214
H        -0.92755028    -0.06965174     1.83975951     0.00076554    -0.00022957    -0.00013624
H        -0.99585395     0.09227403    -0.62478693     0.00030156     0.00016722    -0.00035711
     6
  Step:    26            Position(A)                                  Velocity(au)
C        -0.04389494     0.02292195    -0.03994457     0.00004215     0.00008885    -0.00092225
N        -0.03998168    -0.06308368     1.35686053    -0.00010538    -0.00007397     0.00077442
H         0.93958459    -0.01088089    -0.60147580    -0.00080098    -0.00039221     0.00006221
H         0.84354434    -0.07764703     1.90143972     0.00070326     0.00043150     0.00050492
H        -0.92342451    -0.07103946     1.83913024     0.00069763    -0.00026452    -0.00008190
H        -0.99398453     0.09328965    -0.62649129     0.00036223     0.00019441    -0.00025721
     6
  Step:    27            Position(A)                                  Velocity(au)
C        -0.04364688     0.02342022    -0.04522325     0.00004609     0.00008902    -0.00096003
N        -0.04053877    -0.06349903     1.36126012    -0.00009261    -0.00007431     0.00079477
H         0.93487766    -0.01312324    -0.60091091    -0.00087138    -0.00040778     0.00013322
H         0.84718263    -0.07515819     1.90409523     0.00059384     0.00045614     0.00044289
H        -0.91975059    -0.07260915     1.83884380     0.00060387    -0.00029468    -0.00001430
H        -0.99180414     0.09444756    -0.62766256     0.00041137     0.00021825    -0.00016652
     6
  Step:    28            Position(A)                                  Velocity(au)
C        -0.04337908     0.02391826    -0.05068916     0.00004904     0.00008852    -0.00098636
N        -0.04101815    -0.06391538     1.36575558    -0.00007762    -0.00007410     0.00080645
H         0.92983211    -0.01544474    -0.59998481    -0.00091859    -0.00041969     0.00019027
H         0.85019053    -0.07254190     1.90639652     0.00047824     0.00047597     0.00037828
H        -0.91666604    -0.07433753     1.83897015     0.00048731    -0.00032071     0.00006440
H        -0.98938050     0.09573224    -0.62835492     0.00044734     0.00023942    -0.00008615
     6
  Step:    29            Position(A)                                  Velocity(au)
C        -0.04309723     0.02441239    -0.05627939     0.00005092     0.00008734    -0.00100110
N        -0.04140880    -0.06432962     1.37029962    -0.00006101    -0.00007332     0.00080952
H         0.92458122    -0.01782751    -0.59877812    -0.00094090    -0.00042850     0.00023225
H         0.85254323    -0.06982308     1.90833541     0.00036035     0.00049130     0.00031344
H        -0.91428836    -0.07620403     1.83956568     0.00035268    -0.00034310     0.00015127
H        -0.98678985     0.09713119    -0.62862826     0.00046898     0.00025842    -0.00001715
     6
  Step:    30            Position(A)                                  Velocity(au)
C        -0.04280732     0.02489899    -0.06193058     0.00005171     0.00008554    -0.00100473
N        -0.04170325    -0.06473864     1.37484569    -0.00004349    -0.00007199     0.00080457
H         0.91926666    -0.02025641    -0.59737691    -0.00093764    -0.00043485     0.00025850
H         0.85423692    -0.06702510     1.90991613     0.00024407     0.00050257     0.00025064
H        -0.91270576    -0.07819018     1.84066879     0.00020601    -0.00036227     0.00024285
H        -0.98411427     0.09863406    -0.62854750     0.00047569     0.00027568     0.00003974
     6
  Step:    31            Position(A)                                  Velocity(au)
C        -0.04251546     0.02537473    -0.06758231     0.00005145     0.00008323    -0.00099831
N        -0.04189805    -0.06513953     1.37935083    -0.00002580    -0.00007021     0.00079267
H         0.91403299    -0.02271942    -0.59587002    -0.00090917    -0.00043942     0.00026900
H         0.85528901    -0.06416927     1.91115509     0.00013307     0.00051036     0.00019200
H        -0.91197085    -0.08027944     1.84229769     0.00005398    -0.00037865     0.00033554
H        -0.98143843     0.10023256    -0.62818116     0.00046753     0.00029162     0.00008417
     6
  Step:    32            Position(A)                                  Velocity(au)
C        -0.04222755     0.02583685    -0.07318024     0.00005019     0.00008051    -0.00098334
N        -0.04199394    -0.06552979     1.38377802    -0.00000865    -0.00006806     0.00077516
H         0.90902148    -0.02520808    -0.59434563    -0.00085685    -0.00044297     0.00026429
H         0.85573649    -0.06127398     1.91207970     0.00003052     0.00051538     0.00013928
H        -0.91209747    -0.08245705     1.84444984    -0.00009671    -0.00039272     0.00042590
H        -0.97884587     0.10192024    -0.62759900     0.00044511     0.00030669     0.00011623
     6
  Step:    33            Position(A)                                  Velocity(au)
C        -0.04194907     0.02628326    -0.07867846     0.00004805     0.00007754    -0.00096152
N        -0.04199563    -0.06590752     1.38809777     0.00000732    -0.00006566     0.00075349
H         0.90436416    -0.02771794    -0.59288779    -0.00078284    -0.00044625     0.00024543
H         0.85563338    -0.05835361     1.91272671    -0.00006106     0.00051845     0.00009386
H        -0.91306209    -0.08471098     1.84710363    -0.00023995    -0.00040502     0.00051098
H        -0.97641572     0.10369324    -0.62686957     0.00040955     0.00032136     0.00013645
     6
  Step:    34            Position(A)                                  Velocity(au)
C        -0.04168483     0.02671259    -0.08404043     0.00004515     0.00007441    -0.00093451
N        -0.04191125    -0.06627141     1.39228856     0.00002159    -0.00006312     0.00072904
H         0.90017942    -0.03024838    -0.59157359    -0.00068978    -0.00044991     0.00021385
H         0.85504679    -0.05541823     1.91313987    -0.00013985     0.00052032     0.00005671
H        -0.91480761    -0.08703163     1.85022127    -0.00037055    -0.00041597     0.00058835
H        -0.97422005     0.10554999    -0.62605777     0.00036223     0.00033607     0.00014569
     6
  Step:    35            Position(A)                                  Velocity(au)
C        -0.04143889     0.02712412    -0.08923892     0.00004162     0.00007123    -0.00090380
N        -0.04175168    -0.06662082     1.39633634     0.00003375    -0.00006054     0.00070298
H         0.89656923    -0.03280217    -0.59047117    -0.00058064    -0.00045447     0.00017124
H         0.85405301    -0.05247370     1.91336761    -0.00020464     0.00052171     0.00002841
H        -0.91724946    -0.08941168     1.85375235    -0.00048442    -0.00042596     0.00065621
H        -0.97232233     0.10749100    -0.62522314     0.00030468     0.00035115     0.00014503
     6
  Step:    36            Position(A)                                  Velocity(au)
C        -0.04121440     0.02751766    -0.09425495     0.00003764     0.00006808    -0.00087063
N        -0.04152979    -0.06695558     1.40023342     0.00004354    -0.00005798     0.00067620
H         0.89361716    -0.03538469    -0.58963823    -0.00045862    -0.00046028     0.00011948
H         0.85273399    -0.04952206     1.91346096    -0.00025476     0.00052318     0.00000922
H        -0.92028244    -0.09184566     1.85763755    -0.00057863    -0.00043524     0.00071329
H        -0.97077663     0.10951855    -0.62441864     0.00023853     0.00036685     0.00013568
     6
  Step:    37            Position(A)                                  Velocity(au)
C        -0.04101362     0.02789339    -0.09907630     0.00003334     0.00006500    -0.00083595
N        -0.04125975    -0.06727599     1.40397689     0.00005077    -0.00005552     0.00064936
H         0.89138725    -0.03800297    -0.58912119    -0.00032706    -0.00046752     0.00006052
H         0.85117438    -0.04656224     1.91347179    -0.00028997     0.00052518    -0.00000084
H        -0.92378747    -0.09432949     1.86181194    -0.00065126    -0.00044398     0.00075884
H        -0.96962714     0.11163616    -0.62369003     0.00016546     0.00038335     0.00011893
     6
  Step:    38            Position(A)                                  Velocity(au)
C        -0.04083785     0.02825175    -0.10369609     0.00002889     0.00006201    -0.00080050
N        -0.04095639    -0.06758263     1.40756726     0.00005538    -0.00005319     0.00062288
H         0.88992340    -0.04066481    -0.58895476    -0.00018943    -0.00047621    -0.00000360
H         0.84945912    -0.04359074     1.91345143    -0.00031036     0.00052804    -0.00000198
H        -0.92763770    -0.09685997     1.86620780    -0.00070138    -0.00045228     0.00079252
H        -0.96890788     0.11384810    -0.62307545     0.00008725     0.00040070     0.00009610
     6
  Step:    39            Position(A)                                  Velocity(au)
C        -0.04068749     0.02859328    -0.10811150     0.00002445     0.00005912    -0.00076485
N        -0.04063466    -0.06787633     1.41100728     0.00005739    -0.00005102     0.00059702
H         0.88924912    -0.04337794    -0.58916185    -0.00004930    -0.00048626    -0.00007083
H         0.84767139    -0.04060224     1.91344945    -0.00031638     0.00053202     0.00000542
H        -0.93170388    -0.09943437     1.87075711    -0.00072890    -0.00046018     0.00081442
H        -0.96864238     0.11615887    -0.62260538     0.00000570     0.00041890     0.00006852
     6
  Step:    40            Position(A)                                  Velocity(au)
C        -0.04056204     0.02891857    -0.11232277     0.00002017     0.00005633    -0.00072944
N        -0.04030911    -0.06815805     1.41430103     0.00005689    -0.00004902     0.00057195
H         0.88936739    -0.04614933    -0.58975368     0.00008978    -0.00049749    -0.00013916
H         0.84589070    -0.03759017     1.91351259    -0.00030882     0.00053727     0.00002079
H        -0.93585894    -0.10205025     1.87539351    -0.00073449    -0.00046768     0.00082491
H        -0.96884356     0.11857280    -0.62230266    -0.00007731     0.00043786     0.00003750
     6
  Step:    41            Position(A)                                  Velocity(au)
C        -0.04046020     0.02922819    -0.11633255     0.00001618     0.00005364    -0.00069464
N        -0.03999352    -0.06842884     1.41745333     0.00005404    -0.00004722     0.00054774
H         0.89026101    -0.04898477    -0.59073019     0.00022432    -0.00050963    -0.00020664
H         0.84419095    -0.03454705     1.91368380    -0.00028877     0.00054392     0.00004339
H        -0.93998186    -0.10470523     1.88005411    -0.00071941    -0.00047478     0.00082469
H        -0.96951363     0.12109371    -0.62218271    -0.00015989     0.00045748     0.00000434
     6
  Step:    42            Position(A)                                  Velocity(au)
C        -0.04037986     0.02952266    -0.12014547     0.00001261     0.00005103    -0.00066074
N        -0.03970052    -0.06868981     1.42046941     0.00004908    -0.00004561     0.00052443
H         0.89189359    -0.05188851    -0.59208074     0.00035105    -0.00052239    -0.00027149
H         0.84263870    -0.03146483     1.91400121    -0.00025767     0.00055204     0.00007230
H        -0.94396059    -0.10739704     1.88468074    -0.00068540    -0.00048151     0.00081464
H        -0.97064422     0.12372475    -0.62225384    -0.00024022     0.00047762    -0.00002977
     6
  Step:    43            Position(A)                                  Velocity(au)
C        -0.04031832     0.02980243    -0.12376762     0.00000956     0.00004849    -0.00062797
N        -0.03944126    -0.06894209     1.42335459     0.00004227    -0.00004420     0.00050203
H         0.89421121    -0.05486310    -0.59378519     0.00046702    -0.00053548    -0.00033214
H         0.84129144    -0.02833515     1.91449738    -0.00021723     0.00056166     0.00010648
H        -0.94769445    -0.11012354     1.88922103    -0.00063458    -0.00048789     0.00079584
H        -0.97221674     0.12646819    -0.62251769    -0.00031651     0.00049810    -0.00006368
     6
  Step:    44            Position(A)                                  Velocity(au)
C        -0.04027235     0.03006786    -0.12720634     0.00000711     0.00004600    -0.00059653
N        -0.03922525    -0.06918676     1.42611422     0.00003392    -0.00004297     0.00048054
H         0.89714472    -0.05790937    -0.59581528     0.00056975    -0.00054857    -0.00038726
H         0.84019613    -0.02514961     1.91519851    -0.00016941     0.00057277     0.00014477
H        -0.95109579    -0.11288279     1.89362916    -0.00056933    -0.00049394     0.00076947
H        -0.97420307     0.12932541    -0.62296984    -0.00038715     0.00051877    -0.00009637
     6