 Fermi distribution function

Calculation with static geometry


********************************************************************************
 iSCC Total electronic   Diff electronic      SCC error    
   10   -0.54352255E+01   -0.62172489E-13    0.10570818E-06
********************************************************************************

 Total charge:     1.00000000

 Atomic gross charges (e)
 Atom           Charge
    1       0.19287110
    2      -0.07206169
    3       0.17170019
    4       0.26825923
    5       0.28764883
    6       0.15158234

Nr. of electrons (up):     12.00000000
Atom populations (up)
 Atom       Population
    1       3.80712890
    2       5.07206169
    3       0.82829981
    4       0.73174077
    5       0.71235117
    6       0.84841766

l-shell populations (up)
 Atom Sh.   l       Population
    1   1   0       1.29574646
    1   2   1       2.51138245
    2   1   0       1.41215029
    2   2   1       3.65991140
    3   1   0       0.82829981
    4   1   0       0.73174077
    5   1   0       0.71235117
    6   1   0       0.84841766

Orbital populations (up)
 Atom Sh.   l   m       Population  Label
    1   1   0   0       1.29574646  s
    1   2   1  -1       0.60139374  p_y
    1   2   1   0       0.88809914  p_z
    1   2   1   1       1.02188957  p_x
    2   1   0   0       1.41215029  s
    2   2   1  -1       1.34742224  p_y
    2   2   1   0       1.11270091  p_z
    2   2   1   1       1.19978825  p_x
    3   1   0   0       0.82829981  s
    4   1   0   0       0.73174077  s
    5   1   0   0       0.71235117  s
    6   1   0   0       0.84841766  s

Fermi level:                        -0.4861951934 H          -13.2300 eV
Band energy:                        -8.9571618392 H         -243.7368 eV
TS:                                  0.0000000000 H            0.0000 eV
Band free energy (E-TS):            -8.9571618392 H         -243.7368 eV
Extrapolated E(0K):                 -8.9571618392 H         -243.7368 eV
Input / Output electrons (q):     12.0000000000     12.0000000000

Energy H0:                          -5.5688847917 H         -151.5371 eV
Energy SCC:                          0.1336592587 H            3.6371 eV
Total Electronic energy:            -5.4352255330 H         -147.9000 eV
Repulsive energy:                    0.2028321265 H            5.5193 eV
Total energy:                       -5.2323934065 H         -142.3807 eV
Extrapolated to 0:                  -5.2323934065 H         -142.3807 eV
Total Mermin free energy:           -5.2323934065 H         -142.3807 eV
Force related energy:               -5.2323934065 H         -142.3807 eV

SCC converged

Excitation Energy:                   0.1485180174 H            4.0414 eV

Total Forces
    1      0.006439158557      0.003119268273     -0.012827736667
    2      0.006936850946     -0.003520063244     -0.009681904881
    3     -0.010264224475     -0.007800364461      0.005339846446
    4     -0.010574398219      0.010519324559      0.004318953558
    5      0.002423301551     -0.010944453593      0.007046766365
    6      0.005039311640      0.008626288466      0.005804075180

Maximal derivative component:        0.128277E-01 au


