     6
  Step:   120            Position(A)                                  Velocity(au)
C        -0.04562834     0.05954046    -0.01896945    -0.00006399     0.00002239    -0.00007640
N        -0.05929701    -0.09941526     1.34158600    -0.00004766     0.00007511    -0.00004556
H         0.88129015     0.35424233    -0.60611033    -0.00006826     0.00127730     0.00037441
H         0.81693517    -0.40255193     1.85478216    -0.00057784    -0.00169956     0.00022918
H        -0.71829457     0.52791761     1.88691707     0.00122416     0.00069953     0.00023598
H        -0.82514146    -0.47736749    -0.66066948     0.00084683    -0.00158782     0.00070397
