     6
  Step:     0            Position(A)                                  Velocity(au)
C        -0.02765389     0.02925159     0.00705276     0.00004689    -0.00003735     0.00019533
N        -0.04034346    -0.06516707     1.30102846    -0.00015571    -0.00011358    -0.00026975
H         0.87600219    -0.02930977    -0.52272633    -0.00044005     0.00050929     0.00080745
H         0.81020251    -0.09538798     1.85995767     0.00092185     0.00058463     0.00093177
H        -0.99547032    -0.00681938     1.89292801     0.00137871     0.00079170    -0.00002050
H        -1.01352023     0.01876025    -0.50170826    -0.00025543     0.00013778    -0.00029778
     6
  Step:     1            Position(A)                                  Velocity(au)
C        -0.02745007     0.02908425     0.00779684     0.00002683    -0.00002411     0.00007587
N        -0.04126121    -0.06580173     1.29987868    -0.00017808    -0.00011897    -0.00014905
H         0.87409212    -0.02661082    -0.51861690    -0.00025072     0.00048019     0.00068933
H         0.81548231    -0.09223741     1.86519359     0.00099148     0.00057039     0.00097065
H        -0.98722609    -0.00256768     1.89236149     0.00162654     0.00076522    -0.00018272
H        -1.01480946     0.01947241    -0.50337608    -0.00021232     0.00012473    -0.00031022
     6
  Step:     2            Position(A)                                  Velocity(au)
C        -0.02736040     0.02898788     0.00788278     0.00000541    -0.00001152    -0.00004466
N        -0.04229155    -0.06646856     1.29939797    -0.00019665    -0.00012529    -0.00002589
H         0.87325950    -0.02405675    -0.51518541    -0.00004817     0.00045665     0.00056099
H         0.82104875    -0.08914827     1.87057597     0.00102689     0.00056194     0.00098523
H        -0.97767692     0.00155165     1.89092921     0.00185246     0.00074357    -0.00033511
H        -1.01584288     0.02012471    -0.50510186    -0.00016288     0.00011610    -0.00031917
     6
  Step:     3            Position(A)                                  Velocity(au)
C        -0.02739091     0.02895824     0.00730816    -0.00001683     0.00000023    -0.00016484
N        -0.04341288    -0.06717259     1.29959539    -0.00021105    -0.00013244     0.00009792
H         0.87356508    -0.02161433    -0.51247870     0.00016288     0.00043918     0.00042606
H         0.82671820    -0.08608879     1.87597364     0.00102954     0.00055892     0.00097620
H        -0.96695700     0.00556822     1.88869481     0.00205023     0.00072749    -0.00047363
H        -1.01659161     0.02074277    -0.50686834    -0.00010927     0.00011214    -0.00032523
     6
  Step:     4            Position(A)                                  Velocity(au)
C        -0.02754458     0.02899038     0.00607861    -0.00003928     0.00001103    -0.00028305
N        -0.04460155    -0.06791818     1.30046974    -0.00022086    -0.00014024     0.00022036
H         0.87504225    -0.01924975    -0.51052204     0.00037694     0.00042744     0.00028863
H         0.83231737    -0.08303073     1.88126078     0.00100142     0.00056031     0.00094464
H        -0.95523666     0.00951420     1.88574515     0.00221248     0.00071703    -0.00059372
H        -1.01703886     0.02135206    -0.50866155    -0.00005367     0.00011255    -0.00032895
     6
  Step:     5            Position(A)                                  Velocity(au)
C        -0.02782106     0.02907902     0.00420833    -0.00006130     0.00002084    -0.00039759
N        -0.04583155    -0.06870836     1.30200866    -0.00022560    -0.00014838     0.00033921
H         0.87769304    -0.01693327    -0.50931776     0.00058772     0.00042041     0.00015298
H         0.83768509    -0.07995259     1.88631871     0.00094488     0.00056469     0.00089202
H        -0.94272741     0.01342068     1.88219283     0.00233102     0.00071177    -0.00069027
H        -1.01717942     0.02197530    -0.51047078     0.00000182     0.00011670    -0.00033092
     6
  Step:     6            Position(A)                                  Velocity(au)
C        -0.02821645     0.02921881     0.00172067    -0.00008219     0.00002964    -0.00050658
N        -0.04707434    -0.06954455     1.30418784    -0.00022479    -0.00015655     0.00045207
H         0.88148422    -0.01464170    -0.50884522     0.00078835     0.00041679     0.00002329
H         0.84267420    -0.07684114     1.89103815     0.00086275     0.00057048     0.00082031
H        -0.92968635     0.01731593     1.87817914     0.00239692     0.00071116    -0.00075763
H        -1.01701888     0.02263121    -0.51228879     0.00005523     0.00012384    -0.00033177
     6
  Step:     7            Position(A)                                  Velocity(au)
C        -0.02872313     0.02940427    -0.00135134    -0.00010126     0.00003737    -0.00060807
N        -0.04829866    -0.07042646     1.30697013    -0.00021801    -0.00016442     0.00055644
H         0.88634516    -0.01235903    -0.50906211     0.00097182     0.00041531    -0.00009659
H         0.84715383    -0.07369152     1.89532167     0.00075841     0.00057619     0.00073204
H        -0.91642115     0.02122571     1.87387787     0.00240138     0.00071479    -0.00079008
H        -1.01657323     0.02333445    -0.51411198     0.00010460     0.00013323    -0.00033216
     6
  Step:     8            Position(A)                                  Velocity(au)
C        -0.02932970     0.02962964    -0.00496440    -0.00011782     0.00004398    -0.00070010
N        -0.04947112    -0.07135216     1.31030533    -0.00020500    -0.00017171     0.00064991
H         0.89216833    -0.01007585    -0.50990714     0.00113161     0.00041484    -0.00020350
H         0.85101209    -0.07050652     1.89908613     0.00063577     0.00058054     0.00063020
H        -0.90328584     0.02517422     1.86949304     0.00233729     0.00072241    -0.00078285
H        -1.01586891     0.02409597    -0.51594055     0.00014798     0.00014424    -0.00033278
     6
  Step:     9            Position(A)                                  Velocity(au)
C        -0.03002121     0.02988881    -0.00906489    -0.00013126     0.00004939    -0.00078083
N        -0.05055725    -0.07231826     1.31413064    -0.00018575    -0.00017817     0.00073029
H         0.89881286    -0.00778846    -0.51130423     0.00126225     0.00041446    -0.00029518
H         0.85415856    -0.06729532     1.90226507     0.00049930     0.00058251     0.00051828
H        -0.89066962     0.02918502     1.86525269     0.00220036     0.00073399    -0.00073274
H        -1.01494280     0.02492359    -0.51777849     0.00018351     0.00015630    -0.00033431
     6
  Step:    10            Position(A)                                  Velocity(au)
C        -0.03077959     0.03017525    -0.01358951    -0.00014112     0.00005356    -0.00084874
N        -0.05152297    -0.07332017     1.31837212    -0.00016062    -0.00018362     0.00079590
H         0.90611124    -0.00549776    -0.51316766     0.00135994     0.00041346    -0.00037041
H         0.85652739    -0.06407210     1.90481111     0.00035404     0.00058143     0.00040016
H        -0.87898063     0.03328186     1.86139913     0.00199019     0.00074957    -0.00063897
H        -1.01384184     0.02582243    -0.51963336     0.00020953     0.00016896    -0.00033738
     6
  Step:    11            Position(A)                                  Velocity(au)
C        -0.03158450     0.03048219    -0.01846711    -0.00014711     0.00005647    -0.00090286
N        -0.05233663    -0.07435243     1.32294756    -0.00013035    -0.00018799     0.00084583
H         0.91387810    -0.00320822    -0.51540755     0.00142272     0.00041138    -0.00042897
H         0.85808059    -0.06085426     1.90669800     0.00020539     0.00057702     0.00027996
H        -0.86862253     0.03748867     1.85817429     0.00171146     0.00076916    -0.00050384
H        -1.01262164     0.02679532    -0.52151597     0.00022480     0.00018186    -0.00034256
     6
  Step:    12            Position(A)                                  Velocity(au)
C        -0.03241429     0.03080276    -0.02362188    -0.00014919     0.00005815    -0.00094302
N        -0.05297133    -0.07540905     1.32777072    -0.00009605    -0.00019125     0.00088009
H         0.92192008    -0.00092661    -0.51793421     0.00145067     0.00040801    -0.00047136
H         0.85880968    -0.05766044     1.90792194     0.00005883     0.00056938     0.00016183
H        -0.85996333     0.04182851     1.85580057     0.00137444     0.00079255    -0.00033315
H        -1.01134397     0.02784325    -0.52343973     0.00022862     0.00019475    -0.00035028
     6
  Step:    13            Position(A)                                  Velocity(au)
C        -0.03324725     0.03113033    -0.02897741    -0.00014751     0.00005870    -0.00096988
N        -0.05340718    -0.07648396     1.33275643    -0.00005920    -0.00019348     0.00089969
H         0.93004627     0.00133917    -0.52066101     0.00144574     0.00040336    -0.00049849
H         0.85873626    -0.05450828     1.90850165    -0.00008047     0.00055908     0.00004964
H        -0.85330395     0.04632185     1.85446121     0.00099414     0.00081928    -0.00013565
H        -1.01007356     0.02896590    -0.52541991     0.00022097     0.00020751    -0.00036086
     6
  Step:    14            Position(A)                                  Velocity(au)
C        -0.03406288     0.03145879    -0.03446130    -0.00014246     0.00005826    -0.00098493
N        -0.05363289    -0.07757142     1.33782572    -0.00002138    -0.00019485     0.00090657
H         0.93807770     0.00358138    -0.52350535     0.00141156     0.00039770    -0.00051180
H         0.85791032    -0.05141217     1.90847675    -0.00020799     0.00054701    -0.00005330
H        -0.84885280     0.05098475     1.85428457     0.00058866     0.00084863     0.00007799
H        -1.00887445     0.03016239    -0.52747271     0.00020241     0.00022017    -0.00037448
     6
  Step:    15            Position(A)                                  Velocity(au)
C        -0.03484290     0.03178284    -0.04000955    -0.00013453     0.00005700    -0.00099030
N        -0.05364666    -0.07866644     1.34291087     0.00001578    -0.00019556     0.00090334
H         0.94585708     0.00579373    -0.52639363     0.00135304     0.00039144    -0.00051345
H         0.85640653    -0.04838131     1.90790462    -0.00032015     0.00053432    -0.00014447
H        -0.84671041     0.05582727     1.85533473     0.00017697     0.00087965     0.00029648
H        -1.00780635     0.03143202    -0.52961442     0.00017401     0.00023292    -0.00039128
     6
  Step:    16            Position(A)                                  Velocity(au)
C        -0.03557200     0.03209819    -0.04557011    -0.00021400     0.00009490    -0.00170174
N        -0.05345594    -0.07976512     1.34795907     0.00008748    -0.00033717     0.00153731
H         0.95325564     0.00797239    -0.52926509     0.00219608     0.00066300    -0.00087110
H         0.85431896    -0.04541836     1.90685612    -0.00071336     0.00089914    -0.00038247
H        -0.84686756     0.06085235     1.85761039    -0.00038431     0.00156877     0.00087683
H        -1.00692248     0.03277518    -0.53186199     0.00023594     0.00042361    -0.00070838
     6
  Step:    17            Position(A)                                  Velocity(au)
C        -0.03673038     0.03261776    -0.05474424    -0.00019414     0.00008828    -0.00153757
N        -0.05287780    -0.08162003     1.35627240     0.00011409    -0.00031780     0.00139746
H         0.96548196     0.01159408    -0.53439380     0.00210824     0.00061746    -0.00092910
H         0.85017320    -0.04053570     1.90458171    -0.00073519     0.00082581    -0.00040911
H        -0.85011201     0.06966525     1.86312741    -0.00073843     0.00154302     0.00105606
H        -1.00598911     0.03504309    -0.53618184     0.00009336     0.00037799    -0.00081580
     6
  Step:    18            Position(A)                                  Velocity(au)
C        -0.03777285     0.03309900    -0.06300085    -0.00017283     0.00008120    -0.00137431
N        -0.05216258    -0.08336787     1.36380150     0.00013502    -0.00029835     0.00125744
H         0.97715583     0.01497222    -0.53979792     0.00199607     0.00057496    -0.00096619
H         0.84598447    -0.03605654     1.90221817    -0.00072647     0.00075447    -0.00041315
H        -0.85523881     0.07834487     1.86958242    -0.00103963     0.00151505     0.00120057
H        -1.00586414     0.03706028    -0.54111040    -0.00004677     0.00033392    -0.00091884
     6
  Step:    19            Position(A)                                  Velocity(au)
C        -0.03869296     0.03353985    -0.07034997    -0.00015180     0.00007436    -0.00122234
N        -0.05134458    -0.08500793     1.37055108     0.00015057    -0.00028066     0.00112711
H         0.98814802     0.01812292    -0.54536522     0.00187563     0.00053883    -0.00099084
H         0.84192387    -0.03196845     1.89989031    -0.00069308     0.00069036    -0.00039869
H        -0.86191736     0.08686909     1.87676029    -0.00128592     0.00149152     0.00131309
H        -1.00652021     0.03883486    -0.54661559    -0.00018015     0.00029334    -0.00102095
     6
  Step:    20            Position(A)                                  Velocity(au)
C        -0.03949372     0.03394199    -0.07685753    -0.00013181     0.00006803    -0.00108453
N        -0.05045564    -0.08654950     1.37657870     0.00016102    -0.00026521     0.00100945
H         0.99841834     0.02108047    -0.55103028     0.00175381     0.00050979    -0.00100800
H         0.83812752    -0.02823049     1.89769852    -0.00063837     0.00063498    -0.00036846
H        -0.86981629     0.09525306     1.88446783    -0.00147812     0.00147363     0.00139561
H        -1.00790639     0.04038566    -0.55268415    -0.00030435     0.00025646    -0.00112356
     6
  Step:    21            Position(A)                                  Velocity(au)
C        -0.04018227     0.03430850    -0.08260432    -0.00011302     0.00006218    -0.00095938
N        -0.04952513    -0.08800461     1.38195708     0.00016642    -0.00025161     0.00090329
H         1.00796468     0.02388320    -0.55675479     0.00163098     0.00048694    -0.00101920
H         0.83471083    -0.02479368     1.89572701    -0.00056362     0.00058754    -0.00032387
H        -0.87861899     0.10351994     1.89252962    -0.00161615     0.00145851     0.00144797
H        -1.00995911     0.04173266    -0.55931095    -0.00041708     0.00022253    -0.00122534
     6
  Step:    22            Position(A)                                  Velocity(au)
C        -0.04076658     0.03464231    -0.08766220    -0.00009544     0.00005672    -0.00084423
N        -0.04858138    -0.08938320     1.38675167     0.00016674    -0.00023920     0.00080628
H         1.01678662     0.02656446    -0.56250871     0.00150509     0.00046883    -0.00102423
H         0.83177997    -0.02161357     1.89405099    -0.00046981     0.00054654    -0.00026607
H        -0.88801758     0.11167898     1.90077506    -0.00169943     0.00144201     0.00146914
H        -1.01260356     0.04289186    -0.56648414    -0.00051569     0.00019065    -0.00132331
     6
  Step:    23            Position(A)                                  Velocity(au)
C        -0.04125441     0.03494571    -0.09208796    -0.00007908     0.00005156    -0.00073694
N        -0.04765202    -0.09069163     1.39101438     0.00016213    -0.00022740     0.00071643
H         1.02487203     0.02914972    -0.56826046     0.00137440     0.00045416    -0.00102255
H         0.82943321    -0.01865412     1.89273809    -0.00035884     0.00051068    -0.00019665
H        -0.89770947     0.11971869     1.90903313    -0.00172871     0.00142070     0.00145902
H        -1.01575203     0.04387435    -0.57417629    -0.00059753     0.00016013    -0.00141421
     6
  Step:    24            Position(A)                                  Velocity(au)
C        -0.04165340     0.03522048    -0.09592620    -0.00006401     0.00004663    -0.00063616
N        -0.04676325    -0.09193326     1.39478566     0.00015295    -0.00021586     0.00063243
H         1.03219909     0.03165743    -0.57397553     0.00123826     0.00044201    -0.00101398
H         0.82775591    -0.01588683     1.89184582    -0.00023382     0.00047899    -0.00011783
H        -0.90740323     0.12761058     1.91713640    -0.00170679     0.00139247     0.00141902
H        -1.01930419     0.04468753    -0.58234297    -0.00066046     0.00013054    -0.00149532
     6
  Step:    25            Position(A)                                  Velocity(au)
C        -0.04197137     0.03546802    -0.09921376    -0.00005030     0.00004191    -0.00054115
N        -0.04593872    -0.09310953     1.39809850     0.00013981    -0.00020438     0.00055356
H         1.03874225     0.03410081    -0.57961845     0.00109699     0.00043171    -0.00099883
H         0.82681407    -0.01328882     1.89141827    -0.00009892     0.00045078    -0.00003240
H        -0.91682781     0.13531626     1.92492810    -0.00163837     0.00135653     0.00135194
H        -1.02315005     0.04533657    -0.59092595    -0.00070316     0.00010167    -0.00156483
     6
  Step:    26            Position(A)                                  Velocity(au)
C        -0.04221636     0.03568960    -0.10198320    -0.00003802     0.00003741    -0.00045151
N        -0.04519841    -0.09422086     1.40098157     0.00012342    -0.00019289     0.00047939
H         1.04447762     0.03648956    -0.58515537     0.00095150     0.00042286    -0.00097776
H         0.82664870    -0.01084132     1.89148315     0.00004101     0.00042550     0.00005649
H        -0.92574138     0.14279410     1.93226854    -0.00152944     0.00131301     0.00126143
H        -1.02717457     0.04582550    -0.59985800    -0.00072520     0.00007342    -0.00162177
     6
  Step:    27            Position(A)                                  Velocity(au)
C        -0.04239662     0.03588646    -0.10426459    -0.00002719     0.00003311    -0.00036700
N        -0.04455806    -0.09526733     1.40346120     0.00010461    -0.00018140     0.00040971
H         1.04938617     0.03883107    -0.59055605     0.00080295     0.00041516    -0.00095162
H         0.82727287    -0.00852899     1.89205025     0.00018082     0.00040265     0.00014563
H        -0.93393681     0.15000412     1.93903896    -0.00138661     0.00126266     0.00115157
H        -1.03126240     0.04615792    -0.60906769    -0.00072692     0.00004577    -0.00166587
     6
  Step:    28            Position(A)                                  Velocity(au)
C        -0.04252034     0.03605981    -0.10608639    -0.00001780     0.00002904    -0.00028736
N        -0.04402879    -0.09624900     1.40556225     0.00008420    -0.00016993     0.00034430
H         1.05345491     0.04113122    -0.59579485     0.00065248     0.00040843    -0.00092134
H         0.82867039    -0.00633956     1.89311135     0.00031542     0.00038170     0.00023187
H        -0.94124428     0.15691116     1.94514351    -0.00121668     0.00120661     0.00102653
H        -1.03530179     0.04633727    -0.61848306    -0.00070926     0.00001871    -0.00169740
     6
  Step:    29            Position(A)                                  Velocity(au)
C        -0.04259549     0.03621090    -0.10747559    -0.00000978     0.00002517    -0.00021234
N        -0.04361717    -0.09716615     1.40730843     0.00006297    -0.00015852     0.00028298
H         1.05667701     0.04339483    -0.60085111     0.00050116     0.00040250    -0.00088781
H         0.83079743    -0.00426389     1.89464120     0.00044014     0.00036210     0.00031235
H        -0.94753200     0.16348681     1.95050939    -0.00102611     0.00114610     0.00089022
H        -1.03918771     0.04636697    -0.62803449    -0.00067362    -0.00000778    -0.00171697
     6
  Step:    30            Position(A)                                  Velocity(au)
C        -0.04262960     0.03634094    -0.10845756    -0.00000306     0.00002153    -0.00014161
N        -0.04332563    -0.09801923     1.40872230     0.00004159    -0.00014721     0.00022553
H         1.05905131     0.04562594    -0.60570898     0.00034988     0.00039726    -0.00085183
H         0.83358542    -0.00229595     1.89659934     0.00055088     0.00034331     0.00038455
H        -0.95270280     0.16970958     1.95508455    -0.00082057     0.00108228     0.00074602
H        -1.04282405     0.04625035    -0.63765642    -0.00062163    -0.00003372    -0.00172536
     6
  Step:    31            Position(A)                                  Velocity(au)
C        -0.04262966     0.03645113    -0.10905588     0.00000248     0.00001809    -0.00007485
N        -0.04315307    -0.09880887     1.40982518     0.00002064    -0.00013600     0.00017171
H         1.06058136     0.04782797    -0.61035689     0.00019938     0.00039259    -0.00081409
H         0.83694487    -0.00043285     1.89893251     0.00064430     0.00032476     0.00044642
H        -0.95668891     0.17556422     1.95883440    -0.00060494     0.00101620     0.00059680
H        -1.04612466     0.04599068    -0.64728820    -0.00055509    -0.00005912    -0.00172343
     6
  Step:    32            Position(A)                                  Velocity(au)
C        -0.04260196     0.03654261    -0.10929221     0.00000696     0.00001484    -0.00001170
N        -0.04309548    -0.09953579     1.41063707     0.00000060    -0.00012492     0.00012126
H         1.06127459     0.05000373    -0.61478684     0.00005029     0.00038838    -0.00077514
H         0.84077000     0.00132538     1.90157731     0.00071785     0.00030594     0.00049634
H        -0.95944851     0.18104123     1.96173944    -0.00038354     0.00094881     0.00044504
H        -1.04901386     0.04559106    -0.65687434    -0.00047581    -0.00008402    -0.00171202
     6
  Step:    33            Position(A)                                  Velocity(au)
C        -0.04255213     0.03661646    -0.10918622     0.00001049     0.00001177     0.00004818
N        -0.04314640    -0.10020079     1.41117638    -0.00001815    -0.00011397     0.00007391
H         1.06114172     0.05215551    -0.61899383    -0.00009683     0.00038452    -0.00073544
H         0.84494349     0.00297605     1.90446293     0.00076980     0.00028640     0.00053317
H        -0.96096255     0.18613632     1.96379321    -0.00016018     0.00088095     0.00029289
H        -1.05142639     0.04505444    -0.66636433    -0.00038555    -0.00010845    -0.00169188
     6
  Step:    34            Position(A)                                  Velocity(au)
C        -0.04248518     0.03667369    -0.10875572     0.00001318     0.00000888     0.00010511
N        -0.04329755    -0.10080470     1.41145997    -0.00003530    -0.00010315     0.00002936
H         1.06019642     0.05428504    -0.62297526    -0.00024145     0.00038091    -0.00069536
H         0.84934101     0.00451417     1.90751372     0.00079919     0.00026575     0.00055622
H        -0.96123198     0.19084980     1.96500055     0.00006174     0.00081339     0.00014228
H        -1.05330661     0.04438356    -0.67571196    -0.00028596    -0.00013243    -0.00166368
     6
  Step:    35            Position(A)                                  Velocity(au)
C        -0.04240549     0.03671523    -0.10801678     0.00001513     0.00000614     0.00015934
N        -0.04353918    -0.10134845     1.41150308    -0.00005063    -0.00009248    -0.00001264
H         1.05845528     0.05639356    -0.62673050    -0.00038300     0.00037744    -0.00065521
H         0.85383547     0.00593289     1.91065157     0.00080583     0.00024371     0.00056520
H        -0.96027565     0.19518619     1.96537626     0.00027909     0.00074684    -0.00000507
H        -1.05460802     0.04358103    -0.68487476    -0.00017864    -0.00015597    -0.00162801
     6
  Step:    36            Position(A)                                  Velocity(au)
C        -0.04231693     0.03674193    -0.10698399     0.00001643     0.00000354     0.00021112
N        -0.04386050    -0.10183300     1.41131939    -0.00006397    -0.00008198    -0.00005237
H         1.05593787     0.05848177    -0.63026052    -0.00052086     0.00037402    -0.00061526
H         0.85830098     0.00722399     1.91379815     0.00079017     0.00022006     0.00056020
H        -0.95812877     0.19915391     1.96494423     0.00048894     0.00068202    -0.00014751
H        -1.05529294     0.04264936    -0.69381363    -0.00006515    -0.00017908    -0.00158536
     6
  Step:    37            Position(A)                                  Velocity(au)
C        -0.04222287     0.03675458    -0.10567070     0.00001717     0.00000108     0.00026060
N        -0.04425001    -0.10225947     1.41092108    -0.00007519    -0.00007167    -0.00009007
H         1.05266710     0.06054988    -0.63356767    -0.00065435     0.00037055    -0.00057573
H         0.86261635     0.00837839     1.91687684     0.00075325     0.00019469     0.00054162
H        -0.95484226     0.20276525     1.96373705     0.00068838     0.00061963    -0.00028343
H        -1.05533207     0.04159103    -0.70249231     0.00005300    -0.00020174    -0.00153620
     6
  Step:    38            Position(A)                                  Velocity(au)
C        -0.04212626     0.03675392    -0.10408935     0.00001739    -0.00000126     0.00030790
N        -0.04469564    -0.10262913     1.41031895    -0.00008420    -0.00006160    -0.00012595
H         1.04866959     0.06259765    -0.63665551    -0.00078269     0.00036695    -0.00053685
H         0.86666771     0.00938656     1.91981427     0.00069656     0.00016756     0.00051017
H        -0.95048252     0.20603646     1.96179603     0.00087453     0.00056041    -0.00041118
H        -1.05470424     0.04040855    -0.71087709     0.00017434    -0.00022393    -0.00148094
     6
  Step:    39            Position(A)                                  Velocity(au)
C        -0.04202972     0.03674063    -0.10225177     0.00001718    -0.00000347     0.00035309
N        -0.04518491    -0.10294348     1.40952257    -0.00009093    -0.00005182    -0.00016021
H         1.04397620     0.06462440    -0.63952876    -0.00090500     0.00036313    -0.00049882
H         0.87035088     0.01023900     1.92254171     0.00062204     0.00013872     0.00046677
H        -0.94513156     0.20898802     1.95917133     0.00104445     0.00050519    -0.00052908
H        -1.05339622     0.03910458    -0.71893654     0.00029740    -0.00024560    -0.00141999
     6
  Step:    40            Position(A)                                  Velocity(au)
C        -0.04193554     0.03671536    -0.10016950     0.00001657    -0.00000558     0.00039615
N        -0.04570511    -0.10320437     1.40854038    -0.00009534    -0.00004238    -0.00019301
H         1.03862251     0.06662905    -0.64219326    -0.00102033     0.00035904    -0.00046187
H         0.87357343     0.01092656     1.92499626     0.00053197     0.00010827     0.00041260
H        -0.93888733     0.21164491     1.95592238     0.00119519     0.00045480    -0.00063538
H        -1.05140258     0.03768200    -0.72664144     0.00042073    -0.00026669    -0.00135375
     6
  Step:    41            Position(A)                                  Velocity(au)
C        -0.04184581     0.03667873    -0.09785407     0.00001560    -0.00000757     0.00043704
N        -0.04624335    -0.10341399     1.40737993    -0.00009742    -0.00003338    -0.00022449
H         1.03264932     0.06861021    -0.64465605    -0.00112765     0.00035462    -0.00042623
H         0.87625636     0.01144089     1.92712201     0.00042893     0.00007640     0.00034900
H        -0.93186359     0.21403687     1.95211792     0.00132385     0.00041015    -0.00072835
H        -1.04872565     0.03614398    -0.73396472     0.00054288    -0.00028714    -0.00128263
     6
  Step:    42            Position(A)                                  Velocity(au)
C        -0.04176240     0.03663136    -0.09531735     0.00001430    -0.00000944     0.00047567
N        -0.04678674    -0.10357499     1.40604802    -0.00009717    -0.00002489    -0.00025475
H         1.02610301     0.07056618    -0.64692540    -0.00122588     0.00034983    -0.00039215
H         0.87833558     0.01177477     1.92887096     0.00031575     0.00004335     0.00027751
H        -0.92418950     0.21619851     1.94783597     0.00142773     0.00037212    -0.00080635
H        -1.04537540     0.03449407    -0.74088160     0.00066242    -0.00030687    -0.00120711
     6
  Step:    43            Position(A)                                  Velocity(au)
C        -0.04168705     0.03657388    -0.09257166     0.00001269    -0.00001120     0.00051193
N        -0.04732248    -0.10369045     1.40455092    -0.00009463    -0.00001701    -0.00028385
H         1.01903583     0.07249513    -0.64901096    -0.00131392     0.00034465    -0.00035991
H         0.87976280     0.01192233     1.93020375     0.00019538     0.00000941     0.00019976
H        -0.91600850     0.21816932     1.94316334     0.00150432     0.00034161    -0.00086779
H        -1.04136940     0.03273621    -0.74736982     0.00077795    -0.00032578    -0.00112772
     6
  Step:    44            Position(A)                                  Velocity(au)
C        -0.04162138     0.03650693    -0.08963005     0.00001081    -0.00001284     0.00054567
N        -0.04783801    -0.10376401     1.40289453    -0.00008984    -0.00000983    -0.00031185
H         1.01150597     0.07439514    -0.65092386    -0.00139073     0.00033910    -0.00032980
H         0.88050617     0.01187934     1.93109024     0.00007087    -0.00002510     0.00011751
H        -0.90747724     0.21999367     1.93819521     0.00155144     0.00031949    -0.00091128
H        -1.03673271     0.03087477    -0.75341002     0.00088811    -0.00034382    -0.00104506
     6