|===============================================================================
|
|  DFTB+ release 20.1
|
|  Copyright (C) 2006 - 2020  DFTB+ developers group
|
|===============================================================================
|
|  When publishing results obtained with DFTB+, please cite the following
|  reference:
|
|  * DFTB+, a software package for efficient approximate density functional
|    theory based atomistic simulations, J. Chem. Phys. 152, 124101 (2020).
|    [doi: 10.1063/1.5143190]
|
|  You should also cite additional publications crediting the parametrization
|  data you use. Please consult the documentation of the SK-files for the
|  references.
|
|===============================================================================

Reading input file 'dftb_in.hsd'
Parser version: 8

--------------------------------------------------------------------------------
Reading SK-files:
Done.


Processed input in HSD format written to 'dftb_pin.hsd'

Starting initialization...
--------------------------------------------------------------------------------
OpenMP threads:              1
Chosen random seed:          509440500
Mode:                        Static calculation
Self consistent charges:     Yes
SCC-tolerance:                 0.100000E-05
Max. scc iterations:                   1000
Shell resolved Hubbard:      No
Spin polarisation:           No
Nr. of up electrons:             6.000000
Nr. of down electrons:           6.000000
Periodic boundaries:         No
Electronic solver:           Relatively robust
Maximal SCC-cycles:                    1000
Initial charges:             Set automatically (system chrg:   0.100E+01)
Included shells:             C:  s, p
                             N:  s, p
                             H:  s
Spin coupling constants:     C   1(s)-1(s):  -0.455900E-01
                             C   1(s)-2(p):  -0.293000E-01
                             C   2(p)-1(s):  -0.293000E-01
                             C   2(p)-2(p):  -0.275500E-01
                             N   1(s)-1(s):  -0.468700E-01
                             N   1(s)-2(p):  -0.317000E-01
                             N   2(p)-1(s):  -0.317000E-01
                             N   2(p)-2(p):  -0.307200E-01
                             H   1(s)-1(s):  -0.792500E-01
Range separated hybrid:      Yes
  Screening parameter omega:   0.300000E+00
  Range separated algorithm:   MatrixBased
Extra options:
                             Mulliken analysis
                             Force calculation
Force type                   original
                             Eigenvector printing


REKS Calcuation:             Yes
SSR(2,2) Calcuation:         Yes
Energy Functional:           (PPS+OSS)/2
Number of Core Orbitals:                  5
Number of Active Orbitals:                2
Number of Basis:                         12
Number of States:                         2
State-Averaging Weight:          0.500000
                                 0.500000
State of Interest:                        1
Initial Guess:               Diagonalize H0 matrix
Newton-Raphson for FON opt:  Yes
NR max. Iterations:                      50
Level Shifting:              Yes
Shift Value:                     0.300000
W Scale Factor:              C  =    3.000000
                             N  =    3.000000
                             H  =    3.000000
Transition Dipole:           No
Gradient of Microstate:      No
CP-REKS Solver:              Preconditioned Conjugate-Gradient
CG max. Iterations:                     100
CG Tolerance:                  0.100000E-07
Memory for A and Hxc:        Direct Updating Without Saving
Non-Adiabatic Coupling:      Yes

--------------------------------------------------------------------------------

***  Geometry step: 0

  iSCC       reks energy        Diff energy         x_a       SCC error   
    1       -6.2637586655       0.0000000000     0.999253    1.19126361
    2       -6.2767220163      -0.0129633508     0.999693    0.10187041
    3       -6.2805347693      -0.0038127530     0.999829    0.04470843
    4       -6.2823227161      -0.0017879468     0.999886    0.02210932
    5       -6.2833111289      -0.0009884128     0.999914    0.01148146
    6       -6.2839134944      -0.0006023655     0.999929    0.00655424
    7       -6.2842997355      -0.0003862411     0.999938    0.00582444
    8       -6.2845526902      -0.0002529547     0.999943    0.00499645
    9       -6.2847194646      -0.0001667744     0.999947    0.00419097
   10       -6.2848295305      -0.0001100659     0.999949    0.00346213
   11       -6.2849021301      -0.0000725997     0.999950    0.00282948
   12       -6.2849499950      -0.0000478649     0.999952    0.00229766
   13       -6.2849815567      -0.0000315617     0.999952    0.00191124
   14       -6.2850023842      -0.0000208275     0.999953    0.00163184
   15       -6.2850161449      -0.0000137607     0.999953    0.00138413
   16       -6.2850252501      -0.0000091052     0.999953    0.00116769
   17       -6.2850312843      -0.0000060342     0.999953    0.00098070
   18       -6.2850352894      -0.0000040051     0.999954    0.00082055
   19       -6.2850379514      -0.0000026620     0.999954    0.00068438
   20       -6.2850397229      -0.0000017715     0.999954    0.00056927
   21       -6.2850409031      -0.0000011802     0.999954    0.00047243
   22       -6.2850416900      -0.0000007869     0.999954    0.00039129
   23       -6.2850422151      -0.0000005251     0.999954    0.00032353
   24       -6.2850425657      -0.0000003506     0.999954    0.00026712
   25       -6.2850427998      -0.0000002342     0.999954    0.00022026
   26       -6.2850429563      -0.0000001565     0.999954    0.00018142
   27       -6.2850430609      -0.0000001046     0.999954    0.00014929
   28       -6.2850431308      -0.0000000699     0.999954    0.00012275
   29       -6.2850431775      -0.0000000467     0.999954    0.00010086
   30       -6.2850432088      -0.0000000313     0.999954    0.00008282
   31       -6.2850432297      -0.0000000209     0.999954    0.00006797
   32       -6.2850432436      -0.0000000140     0.999954    0.00005575
   33       -6.2850432530      -0.0000000093     0.999954    0.00004572
   34       -6.2850432592      -0.0000000063     0.999954    0.00003747
   35       -6.2850432634      -0.0000000042     0.999954    0.00003071
   36       -6.2850432662      -0.0000000028     0.999954    0.00002516
   37       -6.2850432681      -0.0000000019     0.999954    0.00002060
   38       -6.2850432693      -0.0000000013     0.999954    0.00001687
   39       -6.2850432702      -0.0000000008     0.999954    0.00001381
   40       -6.2850432707      -0.0000000006     0.999954    0.00001131
   41       -6.2850432711      -0.0000000004     0.999954    0.00000926
   42       -6.2850432714      -0.0000000003     0.999954    0.00000758
   43       -6.2850432715      -0.0000000002     0.999954    0.00000620
   44       -6.2850432716      -0.0000000001     0.999954    0.00000507
   45       -6.2850432717      -0.0000000001     0.999954    0.00000415
   46       -6.2850432718      -0.0000000001     0.999954    0.00000340
   47       -6.2850432718      -0.0000000000     0.999954    0.00000278
   48       -6.2850432718      -0.0000000000     0.999954    0.00000227
   49       -6.2850432718      -0.0000000000     0.999954    0.00000186
   50       -6.2850432718      -0.0000000000     0.999954    0.00000152
   51       -6.2850432718      -0.0000000000     0.999954    0.00000124
   52       -6.2850432718      -0.0000000000     0.999954    0.00000102
   53       -6.2850432719      -0.0000000000     0.999954    0.00000083
  
--------------------------------------------------
 Final SA-REKS(2,2) energy:      -6.28504327
  
 State     Energy      FON(1)    FON(2)   Spin
  PPS   -6.41206763   1.999907  0.000093  0.00
  OSS   -6.15801892   1.000000  1.000000  0.00
 Trip   -6.23886771   1.000000  1.000000  1.00
--------------------------------------------------

 Lagrangian Wab:   0.00586488  0.00586468

--------------------------------------------------
 SSR: 2SI-2SA-REKS(2,2) Hamiltonian matrix
               PPS           OSS
   PPS    -6.41206763    0.00823754
   OSS     0.00823754   -6.15801892
--------------------------------------------------

----------------------------------------------------------------
 SSR: 2SI-2SA-REKS(2,2) states
                    E_n       C_{PPS}    C_{OSS}
 SSR state  1   -6.41233445  -0.999476   0.032374
 SSR state  2   -6.15775209  -0.032374  -0.999476
----------------------------------------------------------------

 unrelaxed SSR FONs for S0:  1.998859  0.001141

Total Energy:                       -6.4123344490 H         -174.4885 eV
Extrapolated to 0:                  -6.4123344490 H         -174.4885 eV

----------------------------------------------------------------------------------
 Solving CP-REKS equation for  1 state vector...
----------------------------------------------------------------------------------
  CG solver: Constructing Y initial guess
  CG solver: Iteration    1    eps =    0.000120065264
  CG solver: Iteration    2    eps =    0.000050398031
  CG solver: Iteration    3    eps =    0.000002541967
  CG solver: Iteration    4    eps =    0.000000634946
  CG solver: Iteration    5    eps =    0.000000009959
  Convergence reached in CG solver after    5 iterations
  CG solver: Calculating converged R, Z, Q2 matrix
----------------------------------------------------------------------------------

----------------------------------------------------------------------------------
 Solving CP-REKS equation for SI between  1 and  2 state vectors...
----------------------------------------------------------------------------------
  CG solver: Constructing Y initial guess
  CG solver: Iteration    1    eps =    0.002020984752
  CG solver: Iteration    2    eps =    0.002290889147
  CG solver: Iteration    3    eps =    0.000421792725
  CG solver: Iteration    4    eps =    0.000004719486
  CG solver: Iteration    5    eps =    0.000000599758
  CG solver: Iteration    6    eps =    0.000000009438
  Convergence reached in CG solver after    6 iterations
  CG solver: Calculating converged R, Z, Q2 matrix
----------------------------------------------------------------------------------

--------------------------------------------------
 Gradient Information
--------------------------------------------------
           1 st state (SSR)
    -0.00133381    -0.00207313     0.02792038
     0.00148333     0.00310255    -0.02179799
     0.01238017    -0.00106722    -0.00224445
     0.01263829    -0.00227591    -0.00074678
    -0.01339968     0.00066972    -0.00110122
    -0.01176831     0.00164398    -0.00202993

           2 st state (SSR)
    -0.00009582    -0.00642735     0.13349781
    -0.00050695     0.00721876    -0.14695744
    -0.01228278    -0.00921905     0.01558215
    -0.00962436     0.00515403    -0.00916884
     0.01054571    -0.00516464    -0.00978677
     0.01196420     0.00843825     0.01683309
--------------------------------------------------
 Coupling Information
--------------------------------------------------
 between  1 and  2 states
--------------------------------------------------
 g vector - difference gradient
    -0.00062571     0.00218770    -0.05367635
     0.00102290    -0.00206302     0.06331087
     0.01309401     0.00396154    -0.00888568
     0.01195098    -0.00365857     0.00427281
    -0.01281173     0.00283994     0.00438102
    -0.01263046    -0.00326758    -0.00940267

 h vector - derivative coupling
    -0.00008346     0.00009268    -0.01197767
     0.00039582    -0.00000909     0.00924731
     0.01135899    -0.00189578     0.00071461
     0.01227871     0.00099010     0.00081633
    -0.01255019    -0.00128560     0.00044919
    -0.01139988     0.00210769     0.00075022

 G vector - GDV
    -0.00061899     0.00217711    -0.05278872
     0.00099514    -0.00205811     0.06257973
     0.01233148     0.00407592    -0.00891330
     0.01113133    -0.00371497     0.00421103
    -0.01197270     0.00291718     0.00434277
    -0.01186626    -0.00339713    -0.00943151

 H vector - DCV - non-adiabatic coupling
    -0.00048619     0.00091938    -0.06059408
     0.00181155    -0.00056005     0.05234077
     0.04785307    -0.00642400     0.00054239
     0.05116762     0.00295098     0.00428597
    -0.05245053    -0.00431737     0.00287438
    -0.04789552     0.00743106     0.00055057
--------------------------------------------------


--------------------------------------------------------------------------------
DFTB+ running times                          cpu [s]             wall clock [s]
--------------------------------------------------------------------------------
SCC                                    +     0.02  ( 69.8%)      0.03  ( 62.8%)
Post-SCC processing                    +     0.01  ( 25.9%)      0.01  ( 23.3%)
--------------------------------------------------------------------------------
Missing                                +     0.00  (  4.3%)      0.01  ( 14.0%)
Total                                  =     0.04  (100.0%)      0.04  (100.0%)
--------------------------------------------------------------------------------
