     6
  Step:   120            Position(A)                                  Velocity(au)
C        -0.03467735    -0.01581116    -0.14520084    -0.00003771     0.00001920     0.00045181
N        -0.03944779    -0.13439006     1.44959609     0.00009697     0.00002083    -0.00037041
H         0.91146726    -0.02574965    -0.73697281    -0.00003635    -0.00151159    -0.00007841
H         0.61081205     0.65251771     1.73241391    -0.00136884     0.00111045    -0.00099504
H        -0.94501384     0.04572109     1.93239641    -0.00034022    -0.00124460     0.00006685
H        -0.82880702     0.71367577    -0.44968873     0.00084728     0.00112745     0.00077020
