|===============================================================================
|
|  DFTB+ release 20.1
|
|  Copyright (C) 2006 - 2020  DFTB+ developers group
|
|===============================================================================
|
|  When publishing results obtained with DFTB+, please cite the following
|  reference:
|
|  * DFTB+, a software package for efficient approximate density functional
|    theory based atomistic simulations, J. Chem. Phys. 152, 124101 (2020).
|    [doi: 10.1063/1.5143190]
|
|  You should also cite additional publications crediting the parametrization
|  data you use. Please consult the documentation of the SK-files for the
|  references.
|
|===============================================================================

Reading input file 'dftb_in.hsd'
Parser version: 8

--------------------------------------------------------------------------------
Reading SK-files:
Done.


Processed input in HSD format written to 'dftb_pin.hsd'

Starting initialization...
--------------------------------------------------------------------------------
WARNING!
-> Excited state forces are not implemented yet for fractional occupations, kT=  0.3158E-02K
OpenMP threads:              1
Chosen random seed:          506730239
Mode:                        Static calculation
Self consistent charges:     Yes
SCC-tolerance:                 0.100000E-05
Max. scc iterations:                    100
Shell resolved Hubbard:      No
Spin polarisation:           No
Nr. of up electrons:             6.000000
Nr. of down electrons:           6.000000
Periodic boundaries:         No
Electronic solver:           Relatively robust
Mixer:                       Broyden mixer
Mixing parameter:                  0.200000
Maximal SCC-cycles:                     100
Nr. of chrg. vec. in memory:              0
Electronic temperature:        0.100000E-07 H      0.272114E-06 eV
Initial charges:             Set automatically (system chrg:   0.100E+01)
Included shells:             C:  s, p
                             N:  s, p
                             H:  s
Extra options:
                             Mulliken analysis
                             Force calculation
Force type                   original
                             Eigenvector printing

--------------------------------------------------------------------------------

***  Geometry step: 0

 iSCC Total electronic   Diff electronic      SCC error    
    1   -0.52161992E+01    0.00000000E+00    0.11299933E+01
    2   -0.52485466E+01   -0.32347428E-01    0.66997994E+00
    3   -0.52575366E+01   -0.89900255E-02    0.32797359E+00
    4   -0.46725837E+01    0.58495298E+00    0.24898983E+01
    5   -0.52600774E+01   -0.58749371E+00    0.17539903E+00
    6   -0.52633940E+01   -0.33166427E-02    0.23779519E-02
    7   -0.52633798E+01    0.14262329E-04    0.10589261E-01
    8   -0.52633866E+01   -0.68305010E-05    0.87330642E-02
    9   -0.52633946E+01   -0.80461885E-05    0.30254408E-03
   10   -0.52633946E+01    0.21000037E-08    0.37142638E-03
   11   -0.52633946E+01   -0.11752607E-07    0.56690508E-04
   12   -0.52633946E+01   -0.30433434E-09    0.11847026E-04
   13   -0.52633946E+01   -0.11620038E-10    0.50177019E-06
>> Charges saved for restart in charges.bin

Total Energy:                       -5.0207939059 H         -136.6228 eV
Extrapolated to 0:                  -5.1213866392 H         -139.3600 eV
Total Mermin free energy:           -5.0207939059 H         -136.6228 eV
Force related energy:               -5.1213866392 H         -139.3600 eV

--------------------------------------------------------------------------------
DFTB+ running times                          cpu [s]             wall clock [s]
--------------------------------------------------------------------------------
SCC                                    +     0.01  ( 63.5%)      0.04  ( 70.0%)
Post-SCC processing                    +     0.00  ( 29.9%)      0.01  ( 21.7%)
--------------------------------------------------------------------------------
Missing                                +     0.00  (  6.6%)      0.00  (  8.3%)
Total                                  =     0.01  (100.0%)      0.06  (100.0%)
--------------------------------------------------------------------------------
