     6
  Step:   120            Position(A)                                  Velocity(au)
C        -0.03690440    -0.00131613    -0.12426895     0.00006128    -0.00005781     0.00055326
N        -0.05696032    -0.10682964     1.42910238    -0.00005922    -0.00000424    -0.00047625
H         0.81845699     0.59085321    -0.54936167    -0.00099130     0.00155221     0.00079938
H         0.81874059    -0.28448256     1.96464095    -0.00053714    -0.00109910    -0.00035960
H        -0.66829972     0.65372862     1.84192082     0.00143593     0.00159275    -0.00055948
H        -0.95053378    -0.12965231    -0.74366857     0.00018531    -0.00129807     0.00014509
