|===============================================================================
|
|  DFTB+ release 20.1
|
|  Copyright (C) 2006 - 2020  DFTB+ developers group
|
|===============================================================================
|
|  When publishing results obtained with DFTB+, please cite the following
|  reference:
|
|  * DFTB+, a software package for efficient approximate density functional
|    theory based atomistic simulations, J. Chem. Phys. 152, 124101 (2020).
|    [doi: 10.1063/1.5143190]
|
|  You should also cite additional publications crediting the parametrization
|  data you use. Please consult the documentation of the SK-files for the
|  references.
|
|===============================================================================

Reading input file 'dftb_in.hsd'
Parser version: 8

--------------------------------------------------------------------------------
Reading SK-files:
Done.


Processed input in HSD format written to 'dftb_pin.hsd'

Starting initialization...
--------------------------------------------------------------------------------
OpenMP threads:              1
Chosen random seed:          507637592
Mode:                        Static calculation
Self consistent charges:     Yes
SCC-tolerance:                 0.100000E-05
Max. scc iterations:                   1000
Shell resolved Hubbard:      No
Spin polarisation:           No
Nr. of up electrons:             6.000000
Nr. of down electrons:           6.000000
Periodic boundaries:         No
Electronic solver:           Relatively robust
Maximal SCC-cycles:                    1000
Initial charges:             Set automatically (system chrg:   0.100E+01)
Included shells:             C:  s, p
                             N:  s, p
                             H:  s
Spin coupling constants:     C   1(s)-1(s):  -0.455900E-01
                             C   1(s)-2(p):  -0.293000E-01
                             C   2(p)-1(s):  -0.293000E-01
                             C   2(p)-2(p):  -0.275500E-01
                             N   1(s)-1(s):  -0.468700E-01
                             N   1(s)-2(p):  -0.317000E-01
                             N   2(p)-1(s):  -0.317000E-01
                             N   2(p)-2(p):  -0.307200E-01
                             H   1(s)-1(s):  -0.792500E-01
Range separated hybrid:      Yes
  Screening parameter omega:   0.300000E+00
  Range separated algorithm:   MatrixBased
Extra options:
                             Mulliken analysis
                             Force calculation
Force type                   original
                             Eigenvector printing


REKS Calcuation:             Yes
SSR(2,2) Calcuation:         Yes
Energy Functional:           (PPS+OSS)/2
Number of Core Orbitals:                  5
Number of Active Orbitals:                2
Number of Basis:                         12
Number of States:                         2
State-Averaging Weight:          0.500000
                                 0.500000
State of Interest:                        1
Initial Guess:               Diagonalize H0 matrix
Newton-Raphson for FON opt:  Yes
NR max. Iterations:                      50
Level Shifting:              Yes
Shift Value:                     0.300000
W Scale Factor:              C  =    3.000000
                             N  =    3.000000
                             H  =    3.000000
Transition Dipole:           No
Gradient of Microstate:      No
CP-REKS Solver:              Preconditioned Conjugate-Gradient
CG max. Iterations:                     100
CG Tolerance:                  0.100000E-07
Memory for A and Hxc:        Direct Updating Without Saving
Non-Adiabatic Coupling:      Yes

--------------------------------------------------------------------------------

***  Geometry step: 0

  iSCC       reks energy        Diff energy         x_a       SCC error   
    1       -6.2627899824       0.0000000000     0.998837    1.17941071
    2       -6.2762398407      -0.0134498583     0.999558    0.10871126
    3       -6.2800333138      -0.0037934731     0.999762    0.05010112
    4       -6.2816864512      -0.0016531375     0.999844    0.02539643
    5       -6.2825619864      -0.0008755351     0.999882    0.01372026
    6       -6.2831042595      -0.0005422732     0.999902    0.00752869
    7       -6.2834767501      -0.0003724905     0.999913    0.00570882
    8       -6.2837467182      -0.0002699682     0.999920    0.00513511
    9       -6.2839469327      -0.0002002145     0.999925    0.00453123
   10       -6.2840965040      -0.0001495713     0.999928    0.00395078
   11       -6.2842082263      -0.0001117223     0.999931    0.00341693
   12       -6.2842913908      -0.0000831644     0.999932    0.00296116
   13       -6.2843530073      -0.0000616165     0.999933    0.00257690
   14       -6.2843984342      -0.0000454269     0.999934    0.00222935
   15       -6.2844317685      -0.0000333343     0.999935    0.00197116
   16       -6.2844561256      -0.0000243571     0.999935    0.00173589
   17       -6.2844738569      -0.0000177313     0.999936    0.00151947
   18       -6.2844867233      -0.0000128664     0.999936    0.00132329
   19       -6.2844960338      -0.0000093105     0.999936    0.00114749
   20       -6.2845027554      -0.0000067216     0.999936    0.00099141
   21       -6.2845075982      -0.0000048428     0.999936    0.00085388
   22       -6.2845110815      -0.0000034833     0.999936    0.00073345
   23       -6.2845135833      -0.0000025018     0.999936    0.00062854
   24       -6.2845153780      -0.0000017947     0.999936    0.00053756
   25       -6.2845166641      -0.0000012861     0.999936    0.00045895
   26       -6.2845175849      -0.0000009208     0.999936    0.00039124
   27       -6.2845182436      -0.0000006587     0.999936    0.00033308
   28       -6.2845187146      -0.0000004710     0.999936    0.00028325
   29       -6.2845190511      -0.0000003365     0.999936    0.00024063
   30       -6.2845192915      -0.0000002403     0.999936    0.00020425
   31       -6.2845194630      -0.0000001716     0.999936    0.00017323
   32       -6.2845195855      -0.0000001225     0.999936    0.00014683
   33       -6.2845196729      -0.0000000874     0.999936    0.00012439
   34       -6.2845197352      -0.0000000623     0.999936    0.00010532
   35       -6.2845197796      -0.0000000444     0.999936    0.00008913
   36       -6.2845198113      -0.0000000317     0.999936    0.00007541
   37       -6.2845198339      -0.0000000226     0.999936    0.00006378
   38       -6.2845198500      -0.0000000161     0.999936    0.00005392
   39       -6.2845198614      -0.0000000115     0.999936    0.00004558
   40       -6.2845198696      -0.0000000082     0.999936    0.00003852
   41       -6.2845198754      -0.0000000058     0.999936    0.00003255
   42       -6.2845198796      -0.0000000041     0.999936    0.00002750
   43       -6.2845198825      -0.0000000030     0.999936    0.00002323
   44       -6.2845198847      -0.0000000021     0.999936    0.00001962
   45       -6.2845198862      -0.0000000015     0.999936    0.00001657
   46       -6.2845198872      -0.0000000011     0.999936    0.00001399
   47       -6.2845198880      -0.0000000008     0.999936    0.00001181
   48       -6.2845198885      -0.0000000005     0.999936    0.00000997
   49       -6.2845198889      -0.0000000004     0.999936    0.00000842
   50       -6.2845198892      -0.0000000003     0.999936    0.00000711
   51       -6.2845198894      -0.0000000002     0.999936    0.00000600
   52       -6.2845198895      -0.0000000001     0.999936    0.00000506
   53       -6.2845198896      -0.0000000001     0.999936    0.00000427
   54       -6.2845198897      -0.0000000001     0.999936    0.00000361
   55       -6.2845198897      -0.0000000001     0.999936    0.00000305
   56       -6.2845198898      -0.0000000000     0.999936    0.00000257
   57       -6.2845198898      -0.0000000000     0.999936    0.00000217
   58       -6.2845198898      -0.0000000000     0.999936    0.00000183
   59       -6.2845198898      -0.0000000000     0.999936    0.00000155
   60       -6.2845198898      -0.0000000000     0.999936    0.00000130
   61       -6.2845198899      -0.0000000000     0.999936    0.00000110
   62       -6.2845198899      -0.0000000000     0.999936    0.00000093
  
--------------------------------------------------
 Final SA-REKS(2,2) energy:      -6.28451989
  
 State     Energy      FON(1)    FON(2)   Spin
  PPS   -6.40826692   1.999873  0.000127  0.00
  OSS   -6.16077286   1.000000  1.000000  0.00
 Trip   -6.24261380   1.000000  1.000000  1.00
--------------------------------------------------

 Lagrangian Wab:   0.00770403  0.00770372

--------------------------------------------------
 SSR: 2SI-2SA-REKS(2,2) Hamiltonian matrix
               PPS           OSS
   PPS    -6.40826692    0.01080784
   OSS     0.01080784   -6.16077286
--------------------------------------------------

----------------------------------------------------------------
 SSR: 2SI-2SA-REKS(2,2) states
                    E_n       C_{PPS}    C_{OSS}
 SSR state  1   -6.40873800  -0.999051   0.043545
 SSR state  2   -6.16030178  -0.043545  -0.999051
----------------------------------------------------------------

 unrelaxed SSR FONs for S0:  1.997977  0.002023

Total Energy:                       -6.4087379953 H         -174.3906 eV
Extrapolated to 0:                  -6.4087379953 H         -174.3906 eV

----------------------------------------------------------------------------------
 Solving CP-REKS equation for  1 state vector...
----------------------------------------------------------------------------------
  CG solver: Constructing Y initial guess
  CG solver: Iteration    1    eps =    0.000141242398
  CG solver: Iteration    2    eps =    0.000089240742
  CG solver: Iteration    3    eps =    0.000014298744
  CG solver: Iteration    4    eps =    0.000001138809
  CG solver: Iteration    5    eps =    0.000000014029
  CG solver: Iteration    6    eps =    0.000000007085
  Convergence reached in CG solver after    6 iterations
  CG solver: Calculating converged R, Z, Q2 matrix
----------------------------------------------------------------------------------

----------------------------------------------------------------------------------
 Solving CP-REKS equation for SI between  1 and  2 state vectors...
----------------------------------------------------------------------------------
  CG solver: Constructing Y initial guess
  CG solver: Iteration    1    eps =    0.003670260035
  CG solver: Iteration    2    eps =    0.005682674744
  CG solver: Iteration    3    eps =    0.000658268578
  CG solver: Iteration    4    eps =    0.000008489217
  CG solver: Iteration    5    eps =    0.000001211454
  CG solver: Iteration    6    eps =    0.000000031128
  CG solver: Iteration    7    eps =    0.000000002510
  Convergence reached in CG solver after    7 iterations
  CG solver: Calculating converged R, Z, Q2 matrix
----------------------------------------------------------------------------------

--------------------------------------------------
 Gradient Information
--------------------------------------------------
           1 st state (SSR)
     0.00542397     0.00412939    -0.00043245
    -0.01221792     0.00030071     0.00729282
     0.01375251    -0.00066180     0.00160557
     0.01862720    -0.00631738    -0.00741581
    -0.01061804     0.00431768    -0.00626838
    -0.01496772    -0.00176859     0.00521825

           2 st state (SSR)
    -0.00686841    -0.00555642     0.10625917
     0.01346342     0.01081877    -0.11525819
    -0.01328036    -0.00597447     0.01654752
    -0.01464406     0.00053000    -0.01374085
     0.00814616    -0.00446386    -0.01488205
     0.01318325     0.00464598     0.02107440
--------------------------------------------------
 Coupling Information
--------------------------------------------------
 between  1 and  2 states
--------------------------------------------------
 g vector - difference gradient
     0.00630271     0.00489980    -0.05596858
    -0.01333354    -0.00551094     0.06343402
     0.01484705     0.00221754    -0.00728021
     0.01831962    -0.00326461     0.00321482
    -0.01072007     0.00441482     0.00441791
    -0.01541576    -0.00275661    -0.00781797

 h vector - derivative coupling
     0.00152418     0.00044035    -0.02770491
    -0.00508352    -0.00265500     0.02204365
     0.01464612    -0.00513987     0.00250986
     0.01855613     0.00197065     0.00046104
    -0.01491053     0.00008400     0.00108411
    -0.01473237     0.00529987     0.00160626

 G vector - GDV
     0.00614619     0.00484291    -0.05334581
    -0.01284067    -0.00525903     0.06127550
     0.01351643     0.00265633    -0.00747097
     0.01663563    -0.00342369     0.00316252
    -0.00938210     0.00439077     0.00430683
    -0.01407548    -0.00320729    -0.00792808

 H vector - DCV - non-adiabatic coupling
     0.00831914     0.00348176    -0.13069552
    -0.02505414    -0.01257636     0.11060888
     0.06392937    -0.01983380     0.00751464
     0.08082434     0.00675883     0.00297461
    -0.06354428     0.00188299     0.00589441
    -0.06447443     0.02028659     0.00370298
--------------------------------------------------


--------------------------------------------------------------------------------
DFTB+ running times                          cpu [s]             wall clock [s]
--------------------------------------------------------------------------------
SCC                                    +     0.03  ( 72.0%)      0.03  ( 68.2%)
Post-SCC processing                    +     0.01  ( 24.4%)      0.01  ( 22.7%)
--------------------------------------------------------------------------------
Missing                                +     0.00  (  3.6%)      0.00  (  9.1%)
Total                                  =     0.04  (100.0%)      0.04  (100.0%)
--------------------------------------------------------------------------------
