 Fermi distribution function

Calculation with static geometry


********************************************************************************
 iSCC Total electronic   Diff electronic      SCC error    
   13   -0.52752706E+01   -0.47890225E-09    0.29799142E-06
********************************************************************************

 Total charge:     1.00000000

 Atomic gross charges (e)
 Atom           Charge
    1       0.31120063
    2      -0.19305201
    3       0.17315337
    4       0.25745573
    5       0.26541236
    6       0.18582993

Nr. of electrons (up):     12.00000000
Atom populations (up)
 Atom       Population
    1       3.68879937
    2       5.19305201
    3       0.82684663
    4       0.74254427
    5       0.73458764
    6       0.81417007

l-shell populations (up)
 Atom Sh.   l       Population
    1   1   0       1.40399475
    1   2   1       2.28480462
    2   1   0       1.52581682
    2   2   1       3.66723520
    3   1   0       0.82684663
    4   1   0       0.74254427
    5   1   0       0.73458764
    6   1   0       0.81417007

Orbital populations (up)
 Atom Sh.   l   m       Population  Label
    1   1   0   0       1.40399475  s
    1   2   1  -1       0.41403771  p_y
    1   2   1   0       0.86936183  p_z
    1   2   1   1       1.00140508  p_x
    2   1   0   0       1.52581682  s
    2   2   1  -1       1.36881375  p_y
    2   2   1   0       1.07782648  p_z
    2   2   1   1       1.22059497  p_x
    3   1   0   0       0.82684663  s
    4   1   0   0       0.74254427  s
    5   1   0   0       0.73458764  s
    6   1   0   0       0.81417007  s

Fermi level:                        -0.5175230866 H          -14.0825 eV
Band energy:                        -8.6833547510 H         -236.2861 eV
TS:                                  0.0000000000 H            0.0000 eV
Band free energy (E-TS):            -8.6833547510 H         -236.2861 eV
Extrapolated E(0K):                 -8.6833547510 H         -236.2861 eV
Input / Output electrons (q):     12.0000000000     12.0000000000

Energy H0:                          -5.4123871100 H         -147.2785 eV
Energy SCC:                          0.1371165190 H            3.7311 eV
Total Electronic energy:            -5.2752705910 H         -143.5474 eV
Repulsive energy:                    0.1381105528 H            3.7582 eV
Total energy:                       -5.1371600382 H         -139.7892 eV
Extrapolated to 0:                  -5.1371600382 H         -139.7892 eV
Total Mermin free energy:           -5.1371600382 H         -139.7892 eV
Force related energy:               -5.1371600382 H         -139.7892 eV

SCC converged

Excitation Energy:                   0.1017192598 H            2.7679 eV

Total Forces
    1     -0.001800239870     -0.005225196760      0.038034548815
    2      0.006213381150      0.013429732870     -0.044815171852
    3     -0.002253158392      0.009009690309      0.002364163096
    4     -0.005601316580     -0.015158755122      0.001510229153
    5      0.001936859829      0.008420551923      0.003625480091
    6      0.001504473863     -0.010476023219     -0.000719249304

Maximal derivative component:        0.448152E-01 au


