|===============================================================================
|
|  DFTB+ release 20.1
|
|  Copyright (C) 2006 - 2020  DFTB+ developers group
|
|===============================================================================
|
|  When publishing results obtained with DFTB+, please cite the following
|  reference:
|
|  * DFTB+, a software package for efficient approximate density functional
|    theory based atomistic simulations, J. Chem. Phys. 152, 124101 (2020).
|    [doi: 10.1063/1.5143190]
|
|  You should also cite additional publications crediting the parametrization
|  data you use. Please consult the documentation of the SK-files for the
|  references.
|
|===============================================================================

Reading input file 'dftb_in.hsd'
Parser version: 8

--------------------------------------------------------------------------------
Reading SK-files:
Done.


Processed input in HSD format written to 'dftb_pin.hsd'

Starting initialization...
--------------------------------------------------------------------------------
WARNING!
-> Excited state forces are not implemented yet for fractional occupations, kT=  0.3158E-02K
OpenMP threads:              1
Chosen random seed:          508102062
Mode:                        Static calculation
Self consistent charges:     Yes
SCC-tolerance:                 0.100000E-05
Max. scc iterations:                    100
Shell resolved Hubbard:      No
Spin polarisation:           No
Nr. of up electrons:             6.000000
Nr. of down electrons:           6.000000
Periodic boundaries:         No
Electronic solver:           Relatively robust
Mixer:                       Broyden mixer
Mixing parameter:                  0.200000
Maximal SCC-cycles:                     100
Nr. of chrg. vec. in memory:              0
Electronic temperature:        0.100000E-07 H      0.272114E-06 eV
Initial charges:             Set automatically (system chrg:   0.100E+01)
Included shells:             C:  s, p
                             N:  s, p
                             H:  s
Extra options:
                             Mulliken analysis
                             Force calculation
Force type                   original
                             Eigenvector printing

--------------------------------------------------------------------------------

***  Geometry step: 0

 iSCC Total electronic   Diff electronic      SCC error    
    1   -0.52091364E+01    0.00000000E+00    0.11466738E+01
    2   -0.52424262E+01   -0.33289790E-01    0.68048958E+00
    3   -0.52514591E+01   -0.90329837E-02    0.33261884E+00
    4   -0.46658212E+01    0.58563795E+00    0.24677737E+01
    5   -0.52526011E+01   -0.58677993E+00    0.21587547E+00
    6   -0.52577470E+01   -0.51458467E-02    0.87674627E-02
    7   -0.52577496E+01   -0.26243921E-05    0.20181506E-02
    8   -0.52577439E+01    0.57095694E-05    0.73118719E-02
    9   -0.52577496E+01   -0.57213510E-05    0.51249976E-03
   10   -0.52577496E+01   -0.20533350E-07    0.98731445E-04
   11   -0.52577496E+01   -0.97428021E-09    0.70070799E-05
   12   -0.52577496E+01   -0.46878057E-11    0.50095145E-06
>> Charges saved for restart in charges.bin

Total Energy:                       -5.0211918281 H         -136.6336 eV
Extrapolated to 0:                  -5.1265941821 H         -139.5017 eV
Total Mermin free energy:           -5.0211918281 H         -136.6336 eV
Force related energy:               -5.1265941821 H         -139.5017 eV

--------------------------------------------------------------------------------
DFTB+ running times                          cpu [s]             wall clock [s]
--------------------------------------------------------------------------------
SCC                                    +     0.01  ( 66.4%)      0.13  ( 84.2%)
Post-SCC processing                    +     0.01  ( 25.4%)      0.02  ( 11.4%)
--------------------------------------------------------------------------------
Missing                                +     0.00  (  8.1%)      0.01  (  4.4%)
Total                                  =     0.02  (100.0%)      0.16  (100.0%)
--------------------------------------------------------------------------------
