    14
  Step:     0            Position(A)                                  Velocity(au)
C        -6.02617787    -0.63555890    -0.11198403     0.00018804     0.00025102    -0.00002398
C        -4.66680895    -0.80058099     0.13094796    -0.00040331     0.00008104    -0.00001214
H        -6.54962686     0.32270778    -0.13148447    -0.00019972    -0.00086190     0.00017591
H        -6.67917692    -1.46474560     0.01088987     0.00019330    -0.00016346    -0.00073943
H        -4.24044909    -1.80998011     0.23922235     0.00026866    -0.00059597     0.00035365
C        -3.88457983     0.37087309     0.01263007     0.00050612    -0.00028638     0.00007794
C        -2.50507123     0.43626174     0.12761682    -0.00015138     0.00018764     0.00007342
H        -4.54216277     1.23482628    -0.16846053    -0.00069353    -0.00043468     0.00028095
H        -1.93990122    -0.45031428     0.39575954     0.00049658    -0.00065392    -0.00053832
C        -1.83018060     1.68920043    -0.14892131    -0.00034407    -0.00009126    -0.00003860
H        -2.39439661     2.60587572    -0.52958716    -0.00088462     0.00046457    -0.00081806
N        -0.58301644     1.83578709     0.27977167     0.00017102    -0.00003439    -0.00004454
H        -0.18903765     2.82408255     0.24203604     0.00040437    -0.00002040     0.00081522
H         0.02940966     1.23433811     0.94498312     0.00047650     0.00105092     0.00017565
    14
  Step:     1            Position(A)                                  Velocity(au)
C        -6.02415908    -0.63283621    -0.11212811     0.00017902     0.00024303    -0.00000262
C        -4.67123704    -0.79969795     0.13070741    -0.00040231     0.00007673    -0.00003073
H        -6.55121078     0.31342230    -0.13002061    -0.00010207    -0.00080385     0.00009108
H        -6.67786001    -1.46761245     0.00254043     0.00005781    -0.00034830    -0.00078893
H        -4.23757411    -1.81600456     0.24325680     0.00023994    -0.00047968     0.00037914
C        -3.87939860     0.36768649     0.01350073     0.00043892    -0.00029379     0.00008117
C        -2.50643679     0.43853912     0.12835019    -0.00009775     0.00022331     0.00006171
H        -4.54870302     1.23045152    -0.16539179    -0.00048540    -0.00037331     0.00028064
H        -1.93426743    -0.45743607     0.39007772     0.00051613    -0.00061947    -0.00050890
C        -1.83424175     1.68804712    -0.14931704    -0.00039530    -0.00011496    -0.00003436
H        -2.40300281     2.60935511    -0.53805049    -0.00067616     0.00015494    -0.00071872
N        -0.58070851     1.83561591     0.27944016     0.00024837     0.00000350    -0.00001729
H        -0.18529436     2.82167828     0.25094355     0.00027573    -0.00040958     0.00080622
H         0.03213459     1.24692682     0.94479358     0.00002828     0.00123003    -0.00019622
    14
  Step:     2            Position(A)                                  Velocity(au)
C        -6.02226141    -0.63024211    -0.11204137     0.00016524     0.00022709     0.00001810
C        -4.67561027    -0.79890228     0.13027573    -0.00039308     0.00006588    -0.00004706
H        -6.55185976     0.30512204    -0.12949197    -0.00002985    -0.00068285     0.00000541
H        -6.67791225    -1.47236527    -0.00636943    -0.00005209    -0.00050108    -0.00084206
H        -4.23520005    -1.82047408     0.24751687     0.00017988    -0.00031802     0.00039535
C        -3.87497752     0.36444576     0.01440591     0.00036711    -0.00029686     0.00008422
C        -2.50720968     0.44114713     0.12896686    -0.00004283     0.00024839     0.00005200
H        -4.55278189     1.22665933    -0.16232093    -0.00024803    -0.00032546     0.00028093
H        -1.92860980    -0.46386632     0.38462634     0.00050290    -0.00053015    -0.00049442
C        -1.83882846     1.68668541    -0.14967296    -0.00043884    -0.00013009    -0.00003064
H        -2.40918897     2.60926543    -0.54531043    -0.00044838    -0.00017855    -0.00060235
N        -0.57758287     1.83586375     0.27939342     0.00031814     0.00004167     0.00000621
H        -0.18300555     2.81512220     0.25967360     0.00014616    -0.00076124     0.00078256
H         0.03002844     1.26124734     0.94069042    -0.00039163     0.00135493    -0.00052490
    14
  Step:     3            Position(A)                                  Velocity(au)
C        -6.02054407    -0.62786816    -0.11173214     0.00014563     0.00020283     0.00003793
C        -4.67983637    -0.79825671     0.12967786    -0.00037550     0.00005010    -0.00006112
H        -6.55186378     0.29848375    -0.12990222     0.00001653    -0.00050414    -0.00008015
H        -6.67899949    -1.47857462    -0.01588123    -0.00012869    -0.00061003    -0.00089859
H        -4.23363886    -1.82296187     0.25190581     0.00009462    -0.00012440     0.00040330
C        -3.87136737     0.36119218     0.01534328     0.00029093    -0.00029666     0.00008705
C        -2.50737372     0.44397321     0.12948781     0.00001349     0.00026366     0.00004408
H        -4.55412925     1.22333156    -0.15924581     0.00000891    -0.00028538     0.00028091
H        -1.92326544    -0.46903417     0.37926138     0.00046200    -0.00039317    -0.00049099
C        -1.84384218     1.68520116    -0.14998730    -0.00047236    -0.00013815    -0.00002618
H        -2.41281201     2.60544899    -0.55122801    -0.00021363    -0.00051721    -0.00047753
N        -0.57374849     1.83652754     0.27957598     0.00037575     0.00007908     0.00002328
H        -0.18209676     2.80502462     0.26806350     0.00003122    -0.00103895     0.00074431
H         0.02356682     1.27656843     0.93331032    -0.00075213     0.00139983    -0.00077910
    14
  Step:     4            Position(A)                                  Velocity(au)
C        -6.01907542    -0.62580481    -0.11121163     0.00011953     0.00017083     0.00005659
C        -4.68382511    -0.79780633     0.12893853    -0.00035001     0.00003098    -0.00007297
H        -6.55149809     0.29409295    -0.13124545     0.00004035    -0.00027922    -0.00016472
H        -6.68072752    -1.48571086    -0.02602790    -0.00016874    -0.00066880    -0.00095729
H        -4.23313016    -1.82319555     0.25633989    -0.00000891     0.00008672     0.00040434
C        -3.86861287     0.35795578     0.01631036     0.00021116    -0.00029417     0.00008965
C        -2.50691450     0.44691525     0.12993122     0.00007090     0.00027021     0.00003767
H        -4.55258703     1.22041616    -0.15617544     0.00027486    -0.00024698     0.00027951
H        -1.91850263    -0.47246766     0.37388495     0.00040034    -0.00021861    -0.00049432
C        -1.84916231     1.68366319    -0.15024567    -0.00049421    -0.00014080    -0.00001992
H        -2.41386263     2.59795056    -0.55575739     0.00001581    -0.00084240    -0.00035283
N        -0.56936259     1.83759384     0.27990263     0.00041711     0.00011488     0.00003124
H        -0.18232253     2.79239317     0.27595687    -0.00005381    -0.00120763     0.00069261
H         0.01357416     1.29187140     0.92364614    -0.00102177     0.00133892    -0.00092609
    14
  Step:     5            Position(A)                                  Velocity(au)
C        -6.01792902    -0.62413090    -0.11049418     0.00008663     0.00013256     0.00007379
C        -4.68749346    -0.79757886     0.12808149    -0.00031743     0.00001014    -0.00008273
H        -6.55098105     0.29237529    -0.13350588     0.00004844    -0.00002521    -0.00024739
H        -6.68269091    -1.49320585    -0.03682372    -0.00017306    -0.00067628    -0.00101616
H        -4.23383370    -1.82106479     0.26075151    -0.00012316     0.00030043     0.00040003
C        -3.86674794     0.35475671     0.01730461     0.00012887    -0.00029025     0.00009202
C        -2.50582264     0.44988468     0.13031186     0.00012889     0.00026942     0.00003243
H        -4.54811627     1.21792841    -0.15313096     0.00053883    -0.00020417     0.00027564
H        -1.91450727    -0.47381678     0.36844722     0.00032577    -0.00001822    -0.00049995
C        -1.85465406     1.68212082    -0.15042305    -0.00050344    -0.00014000    -0.00001096
H        -2.41246618     2.58701995    -0.55894679     0.00022743    -0.00113498    -0.00023698
N        -0.56462332     1.83904081     0.28025933     0.00043911     0.00014836     0.00002773
H        -0.18327402     2.77860542     0.28321559    -0.00009524    -0.00123700     0.00062967
H         0.00121357     1.30585980     0.91305042    -0.00117329     0.00114998    -0.00093622
    14
  Step:     6            Position(A)                                  Velocity(au)
C        -6.01718029    -0.62290489    -0.10959723     0.00004688     0.00009013     0.00008928
C        -4.69076944    -0.79758459     0.12712870    -0.00027890    -0.00001084    -0.00009060
H        -6.55043834     0.29354138    -0.13665749     0.00005022     0.00023688    -0.00032715
H        -6.68451351    -1.50050581    -0.04825831    -0.00014576    -0.00063575    -0.00107285
H        -4.23582453    -1.81662304     0.26509138    -0.00024026     0.00050181     0.00039214
C        -3.86579356     0.35160593     0.01832341     0.00004527    -0.00028575     0.00009413
C        -2.50409480     0.45280930     0.13064070     0.00018694     0.00026289     0.00002801
H        -4.54079905     1.21594961    -0.15014530     0.00078991    -0.00015109     0.00026828
H        -1.91137571    -0.47286627     0.36294752     0.00024665     0.00019539    -0.00050337
C        -1.86017599     1.68060053    -0.15048545    -0.00049977    -0.00013799     0.00000145
H        -2.40888723     2.57312063    -0.56094177     0.00040822    -0.00137491    -0.00013912
N        -0.55975615     1.84083944     0.28050930     0.00044032     0.00017886     0.00001136
H        -0.18440609     2.76533148     0.28973215    -0.00008330    -0.00110758     0.00055882
H        -0.01209372     1.31702947     0.90316460    -0.00119152     0.00082166    -0.00079176
    14
  Step:     7            Position(A)                                  Velocity(au)
C        -6.01690334    -0.62215915    -0.10854103     0.00000059     0.00004602     0.00010280
C        -4.69359488    -0.79781604     0.12609953    -0.00023577    -0.00003031    -0.00009684
H        -6.54988245     0.29755759    -0.14066296     0.00005602     0.00048492    -0.00040293
H        -6.68587976    -1.50711403    -0.06029434    -0.00009332    -0.00055379    -0.00112495
H        -4.23908992    -1.81008680     0.26933038    -0.00035210     0.00067607     0.00038259
C        -3.86575764     0.34850542     0.01936391    -0.00003851    -0.00028146     0.00009597
C        -2.50173295     0.45563595     0.13092472     0.00024461     0.00025246     0.00002405
H        -4.53083555     1.21462295    -0.14726179     0.00101766    -0.00008240     0.00025657
H        -1.90911139    -0.46954229     0.35743500     0.00017149     0.00040913    -0.00049999
C        -1.86558742     1.67910213    -0.15039142    -0.00048351    -0.00013730     0.00001793
H        -2.40353553     2.55694122    -0.56199023     0.00054485    -0.00154145    -0.00006872
N        -0.55499047     1.84295362     0.28050784     0.00042179     0.00020566    -0.00001752
H        -0.18509629     2.75437492     0.29544075    -0.00001515    -0.00081832     0.00048412
H        -0.02485330     1.32383508     0.89572918    -0.00108274     0.00036248    -0.00049809
    14
  Step:     8            Position(A)                                  Velocity(au)
C        -6.01716744    -0.62189814    -0.10734823    -0.00005165     0.00000270     0.00011417
C        -4.69592737    -0.79824762     0.12501007    -0.00018953    -0.00004662    -0.00010179
H        -6.54921283     0.30414986    -0.14547235     0.00007522     0.00069855    -0.00047356
H        -6.68655512    -1.51262113    -0.07286877    -0.00002366    -0.00043924    -0.00117028
H        -4.24352741    -1.80183271     0.27346117    -0.00045053     0.00080895     0.00037340
C        -3.86663593     0.34544842     0.02042291    -0.00012134    -0.00027815     0.00009750
C        -2.49874357     0.45833229     0.13116680     0.00030141     0.00023999     0.00002017
H        -4.51853586     1.21414692    -0.14453238     0.00121273     0.00000643     0.00023984
H        -1.90762413    -0.46391570     0.35200928     0.00010883     0.00060975    -0.00048525
C        -1.87075360     1.67759676    -0.15009322    -0.00045535    -0.00014048     0.00003897
H        -2.39696764     2.53939850    -0.56244524     0.00062446    -0.00161467    -0.00003517
N        -0.55052860     1.84533868     0.28012594     0.00038749     0.00022795    -0.00005622
H        -0.18473761     2.74742916     0.30032327     0.00010248    -0.00039297     0.00040983
H        -0.03578073     1.32495932     0.89226799    -0.00087989    -0.00019234    -0.00009178
    14
  Step:     9            Position(A)                                  Velocity(au)
C        -6.01803333    -0.62210013    -0.10604333    -0.00010888    -0.00003764     0.00012324
C        -4.69774127    -0.79883600     0.12387262    -0.00014176    -0.00005825    -0.00010580
H        -6.54823693     0.31283966    -0.15102300     0.00011459     0.00086182    -0.00053781
H        -6.68639731    -1.51672333    -0.08589644     0.00005460    -0.00030226    -0.00120707
H        -4.24894619    -1.79238943     0.27749911    -0.00052773     0.00088720     0.00036672
C        -3.86841225     0.34242037     0.02149695    -0.00020206    -0.00027638     0.00009872
C        -2.49513906     0.46088611     0.13136598     0.00035659     0.00022713     0.00001606
H        -4.50430479     1.21476353    -0.14201490     0.00136751     0.00011839     0.00021765
H        -1.90673051    -0.45620275     0.34681920     0.00006703     0.00078405    -0.00045493
C        -1.87554916     1.67602891    -0.14953881    -0.00041624    -0.00014952     0.00006482
H        -2.38987416     2.52161730    -0.56275954     0.00063673    -0.00157861    -0.00004641
N        -0.54651331     1.84794051     0.27927794     0.00034382     0.00024496    -0.00009982
H        -0.18285425     2.74577805     0.30440665     0.00025277     0.00011876     0.00033948
H        -0.04410252     1.31962721     0.89372121    -0.00063828    -0.00078213     0.00036140
    14
  Step:    10            Position(A)                                  Velocity(au)
C        -6.01954938    -0.62272163    -0.10465203    -0.00016978    -0.00007327     0.00012995
C        -4.69902860    -0.79952198     0.12269542    -0.00009408    -0.00006395    -0.00010923
H        -6.54670601     0.32300375    -0.15723800     0.00017734     0.00096471    -0.00059446
H        -6.68536071    -1.51923356    -0.09927583     0.00013253    -0.00015380    -0.00123417
H        -4.25507261    -1.78242343     0.28148378    -0.00057677     0.00089965     0.00036473
C        -3.87105630     0.33940203     0.02258260    -0.00027920    -0.00027637     0.00009965
C        -2.49094243     0.46330127     0.13151821     0.00040884     0.00021502     0.00001150
H        -4.48861896     1.21673704    -0.13977097     0.00147688     0.00025418     0.00018981
H        -1.90615766    -0.44676313     0.34205675     0.00005396     0.00091924    -0.00040555
C        -1.87985956     1.67432579    -0.14867511    -0.00036712    -0.00016522     0.00009535
H        -2.38303793     2.50486331    -0.56346047     0.00057669    -0.00142611    -0.00010693
N        -0.54300679     1.85069756     0.27794215     0.00029813     0.00025630    -0.00014232
H        -0.17920777     2.75002715     0.30775008     0.00041122     0.00064819     0.00027512
H        -0.04974440     1.30784881     0.90017433    -0.00042071    -0.00133283     0.00078160
    14
  Step:    11            Position(A)                                  Velocity(au)
C        -6.02174768    -0.62370302    -0.10320047    -0.00023272    -0.00010296     0.00013428
C        -4.69979956    -0.80023493     0.12148291    -0.00004817    -0.00006298    -0.00011240
H        -6.54435729     0.33394446    -0.16402789     0.00026300     0.00100344    -0.00064246
H        -6.68349786    -1.52008795    -0.11289625     0.00020126    -0.00000525    -0.00125109
H        -4.26156415    -1.77270791     0.28547824    -0.00059253     0.00083903     0.00036937
C        -3.87452018     0.33637434     0.02367703    -0.00035103    -0.00027781     0.00010036
C        -2.48619485     0.46559015     0.13161750     0.00045622     0.00020404     0.00000636
H        -4.47199532     1.22032429    -0.13786248     0.00153880     0.00041138     0.00015652
H        -1.90554993    -0.43609253     0.33794699     0.00007651     0.00100379    -0.00033472
C        -1.88358061     1.67241443    -0.14745295    -0.00030902    -0.00018660     0.00012986
H        -2.37725789     2.49041847    -0.56509879     0.00044787    -0.00116390    -0.00021512
N        -0.53999112     1.85354751     0.27616447     0.00025680     0.00026233    -0.00017823
H        -0.17385793     2.75995838     0.31042551     0.00055104     0.00112196     0.00021707
H        -0.05330635     1.29046905     0.91082010    -0.00027856    -0.00177598     0.00109711
    14
  Step:    12            Position(A)                                  Velocity(au)
C        -6.02464061    -0.62497409    -0.10171430    -0.00029579    -0.00012597     0.00013635
C        -4.70008231    -0.80089968     0.12023644    -0.00000558    -0.00005531    -0.00011554
H        -6.54095234     0.34495603    -0.17129301     0.00036802     0.00097977    -0.00068103
H        -6.68095765    -1.51934833    -0.12664585     0.00025225     0.00013200    -0.00125810
H        -4.26803532    -1.76406810     0.28956438    -0.00057271     0.00070403     0.00038189
C        -3.87873569     0.33332439     0.02477814    -0.00041571    -0.00027989     0.00010090
C        -2.48096175     0.46776510     0.13165745     0.00049645     0.00019383     0.00000071
H        -4.45495479     1.22573668    -0.13634687     0.00155463     0.00058384     0.00011849
H        -1.90448393    -0.42480324     0.33473415     0.00013958     0.00102883    -0.00024139
C        -1.88661994     1.67024358    -0.14583417    -0.00024322    -0.00021070     0.00016698
H        -2.37323997     2.47940084    -0.56816662     0.00026423    -0.00081602    -0.00036102
N        -0.53738886     1.85643652     0.27404308     0.00022387     0.00026415    -0.00020396
H        -0.16715270     2.77457225     0.31249892     0.00064933     0.00147836     0.00016428
H        -0.05583835     1.26899587     0.92417567    -0.00023894    -0.00206519     0.00126267
    14
  Step:    13            Position(A)                                  Velocity(au)
C        -6.02821867    -0.62645878    -0.10021767    -0.00035695    -0.00014194     0.00013631
C        -4.69992158    -0.80144503     0.11895534     0.00003233    -0.00004177    -0.00011875
H        -6.53630618     0.35537888    -0.17892670     0.00048658     0.00089983    -0.00070978
H        -6.67797947    -1.51720022    -0.14041969     0.00027762     0.00024697    -0.00125617
H        -4.27409320    -1.75730601     0.29383287    -0.00051874     0.00050124     0.00040232
C        -3.88361473     0.33025127     0.02588433    -0.00047159    -0.00028129     0.00010128
C        -2.47533409     0.46983056     0.13163295     0.00052737     0.00018340    -0.00000529
H        -4.43798481     1.23309683    -0.13527023     0.00152895     0.00076153     0.00007713
H        -1.90249643    -0.41358480     0.33266605     0.00024504     0.00098992    -0.00012600
C        -1.88890143     1.66780496    -0.14379993    -0.00017144    -0.00023296     0.00020462
H        -2.37147746     2.47256643    -0.57299669     0.00004932    -0.00042247    -0.00052605
N        -0.53509357     1.85932639     0.27170239     0.00020072     0.00026327    -0.00021828
H        -0.15965251     2.79230027     0.31401948     0.00069176     0.00167898     0.00011516
H        -0.05853356     1.24528899     0.93844335    -0.00030311    -0.00218282     0.00126526
    14
  Step:    14            Position(A)                                  Velocity(au)
C        -6.03244957    -0.62807927    -0.09873225    -0.00041417    -0.00015088     0.00013444
C        -4.69937505    -0.80181352     0.11763863     0.00006456    -0.00002404    -0.00012197
H        -6.53030754     0.36464156    -0.18682071     0.00061151     0.00077294    -0.00072878
H        -6.67488427    -1.51394535    -0.15412697     0.00027067     0.00032981    -0.00124684
H        -4.27938379    -1.75310257     0.29836600    -0.00043628     0.00024625     0.00042897
C        -3.88905273     0.32717062     0.02699375    -0.00051737    -0.00028037     0.00010144
C        -2.46942459     0.47177724     0.13154164     0.00054736     0.00017128    -0.00001132
H        -4.42150618     1.24239663    -0.13465956     0.00146880     0.00093116     0.00003445
H        -1.89912332    -0.40314678     0.33197764     0.00039057     0.00088878     0.00000944
C        -1.89037057     1.66514708    -0.14135772    -0.00009581    -0.00024810     0.00024024
H        -2.37216110     2.47015840    -0.57967508    -0.00016798    -0.00003212    -0.00068594
N        -0.53299783     1.86219606     0.26926781     0.00018658     0.00026107    -0.00022187
H        -0.15201913     2.81130318     0.31501838     0.00067403     0.00171216     0.00006836
H        -0.06246954     1.22124252     0.95185569    -0.00045372    -0.00213622     0.00111828
    14
  Step:    15            Position(A)                                  Velocity(au)
C        -6.03727934    -0.62975947    -0.09727648    -0.00046561    -0.00015310     0.00013106
C        -4.69850917    -0.80197099     0.11628691     0.00009052    -0.00000458    -0.00012499
H        -6.52292830     0.37228853    -0.19487006     0.00073514     0.00061046    -0.00073848
H        -6.67205812    -1.50998490    -0.16769679     0.00022661     0.00037278    -0.00123215
H        -4.28363758    -1.75191876     0.30321746    -0.00033460    -0.00003735     0.00045836
C        -3.89493321     0.32411756     0.02810347    -0.00055215    -0.00027533     0.00010126
C        -2.46335960     0.47357766     0.13138529     0.00055564     0.00015569    -0.00001694
H        -4.40585208     1.25346763    -0.13451665     0.00138240     0.00107769    -0.00000714
H        -1.89395195    -0.39414100     0.33287267     0.00056883     0.00073459     0.00016119
C        -1.89099756     1.66237724    -0.13854413    -0.00001850    -0.00025123     0.00027134
H        -2.37515234     2.47186375    -0.58800286    -0.00035967     0.00030788    -0.00081585
N        -0.53101175     1.86503788     0.26684847     0.00017946     0.00025850    -0.00021661
H        -0.14490691     2.82975700     0.31551501     0.00060050     0.00158885     0.00002317
H        -0.06845950     1.19855510     0.96290787    -0.00066456    -0.00194867     0.00085044
    14
  Step:    16            Position(A)                                  Velocity(au)
C        -6.04263562    -0.63142866    -0.09586504    -0.00050980    -0.00014930     0.00012651
C        -4.69739469    -0.80191379     0.11490416     0.00010998     0.00001367    -0.00012743
H        -6.51422503     0.37799660    -0.20297638     0.00084985     0.00042497    -0.00073973
H        -6.66992673    -1.50579006    -0.18108252     0.00014336     0.00037143    -0.00121428
H        -4.28670381    -1.75391964     0.30839359    -0.00022523    -0.00032099     0.00048561
C        -3.90113201     0.32114717     0.02920893    -0.00057539    -0.00026445     0.00010057
C        -2.45726900     0.47518317     0.13117101     0.00055234     0.00013465    -0.00002164
H        -4.39126348     1.26597318    -0.13481566     0.00127774     0.00118659    -0.00004516
H        -1.88667898    -0.38707621     0.33550402     0.00076756     0.00054376     0.00032381
C        -1.89077531     1.65965097    -0.13542156     0.00005868    -0.00023882     0.00029593
H        -2.38002953     2.47689379    -0.59752341    -0.00050439     0.00056192    -0.00089605
N        -0.52907180     1.86785123     0.26452913     0.00017687     0.00025593    -0.00020477
H        -0.13888196     2.84606241     0.31552527     0.00048134     0.00133487    -0.00002040
H        -0.07700808     1.17861162     0.97046070    -0.00090831    -0.00165037     0.00049572
    14
  Step:    17            Position(A)                                  Velocity(au)
C        -6.04843209    -0.63302570    -0.09450873    -0.00054571    -0.00014057     0.00012115
C        -4.69610316    -0.80167193     0.11349903     0.00012295     0.00002775    -0.00012886
H        -6.50433620     0.38158559    -0.21105312     0.00094845     0.00022981    -0.00073381
H        -6.66892181    -1.50185913    -0.19426143     0.00002221     0.00032572    -0.00119522
H        -4.28856491    -1.75894107     0.31384114    -0.00011986    -0.00057562     0.00050522
C        -3.90752104     0.31833224     0.03030372    -0.00058689    -0.00024632     0.00009923
C        -2.45127619     0.47652337     0.13091177     0.00053846     0.00010632    -0.00002490
H        -4.37789897     1.27942647    -0.13550456     0.00116143     0.00124601    -0.00007747
H        -1.87716014    -0.38224527     0.33995663     0.00097077     0.00033799     0.00049054
C        -1.88971376     1.65715267    -0.13207017     0.00013448    -0.00020926     0.00031284
H        -2.38618677     2.48415679    -0.60760559    -0.00059040     0.00071127    -0.00091533
N        -0.52714236     1.87063687     0.26236883     0.00017634     0.00025332    -0.00018863
H        -0.13437674     2.85895987     0.31506873     0.00032962     0.00098343    -0.00006179
H        -0.08833048     1.16245011     0.97375274    -0.00116040    -0.00127263     0.00008737
    14
  Step:    18            Position(A)                                  Velocity(au)
C        -6.05457406    -0.63450381    -0.09321471    -0.00057286    -0.00012844     0.00011526
C        -4.69470490    -0.80130669     0.11208506     0.00012957     0.00003511    -0.00012886
H        -6.49347586     0.38302410    -0.21902985     0.00102444     0.00003864    -0.00072236
H        -6.66944095    -1.49866428    -0.20723024    -0.00013170     0.00024084    -0.00117632
H        -4.28932602    -1.76651247     0.31944629    -0.00002834    -0.00077644     0.00051212
C        -3.91397142     0.31575836     0.03137988    -0.00058670    -0.00022009     0.00009712
C        -2.44548918     0.47750912     0.13062632     0.00051569     0.00006931    -0.00002622
H        -4.36585495     1.29323197    -0.13651040     0.00103810     0.00124854    -0.00010251
H        -1.86544159    -0.37968202     0.34623562     0.00116090     0.00014093     0.00065396
C        -1.88783329     1.65507305    -0.12857768     0.00020816    -0.00016290     0.00032181
H        -2.39294573     2.49245411    -0.61754793    -0.00061535     0.00075369    -0.00087153
N        -0.52521393     1.87339310     0.26040247     0.00017561     0.00025037    -0.00017031
H        -0.13167089     2.86757688     0.31417344     0.00015944     0.00057016    -0.00010012
H        -0.10239415     1.15077034     0.97237213    -0.00139999    -0.00084564    -0.00034412
    14
  Step:    19            Position(A)                                  Velocity(au)
C        -6.06096440    -0.63583566    -0.09198724    -0.00059127    -0.00011491     0.00010907
C        -4.69326850    -0.80090373     0.11067996     0.00013001     0.00003400    -0.00012712
H        -6.48192453     0.38243101    -0.22685604     0.00107229    -0.00013496    -0.00070734
H        -6.67180295    -1.49659033    -0.21999568    -0.00030934     0.00012732    -0.00115789
H        -4.28918490    -1.77592727     0.32504485     0.00004271    -0.00090639     0.00050255
C        -3.92035632     0.31351744     0.03242837    -0.00057515    -0.00018549     0.00009416
C        -2.43999438     0.47803963     0.13033824     0.00048616     0.00002302    -0.00002524
H        -4.35518862     1.30674063    -0.13774718     0.00091044     0.00119188    -0.00011946
H        -1.85176317    -0.37916207     0.35426317     0.00132143    -0.00002582     0.00080678
C        -1.88515977     1.65358893    -0.12502998     0.00027932    -0.00010169     0.00032332
H        -2.39964884     2.50064511    -0.62667189    -0.00058379     0.00069921    -0.00076960
N        -0.52330045     1.87611425     0.25864290     0.00017263     0.00024674    -0.00015179
H        -0.13088870     2.87143311     0.31287835    -0.00001507     0.00013070    -0.00013433
H        -0.11895788     1.14395009     0.96622443    -0.00160912    -0.00039880    -0.00077041
    14
  Step:    20            Position(A)                                  Velocity(au)
C        -6.06750923    -0.63701773    -0.09082860    -0.00060145    -0.00010225     0.00010271
C        -4.69186074    -0.80056285     0.10930412     0.00012442     0.00002363    -0.00012348
H        -6.47001752     0.38007162    -0.23450433     0.00108761    -0.00027808    -0.00069099
H        -6.67620833    -1.49587892    -0.23256128    -0.00049871    -0.00000002    -0.00113899
H        -4.28839168    -1.78634152     0.33044056     0.00009034    -0.00095765     0.00047456
C        -3.92655401     0.31170034     0.03343974    -0.00055283    -0.00014297     0.00009035
C        -2.43485345     0.47801279     0.13007415     0.00045213    -0.00003212    -0.00002179
H        -4.34593743     1.31930663    -0.13912382     0.00077960     0.00107872    -0.00012819
H        -1.83653270    -0.38024693     0.36388547     0.00143911    -0.00014605     0.00094277
C        -1.88172257     1.65284837    -0.12150437     0.00034762    -0.00002869     0.00031834
H        -2.40571736     2.50775077    -0.63438438    -0.00050420     0.00056492    -0.00061887
N        -0.52143724     1.87879105     0.25708177     0.00016550     0.00024217    -0.00013503