 Fermi distribution function

Calculation with static geometry


********************************************************************************
 iSCC Total electronic   Diff electronic      SCC error    
   13   -0.52768185E+01   -0.57831961E-10    0.80962315E-07
********************************************************************************

 Total charge:     1.00000000

 Atomic gross charges (e)
 Atom           Charge
    1       0.29055472
    2      -0.18942917
    3       0.18600596
    4       0.27237903
    5       0.26137631
    6       0.17911315

Nr. of electrons (up):     12.00000000
Atom populations (up)
 Atom       Population
    1       3.70944528
    2       5.18942917
    3       0.81399404
    4       0.72762097
    5       0.73862369
    6       0.82088685

l-shell populations (up)
 Atom Sh.   l       Population
    1   1   0       1.41306667
    1   2   1       2.29637861
    2   1   0       1.51419535
    2   2   1       3.67523382
    3   1   0       0.81399404
    4   1   0       0.72762097
    5   1   0       0.73862369
    6   1   0       0.82088685

Orbital populations (up)
 Atom Sh.   l   m       Population  Label
    1   1   0   0       1.41306667  s
    1   2   1  -1       0.42906301  p_y
    1   2   1   0       0.85750301  p_z
    1   2   1   1       1.00981259  p_x
    2   1   0   0       1.51419535  s
    2   2   1  -1       1.38498039  p_y
    2   2   1   0       1.08538776  p_z
    2   2   1   1       1.20486566  p_x
    3   1   0   0       0.81399404  s
    4   1   0   0       0.72762097  s
    5   1   0   0       0.73862369  s
    6   1   0   0       0.82088685  s

Fermi level:                        -0.5099978614 H          -13.8777 eV
Band energy:                        -8.6403914095 H         -235.1170 eV
TS:                                  0.0000000000 H            0.0000 eV
Band free energy (E-TS):            -8.6403914095 H         -235.1170 eV
Extrapolated E(0K):                 -8.6403914095 H         -235.1170 eV
Input / Output electrons (q):     12.0000000000     12.0000000000

Energy H0:                          -5.4104050805 H         -147.2246 eV
Energy SCC:                          0.1335865459 H            3.6351 eV
Total Electronic energy:            -5.2768185347 H         -143.5895 eV
Repulsive energy:                    0.1343362979 H            3.6555 eV
Total energy:                       -5.1424822367 H         -139.9341 eV
Extrapolated to 0:                  -5.1424822367 H         -139.9341 eV
Total Mermin free energy:           -5.1424822367 H         -139.9341 eV
Force related energy:               -5.1424822367 H         -139.9341 eV

SCC converged

Excitation Energy:                   0.1101301719 H            2.9968 eV

Total Forces
    1     -0.011012280151     -0.003316966574      0.032819466036
    2      0.011540551472     -0.001821604522     -0.036911879297
    3      0.002479365098      0.007294126014     -0.001822915894
    4     -0.013948239393     -0.002470409481     -0.005433853771
    5     -0.000856367606      0.005921686932      0.005654880882
    6      0.011796970580     -0.005606832369      0.005694302045

Maximal derivative component:        0.369119E-01 au


