|===============================================================================
|
|  DFTB+ release 20.1
|
|  Copyright (C) 2006 - 2020  DFTB+ developers group
|
|===============================================================================
|
|  When publishing results obtained with DFTB+, please cite the following
|  reference:
|
|  * DFTB+, a software package for efficient approximate density functional
|    theory based atomistic simulations, J. Chem. Phys. 152, 124101 (2020).
|    [doi: 10.1063/1.5143190]
|
|  You should also cite additional publications crediting the parametrization
|  data you use. Please consult the documentation of the SK-files for the
|  references.
|
|===============================================================================

Reading input file 'dftb_in.hsd'
Parser version: 8

--------------------------------------------------------------------------------
Reading SK-files:
Done.


Processed input in HSD format written to 'dftb_pin.hsd'

Starting initialization...
--------------------------------------------------------------------------------
OpenMP threads:              1
Chosen random seed:          510977467
Mode:                        Static calculation
Self consistent charges:     Yes
SCC-tolerance:                 0.100000E-05
Max. scc iterations:                   1000
Shell resolved Hubbard:      No
Spin polarisation:           No
Nr. of up electrons:             6.000000
Nr. of down electrons:           6.000000
Periodic boundaries:         No
Electronic solver:           Relatively robust
Maximal SCC-cycles:                    1000
Initial charges:             Set automatically (system chrg:   0.100E+01)
Included shells:             C:  s, p
                             N:  s, p
                             H:  s
Spin coupling constants:     C   1(s)-1(s):  -0.455900E-01
                             C   1(s)-2(p):  -0.293000E-01
                             C   2(p)-1(s):  -0.293000E-01
                             C   2(p)-2(p):  -0.275500E-01
                             N   1(s)-1(s):  -0.468700E-01
                             N   1(s)-2(p):  -0.317000E-01
                             N   2(p)-1(s):  -0.317000E-01
                             N   2(p)-2(p):  -0.307200E-01
                             H   1(s)-1(s):  -0.792500E-01
Range separated hybrid:      Yes
  Screening parameter omega:   0.300000E+00
  Range separated algorithm:   MatrixBased
Extra options:
                             Mulliken analysis
                             Force calculation
Force type                   original
                             Eigenvector printing


REKS Calcuation:             Yes
SSR(2,2) Calcuation:         Yes
Energy Functional:           (PPS+OSS)/2
Number of Core Orbitals:                  5
Number of Active Orbitals:                2
Number of Basis:                         12
Number of States:                         2
State-Averaging Weight:          0.500000
                                 0.500000
State of Interest:                        1
Initial Guess:               Diagonalize H0 matrix
Newton-Raphson for FON opt:  Yes
NR max. Iterations:                      50
Level Shifting:              Yes
Shift Value:                     0.300000
W Scale Factor:              C  =    3.000000
                             N  =    3.000000
                             H  =    3.000000
Transition Dipole:           No
Gradient of Microstate:      No
CP-REKS Solver:              Preconditioned Conjugate-Gradient
CG max. Iterations:                     100
CG Tolerance:                  0.100000E-07
Memory for A and Hxc:        Direct Updating Without Saving
Non-Adiabatic Coupling:      Yes

--------------------------------------------------------------------------------

***  Geometry step: 0

  iSCC       reks energy        Diff energy         x_a       SCC error   
    1       -6.2593331319       0.0000000000     0.999031    1.18068284
    2       -6.2739594666      -0.0146263347     0.999633    0.11359266
    3       -6.2788349670      -0.0048755003     0.999806    0.05526213
    4       -6.2815932196      -0.0027582526     0.999879    0.02884388
    5       -6.2834768901      -0.0018836705     0.999915    0.01572048
    6       -6.2848598274      -0.0013829373     0.999935    0.01133639
    7       -6.2858854589      -0.0010256315     0.999946    0.00981847
    8       -6.2866315060      -0.0007460471     0.999953    0.00814943
    9       -6.2871585864      -0.0005270804     0.999958    0.00725231
   10       -6.2875202625      -0.0003616761     0.999961    0.00629405
   11       -6.2877623141      -0.0002420516     0.999963    0.00536507
   12       -6.2879211755      -0.0001588614     0.999964    0.00451607
   13       -6.2880239736      -0.0001027981     0.999965    0.00376855
   14       -6.2880898664      -0.0000658928     0.999965    0.00312602
   15       -6.2881318635      -0.0000419971     0.999966    0.00258226
   16       -6.2881585563      -0.0000266928     0.999966    0.00212671
   17       -6.2881755108      -0.0000169545     0.999966    0.00174759
   18       -6.2881862888      -0.0000107780     0.999966    0.00143350
   19       -6.2881931526      -0.0000068638     0.999966    0.00117413
   20       -6.2881975340      -0.0000043813     0.999966    0.00096046
   21       -6.2882003379      -0.0000028040     0.999966    0.00078479
   22       -6.2882021372      -0.0000017992     0.999966    0.00064059
   23       -6.2882032946      -0.0000011574     0.999966    0.00052240
   24       -6.2882040409      -0.0000007463     0.999966    0.00042566
   25       -6.2882045232      -0.0000004823     0.999966    0.00034656
   26       -6.2882048354      -0.0000003122     0.999966    0.00028230
   27       -6.2882050379      -0.0000002025     0.999966    0.00023126
   28       -6.2882051694      -0.0000001315     0.999966    0.00018916
   29       -6.2882052548      -0.0000000855     0.999966    0.00015452
   30       -6.2882053104      -0.0000000556     0.999966    0.00012608
   31       -6.2882053467      -0.0000000362     0.999966    0.00010277
   32       -6.2882053703      -0.0000000236     0.999966    0.00008369
   33       -6.2882053857      -0.0000000154     0.999966    0.00006810
   34       -6.2882053957      -0.0000000100     0.999966    0.00005538
   35       -6.2882054023      -0.0000000066     0.999966    0.00004501
   36       -6.2882054066      -0.0000000043     0.999966    0.00003656
   37       -6.2882054094      -0.0000000028     0.999966    0.00002968
   38       -6.2882054112      -0.0000000018     0.999966    0.00002408
   39       -6.2882054124      -0.0000000012     0.999966    0.00001954
   40       -6.2882054131      -0.0000000008     0.999966    0.00001584
   41       -6.2882054137      -0.0000000005     0.999965    0.00001284
   42       -6.2882054140      -0.0000000003     0.999965    0.00001041
   43       -6.2882054142      -0.0000000002     0.999965    0.00000843
   44       -6.2882054143      -0.0000000001     0.999965    0.00000683
   45       -6.2882054144      -0.0000000001     0.999965    0.00000553
   46       -6.2882054145      -0.0000000001     0.999965    0.00000448
   47       -6.2882054145      -0.0000000000     0.999965    0.00000363
   48       -6.2882054146      -0.0000000000     0.999965    0.00000294
   49       -6.2882054146      -0.0000000000     0.999965    0.00000238
   50       -6.2882054146      -0.0000000000     0.999965    0.00000192
   51       -6.2882054146      -0.0000000000     0.999965    0.00000156
   52       -6.2882054146      -0.0000000000     0.999965    0.00000126
   53       -6.2882054146      -0.0000000000     0.999965    0.00000102
   54       -6.2882054146      -0.0000000000     0.999965    0.00000082
  
--------------------------------------------------
 Final SA-REKS(2,2) energy:      -6.28820541
  
 State     Energy      FON(1)    FON(2)   Spin
  PPS   -6.41688526   1.999931  0.000069  0.00
  OSS   -6.15952557   1.000000  1.000000  0.00
 Trip   -6.23880304   1.000000  1.000000  1.00
--------------------------------------------------

 Lagrangian Wab:   0.00281147  0.00281137

--------------------------------------------------
 SSR: 2SI-2SA-REKS(2,2) Hamiltonian matrix
               PPS           OSS
   PPS    -6.41688526    0.00395259
   OSS     0.00395259   -6.15952557
--------------------------------------------------

----------------------------------------------------------------
 SSR: 2SI-2SA-REKS(2,2) states
                    E_n       C_{PPS}    C_{OSS}
 SSR state  1   -6.41694595  -0.999882   0.015353
 SSR state  2   -6.15946488  -0.015353  -0.999882
----------------------------------------------------------------

 unrelaxed SSR FONs for S0:  1.999695  0.000305

Total Energy:                       -6.4169459455 H         -174.6140 eV
Extrapolated to 0:                  -6.4169459455 H         -174.6140 eV

----------------------------------------------------------------------------------
 Solving CP-REKS equation for  1 state vector...
----------------------------------------------------------------------------------
  CG solver: Constructing Y initial guess
  CG solver: Iteration    1    eps =    0.000047357744
  CG solver: Iteration    2    eps =    0.000010140829
  CG solver: Iteration    3    eps =    0.000000426886
  CG solver: Iteration    4    eps =    0.000000100083
  CG solver: Iteration    5    eps =    0.000000006584
  Convergence reached in CG solver after    5 iterations
  CG solver: Calculating converged R, Z, Q2 matrix
----------------------------------------------------------------------------------

----------------------------------------------------------------------------------
 Solving CP-REKS equation for SI between  1 and  2 state vectors...
----------------------------------------------------------------------------------
  CG solver: Constructing Y initial guess
  CG solver: Iteration    1    eps =    0.000838513366
  CG solver: Iteration    2    eps =    0.000839621647
  CG solver: Iteration    3    eps =    0.000189651670
  CG solver: Iteration    4    eps =    0.000002526220
  CG solver: Iteration    5    eps =    0.000000352928
  CG solver: Iteration    6    eps =    0.000000008539
  Convergence reached in CG solver after    6 iterations
  CG solver: Calculating converged R, Z, Q2 matrix
----------------------------------------------------------------------------------

--------------------------------------------------
 Gradient Information
--------------------------------------------------
           1 st state (SSR)
     0.00216926    -0.00029459    -0.01901119
     0.00104125    -0.00294312     0.01557440
     0.00204325    -0.00588073     0.00010687
    -0.00125409     0.00812630    -0.00206241
    -0.00273202    -0.00637168     0.00441229
    -0.00126765     0.00736382     0.00098004

           2 st state (SSR)
     0.00149233    -0.00440674     0.07946723
     0.00424128     0.00756200    -0.09968934
    -0.01171356     0.00493159     0.01828456
    -0.00909133    -0.00582936    -0.01127813
     0.00328806     0.00517686    -0.00460907
     0.01178322    -0.00743435     0.01782474
--------------------------------------------------
 Coupling Information
--------------------------------------------------
 between  1 and  2 states
--------------------------------------------------
 g vector - difference gradient
     0.00036803     0.00206061    -0.04940850
    -0.00159687    -0.00526583     0.05773678
     0.00686341    -0.00563490    -0.00909257
     0.00389051     0.00723204     0.00463996
    -0.00299497    -0.00601823     0.00452492
    -0.00653011     0.00762631    -0.00840058

 h vector - derivative coupling
     0.00095734     0.00011617    -0.00475534
     0.00012687    -0.00035125     0.00253047
    -0.00059387    -0.00736380     0.00001826
    -0.00097536     0.00816886     0.00097432
     0.00053692    -0.00785372     0.00039430
    -0.00005190     0.00728375     0.00083799

 G vector - GDV
     0.00033847     0.00205607    -0.04923921
    -0.00160002    -0.00525256     0.05763187
     0.00687840    -0.00540616    -0.00908885
     0.00391862     0.00697783     0.00460786
    -0.00301004    -0.00577427     0.00451068
    -0.00652544     0.00739909    -0.00842235

 H vector - DCV - non-adiabatic coupling
     0.00376025     0.00069665    -0.02435144
     0.00030208    -0.00199142     0.01670767
    -0.00148700    -0.02925782    -0.00101330
    -0.00332239     0.03257344     0.00433553
     0.00172719    -0.03120536     0.00207020
    -0.00098013     0.02918451     0.00225134
--------------------------------------------------


--------------------------------------------------------------------------------
DFTB+ running times                          cpu [s]             wall clock [s]
--------------------------------------------------------------------------------
SCC                                    +     0.02  ( 68.2%)      0.03  ( 59.5%)
Post-SCC processing                    +     0.01  ( 27.9%)      0.01  ( 26.2%)
  Force calculation                          0.01  ( 27.3%)      0.01  ( 23.8%)
--------------------------------------------------------------------------------
Missing                                +     0.00  (  4.0%)      0.01  ( 14.3%)
Total                                  =     0.03  (100.0%)      0.04  (100.0%)
--------------------------------------------------------------------------------
