 Fermi distribution function

Calculation with static geometry


********************************************************************************
 iSCC Total electronic   Diff electronic      SCC error    
    9   -0.54544735E+01   -0.98587805E-13    0.63310713E-06
********************************************************************************

 Total charge:     1.00000000

 Atomic gross charges (e)
 Atom           Charge
    1       0.15774904
    2      -0.03119156
    3       0.16216817
    4       0.27231197
    5       0.27336581
    6       0.16559657

Nr. of electrons (up):     12.00000000
Atom populations (up)
 Atom       Population
    1       3.84225096
    2       5.03119156
    3       0.83783183
    4       0.72768803
    5       0.72663419
    6       0.83440343

l-shell populations (up)
 Atom Sh.   l       Population
    1   1   0       1.30257004
    1   2   1       2.53968092
    2   1   0       1.41452914
    2   2   1       3.61666242
    3   1   0       0.83783183
    4   1   0       0.72768803
    5   1   0       0.72663419
    6   1   0       0.83440343

Orbital populations (up)
 Atom Sh.   l   m       Population  Label
    1   1   0   0       1.30257004  s
    1   2   1  -1       0.62230924  p_y
    1   2   1   0       0.87589996  p_z
    1   2   1   1       1.04147172  p_x
    2   1   0   0       1.41452914  s
    2   2   1  -1       1.37584173  p_y
    2   2   1   0       1.09600753  p_z
    2   2   1   1       1.14481316  p_x
    3   1   0   0       0.83783183  s
    4   1   0   0       0.72768803  s
    5   1   0   0       0.72663419  s
    6   1   0   0       0.83440343  s

Fermi level:                        -0.4883592239 H          -13.2889 eV
Band energy:                        -8.9842867665 H         -244.4749 eV
TS:                                  0.0000000000 H            0.0000 eV
Band free energy (E-TS):            -8.9842867665 H         -244.4749 eV
Extrapolated E(0K):                 -8.9842867665 H         -244.4749 eV
Input / Output electrons (q):     12.0000000000     12.0000000000

Energy H0:                          -5.5880275087 H         -152.0580 eV
Energy SCC:                          0.1335540079 H            3.6342 eV
Total Electronic energy:            -5.4544735009 H         -148.4238 eV
Repulsive energy:                    0.1983230307 H            5.3966 eV
Total energy:                       -5.2561504702 H         -143.0271 eV
Extrapolated to 0:                  -5.2561504702 H         -143.0271 eV
Total Mermin free energy:           -5.2561504702 H         -143.0271 eV
Force related energy:               -5.2561504702 H         -143.0271 eV

SCC converged

Excitation Energy:                   0.1874043419 H            5.0995 eV

Total Forces
    1     -0.003756689635     -0.009624785528     -0.009572560588
    2     -0.002907427832      0.007833008621     -0.014380598960
    3     -0.005301551709      0.000780424448      0.003942622989
    4     -0.001106638378      0.000956070563      0.008022994046
    5      0.004538259225     -0.003988598843      0.005681945953
    6      0.008534048328      0.004043880739      0.006305596559

Maximal derivative component:        0.143806E-01 au


