     6
  Step:   120            Position(A)                                  Velocity(au)
C        -0.06881584    -0.07361646    -0.02559277    -0.00008681    -0.00001209    -0.00007286
N        -0.04486072    -0.02080792     1.33888534    -0.00003622     0.00001495    -0.00003956
H         0.91828304    -0.02823145    -0.61934803     0.00003632    -0.00112750     0.00040367
H         0.82097726     0.24668489     1.88210492    -0.00049222     0.00111785     0.00019576
H        -0.82491027    -0.49535007     1.83034577     0.00113126    -0.00107056     0.00010318
H        -0.68386424     0.77349977    -0.50171555     0.00086244     0.00101653     0.00071537
