     6
  Step:     0            Position(A)                                  Velocity(au)
C        -0.03937401     0.02285881     0.00276456    -0.00001837     0.00008925     0.00008975
N        -0.05137565    -0.06277214     1.30930744     0.00022504    -0.00002437    -0.00020365
H         0.96764682    -0.04678217    -0.52735960    -0.00075759    -0.00041718     0.00055597
H         0.89860532    -0.04410286     1.84158227    -0.00134737     0.00004463    -0.00002706
H        -0.92032341    -0.03410876     1.89660013    -0.00121807     0.00003833     0.00108624
H        -0.97574879     0.05513274    -0.54632126     0.00041468    -0.00039071     0.00014537
     6
  Step:     1            Position(A)                                  Velocity(au)
C        -0.03944077     0.02336392     0.00293101    -0.00000620     0.00009568    -0.00002888
N        -0.05011358    -0.06292676     1.30849168     0.00023427    -0.00003204    -0.00009370
H         0.96319430    -0.04902944    -0.52420174    -0.00086461    -0.00040551     0.00059505
H         0.89072961    -0.04384515     1.84122757    -0.00151986     0.00004872    -0.00009759
H        -0.92689037    -0.03387459     1.90244005    -0.00116596     0.00004578     0.00103670
H        -0.97359638     0.05301748    -0.54561172     0.00036880    -0.00038384     0.00011206
     6
  Step:     2            Position(A)                                  Velocity(au)
C        -0.03944185     0.02390544     0.00244866     0.00000552     0.00010250    -0.00014679
N        -0.04881289    -0.06312269     1.30828240     0.00023906    -0.00003942     0.00001738
H         0.95818859    -0.05121821    -0.52085016    -0.00095823    -0.00039572     0.00062593
H         0.88197905    -0.04356989     1.84051471    -0.00166426     0.00005095    -0.00015647
H        -0.93307820    -0.03360792     1.90794090    -0.00108123     0.00005027     0.00096344
H        -0.97171435     0.05093374    -0.54509535     0.00031582    -0.00037912     0.00007476
     6
  Step:     3            Position(A)                                  Velocity(au)
C        -0.03938035     0.02448537     0.00132494     0.00001654     0.00010960    -0.00026256
N        -0.04749790    -0.06335807     1.30868180     0.00023934    -0.00004642     0.00012800
H         0.95270987    -0.05335917    -0.51735320    -0.00103561    -0.00038783     0.00064716
H         0.87252025    -0.04328771     1.83951554    -0.00177523     0.00005127    -0.00020054
H        -0.93872053    -0.03332461     1.91298148    -0.00096826     0.00005200     0.00086958
H        -0.97014088     0.04886933    -0.54479376     0.00025604    -0.00037652     0.00003363
     6
  Step:     4            Position(A)                                  Velocity(au)
C        -0.03926084     0.02510501    -0.00042493     0.00002657     0.00011685    -0.00037468
N        -0.04619337    -0.06363071     1.30968336     0.00023501    -0.00005298     0.00023652
H         0.94685424    -0.05546283    -0.51376725    -0.00109363    -0.00038171     0.00065712
H         0.86254974    -0.04300875     1.83831984    -0.00184717     0.00004986    -0.00022651
H        -0.94367551    -0.03303878     1.91745813    -0.00083149     0.00005135     0.00075830
H        -0.96891208     0.04681285    -0.54472724     0.00018996    -0.00037577    -0.00001098
     6
  Step:     5            Position(A)                                  Velocity(au)
C        -0.03908945     0.02576483    -0.00277769     0.00003531     0.00012406    -0.00048159
N        -0.04492464    -0.06393816     1.31127162     0.00022596    -0.00005905     0.00034121
H         0.94073497    -0.05753877    -0.51015792    -0.00112907    -0.00037717     0.00065410
H         0.85229431    -0.04274177     1.83703538    -0.00187471     0.00004700    -0.00023124
H        -0.94782510    -0.03276229     1.92128462    -0.00067525     0.00004875     0.00063281
H        -0.96806093     0.04475480    -0.54491398     0.00011829    -0.00037644    -0.00005861
     6
  Step:     6            Position(A)                                  Velocity(au)
C        -0.03887395     0.02646434    -0.00570179     0.00004247     0.00013104    -0.00058169
N        -0.04371755    -0.06427769     1.31342207     0.00021213    -0.00006456     0.00044035
H         0.93448291    -0.05959546    -0.50660028    -0.00113880    -0.00037397     0.00063642
H         0.84200844    -0.04249376     1.83578616    -0.00185319     0.00004303    -0.00021206
H        -0.95107428    -0.03250458     1.92439189    -0.00050393     0.00004463     0.00049641
H        -0.96761599     0.04268818    -0.54536940     0.00004202    -0.00037804    -0.00010863
     6
  Step:     7            Position(A)                                  Velocity(au)
C        -0.03862372     0.02720200    -0.00915723     0.00004774     0.00013760    -0.00067336
N        -0.04259812    -0.06464626     1.31610108     0.00019358    -0.00006947     0.00053221
H         0.92824534    -0.06164025    -0.50317807    -0.00112009    -0.00037193     0.00060272
H         0.83196976    -0.04226982     1.83470960    -0.00177917     0.00003829    -0.00016702
H        -0.95335188    -0.03227282     1.92672889    -0.00032219     0.00003938     0.00035260
H        -0.96760004     0.04060868    -0.54610539    -0.00003757    -0.00038008    -0.00016029
     6
  Step:     8            Position(A)                                  Velocity(au)
C        -0.03834970     0.02797528    -0.01309572     0.00005088     0.00014355    -0.00075509
N        -0.04159187    -0.06504052     1.31926606     0.00017052    -0.00007370     0.00061515
H         0.92218358    -0.06367953    -0.49998196    -0.00107092    -0.00037088     0.00055211
H         0.82247185    -0.04207328     1.83395218    -0.00165106     0.00003309    -0.00009522
H        -0.95461213    -0.03207211     1.92826372    -0.00013499     0.00003339     0.00020514
H        -0.96802852     0.03851461    -0.54712955    -0.00011892    -0.00038209    -0.00021268
     6
  Step:     9            Position(A)                                  Velocity(au)
C        -0.03806414     0.02878067    -0.01746119     0.00005169     0.00014873    -0.00082555
N        -0.04072288    -0.06545674     1.32286605     0.00014336    -0.00007719     0.00068772
H         0.91646805    -0.06571888    -0.49710633    -0.00099043    -0.00037066     0.00048443
H         0.81381250    -0.04190597     1.83366249    -0.00146982     0.00002766     0.00000274
H        -0.95483645    -0.03190565     1.92898493     0.00005235     0.00002698     0.00005800
H        -0.96890788     0.03640672    -0.54844432    -0.00020022    -0.00038365    -0.00026472
     6
  Step:    10            Position(A)                                  Velocity(au)
C        -0.03778020     0.02961380    -0.02219087     0.00005007     0.00015298    -0.00088368
N        -0.04001249    -0.06589090     1.32684275     0.00011278    -0.00007989     0.00074876
H         0.91127189    -0.06776309    -0.49464492    -0.00087910    -0.00037113     0.00040040
H         0.80627861    -0.04176858     1.83398234    -0.00123958     0.00002218     0.00012441
H        -0.95403542    -0.03177487     1.92890274     0.00023423     0.00002048    -0.00008469
H        -0.97023434     0.03428792    -0.55004602    -0.00027944    -0.00038441    -0.00031517
     6
  Step:    11            Position(A)                                  Velocity(au)
C        -0.03751140     0.03046956    -0.02721688     0.00004602     0.00015620    -0.00092880
N        -0.03947778    -0.06633867     1.33113222     0.00007974    -0.00008176     0.00079747
H         0.90676294    -0.06981607    -0.49268593    -0.00073908    -0.00037211     0.00030172
H         0.80012768    -0.04166113     1.83503598    -0.00096793     0.00001673     0.00026542
H        -0.95225057    -0.03167957     1.92804996     0.00040495     0.00001419    -0.00021875
H        -0.97199281     0.03216287    -0.55192376    -0.00035450    -0.00038411    -0.00036274
     6
  Step:    12            Position(A)                                  Velocity(au)
C        -0.03727094     0.03134223    -0.03246817     0.00003971     0.00015832    -0.00096067
N        -0.03913012    -0.06679553     1.33566690     0.00004543    -0.00008278     0.00083354
H         0.90309391    -0.07188058    -0.49130637    -0.00057429    -0.00037340     0.00019102
H         0.79556835    -0.04158350     1.83691929    -0.00066567     0.00001129     0.00041962
H        -0.94955464    -0.03161789     1.92648219     0.00055887     0.00000840    -0.00034015
H        -0.97415697     0.03003769    -0.55405984    -0.00042347    -0.00038256    -0.00040631
     6
  Step:    13            Position(A)                                  Velocity(au)
C        -0.03707090     0.03222571    -0.03787284     0.00005843     0.00029620    -0.00182127
N        -0.03897383    -0.06725691     1.34037805     0.00002084    -0.00015429     0.00159368
H         0.90039284    -0.07395788    -0.49056712    -0.00072557    -0.00069670     0.00013333
H         0.79274390    -0.04153585     1.83969050    -0.00064340     0.00001076     0.00107755
H        -0.94605152    -0.03158644     1.92427700     0.00128419     0.00000627    -0.00082768
H        -0.97669007     0.02791940    -0.55643064    -0.00090112    -0.00070596    -0.00082726
     6
  Step:    14            Position(A)                                  Velocity(au)
C        -0.03678016     0.03385914    -0.04769502     0.00002350     0.00015216    -0.00089202
N        -0.03894815    -0.06810183     1.34903480    -0.00000548    -0.00007805     0.00079157
H         0.89721195    -0.07792607    -0.49049420    -0.00021358    -0.00038306    -0.00005765
H         0.79012135    -0.04141329     1.84616104    -0.00015482     0.00001773     0.00065317
H        -0.93867875    -0.03157983     1.91949143     0.00070349    -0.00000177    -0.00045899
H        -0.98208089     0.02403500    -0.56144453    -0.00053899    -0.00036144    -0.00050715
     6
  Step:    15            Position(A)                                  Velocity(au)
C        -0.03668262     0.03470661    -0.05267231     0.00001092     0.00014922    -0.00087625
N        -0.03906758    -0.06853448     1.35346383    -0.00003539    -0.00007575     0.00078141
H         0.89661950    -0.08006897    -0.49118305     0.00000158    -0.00037969    -0.00018609
H         0.79019329    -0.04133362     1.85026042     0.00017121     0.00001048     0.00080023
H        -0.93453692    -0.03159683     1.91674618     0.00075679    -0.00000365    -0.00050816
H        -0.98520487     0.02202865    -0.56434755    -0.00056798    -0.00035261    -0.00052328
     6
  Step:    16            Position(A)                                  Velocity(au)
C        -0.03665734     0.03553721    -0.05754923    -0.00000194     0.00014626    -0.00085741
N        -0.03934610    -0.06895372     1.35782244    -0.00006169    -0.00007335     0.00076759
H         0.89722974    -0.08219604    -0.49258698     0.00021129    -0.00037735    -0.00031080
H         0.79204678    -0.04129542     1.85516028     0.00047399     0.00000285     0.00093553
H        -0.93016799    -0.03162086     1.91377669     0.00078418    -0.00000423    -0.00053885
H        -0.98846830     0.02006962    -0.56732924    -0.00058911    -0.00034482    -0.00053559
     6
  Step:    17            Position(A)                                  Velocity(au)
C        -0.03670444     0.03635076    -0.06231087    -0.00001461     0.00014348    -0.00083764
N        -0.03976103    -0.06935905     1.36209262    -0.00008379    -0.00007099     0.00075218
H         0.89899472    -0.08431097    -0.49467695     0.00041061    -0.00037591    -0.00042997
H         0.79552161    -0.04130162     1.86077717     0.00074561    -0.00000543     0.00105540
H        -0.92572155    -0.03164440     1.91068871     0.00078590    -0.00000346    -0.00055156
H        -0.99182734     0.01815236    -0.57036837    -0.00060359    -0.00033851    -0.00054510
     6
  Step:    18            Position(A)                                  Velocity(au)
C        -0.03682143     0.03714813    -0.06695391    -0.00002671     0.00014097    -0.00081834
N        -0.04028686    -0.06975072     1.36626762    -0.00010131    -0.00006873     0.00073659
H         0.90183986    -0.08641658    -0.49741453     0.00059564    -0.00037499    -0.00054228
H         0.80041816    -0.04135644     1.86700981     0.00098064    -0.00001460     0.00115705
H        -0.92134424    -0.03165966     1.90758401     0.00076216    -0.00000128    -0.00054681
H        -0.99524515     0.01626897    -0.57344935    -0.00061234    -0.00033387    -0.00055251
     6
  Step:    19            Position(A)                                  Velocity(au)
C        -0.03700378     0.03793069    -0.07148262    -0.00003789     0.00013871    -0.00080020
N        -0.04089647    -0.07012936     1.37034813    -0.00011398    -0.00006661     0.00072152
H         0.90567041    -0.08851369    -0.50075460     0.00076301    -0.00037400    -0.00064640
H         0.80651229    -0.04146530     1.87374507     0.00117535    -0.00002485     0.00123832
H        -0.91717947    -0.03165869     1.90456021     0.00071304     0.00000234    -0.00052500
H        -0.99869027     0.01441048    -0.57656068    -0.00061589    -0.00033085    -0.00055817
     6
  Step:    20            Position(A)                                  Velocity(au)
C        -0.03724529     0.03869973    -0.07590480    -0.00004788     0.00013662    -0.00078334
N        -0.04156186    -0.07049576     1.37433838    -0.00012165    -0.00006460     0.00070711
H         0.91037469    -0.09060002    -0.50464498     0.00090964    -0.00037222    -0.00074090
H         0.81356532    -0.04163445     1.88086132     0.00132721    -0.00003630     0.00129743
H        -0.91336830    -0.03163347     1.90171153     0.00063868     0.00000741    -0.00048648
H        -1.00213438     0.01256817    -0.57969285    -0.00061444    -0.00032924    -0.00056210
     6
  Step:    21            Position(A)                                  Velocity(au)
C        -0.03753836     0.03945606    -0.08022870    -0.00005642     0.00013456    -0.00076752
N        -0.04225476    -0.07085059     1.37824318    -0.00012428    -0.00006266     0.00069321
H         0.91582670    -0.09266961    -0.50902688     0.00103283    -0.00036892    -0.00082446
H         0.82133080    -0.04187056     1.88823107     0.00143479    -0.00004896     0.00133318
H        -0.91004850    -0.03157600     1.89912861     0.00053974     0.00001389    -0.00043188
H        -1.00555058     0.01073445    -0.58283663    -0.00060797    -0.00032873    -0.00056414
     6
  Step:    22            Position(A)                                  Velocity(au)
C        -0.03787428     0.04019981    -0.08446118    -0.00006332     0.00013240    -0.00075242
N        -0.04294735    -0.07119430     1.38206634    -0.00012198    -0.00006076     0.00067953
H         0.92188870    -0.09471275    -0.51383610     0.00113041    -0.00036343    -0.00089599
H         0.82956041    -0.04218023     1.89572366     0.00149789    -0.00006277     0.00134511
H        -0.90735128    -0.03147860     1.89689691     0.00041779     0.00002172    -0.00036233
H        -1.00891209     0.00890344    -0.58598193    -0.00059642    -0.00032899    -0.00056405
     6
  Step:    23            Position(A)                                  Velocity(au)
C        -0.03824346     0.04093040    -0.08860698    -0.00006844     0.00013004    -0.00073767
N        -0.04361306    -0.07152713     1.38580993    -0.00011505    -0.00005885     0.00066581
H         0.92841397    -0.09671644    -0.51900385     0.00120089    -0.00035523    -0.00095465
H         0.83801005    -0.04256953     1.90320907     0.00151762    -0.00007760     0.00133360
H        -0.90539628    -0.03133412     1.89509399     0.00027559     0.00003076    -0.00027961
H        -1.01219183     0.00707104    -0.58911740    -0.00057976    -0.00032972    -0.00056161
     6
  Step:    24            Position(A)                                  Velocity(au)
C        -0.03863577     0.04164669    -0.09266882    -0.00007170     0.00012739    -0.00072301
N        -0.04422748    -0.07184911     1.38947448    -0.00010396    -0.00005691     0.00065186
H         0.93525046    -0.09866524    -0.52445807     0.00124368    -0.00034400    -0.00100003
H         0.84644625    -0.04304366     1.91056194     0.00149639    -0.00009326     0.00129988
H        -0.90428490    -0.03113631     1.89378581     0.00011713     0.00004082    -0.00018623
H        -1.01536280     0.00523481    -0.59223065    -0.00055812    -0.00033067    -0.00055671
     6
  Step:    25            Position(A)                                  Velocity(au)
C        -0.03904088     0.04234713    -0.09664781    -0.00007311     0.00012441    -0.00070828
N        -0.04476923    -0.07216010     1.39305949    -0.00008933    -0.00005493     0.00063763
H         0.94224529    -0.10054220    -0.53012548     0.00125907    -0.00032960    -0.00103211
H         0.85465182    -0.04360669     1.91766537     0.00143769    -0.00010953     0.00124587
H        -0.90409367    -0.03088014     1.89302291    -0.00005252     0.00005165    -0.00008531
H        -1.01839883     0.00339362    -0.59530870    -0.00053176    -0.00033165    -0.00054934
     6
  Step:    26            Position(A)                                  Velocity(au)
C        -0.03944864     0.04302993    -0.10054395    -0.00007272     0.00012108    -0.00069338
N        -0.04522067    -0.07245988     1.39656410    -0.00007189    -0.00005289     0.00062316
H         0.94924963    -0.10232995    -0.53593384     0.00124819    -0.00031204    -0.00105131
H         0.86243149    -0.04426145     1.92441443     0.00134587    -0.00012618     0.00117407
H        -0.90486888    -0.03056206     1.89283732    -0.00022745     0.00006295     0.00001959
H        -1.02127526     0.00154732    -0.59833856    -0.00050108    -0.00033255    -0.00053959
     6
  Step:    27            Position(A)                                  Velocity(au)
C        -0.03984936     0.04369327    -0.10435673    -0.00007064     0.00011742    -0.00067831
N        -0.04556849    -0.07274814     1.39998766    -0.00005246    -0.00005079     0.00060856
H         0.95612247    -0.10401144    -0.54181382     0.00121285    -0.00029148    -0.00105836
H         0.86961498    -0.04500958     1.93071851     0.00122578    -0.00014302     0.00108728
H        -0.90662240    -0.03018023     1.89324068    -0.00040130     0.00007443     0.00012469
H        -1.02396973    -0.00030362    -0.60130783    -0.00046657    -0.00033330    -0.00052766
     6
  Step:    28            Position(A)                                  Velocity(au)
C        -0.04023405     0.04433539    -0.10808545    -0.00006703     0.00011345    -0.00066309
N        -0.04580391    -0.07302457     1.40333016    -0.00003186    -0.00004863     0.00059402
H         0.96273417    -0.10557068    -0.54770079     0.00115539    -0.00026817    -0.00105428
H         0.87605978    -0.04585161     1.93650289     0.00108267    -0.00015986     0.00098852
H        -0.90933052    -0.02973458     1.89422365    -0.00056775     0.00008575     0.00022629
H        -1.02646264    -0.00215838    -0.60420513    -0.00042880    -0.00033389    -0.00051378
     6
  Step:    29            Position(A)                                  Velocity(au)
C        -0.04059466     0.04495469    -0.11172950    -0.00006206     0.00010921    -0.00064778
N        -0.04592275    -0.07328881     1.40659241    -0.00001091    -0.00004640     0.00057970
H         0.96896900    -0.10699316    -0.55353615     0.00107848    -0.00024241    -0.00104025
H         0.88165294    -0.04678706     1.94170966     0.00092188    -0.00017654     0.00088086
H        -0.91293510    -0.02922677     1.89575680    -0.00072089     0.00009663     0.00032097
H        -1.02873752    -0.00401605    -0.60702044    -0.00038838    -0.00033431    -0.00049824
     6
  Step:    30            Position(A)                                  Velocity(au)
C        -0.04092412     0.04554980    -0.11528854    -0.00005591     0.00010476    -0.00063246
N        -0.04592520    -0.07354052     1.40977615     0.00000965    -0.00004411     0.00056578
H         0.97472637    -0.10826617    -0.55926799     0.00098494    -0.00021454    -0.00101756
H         0.88631074    -0.04781468     1.94629764     0.00074860    -0.00019295     0.00076725
H        -0.91734651    -0.02866005     1.89779272    -0.00085551     0.00010681     0.00040578
H        -1.03078124    -0.00587581    -0.60974534    -0.00034590    -0.00033462    -0.00048135
     6
  Step:    31            Position(A)                                  Velocity(au)
C        -0.04121644     0.04611960    -0.11876254    -0.00004879     0.00010013    -0.00061718
N        -0.04581539    -0.07377936     1.41288397     0.00002917    -0.00004177     0.00055241
H         0.97992165    -0.10937888    -0.56485158     0.00087766    -0.00018490    -0.00098751
H         0.88997751    -0.04893264     1.95024156     0.00056770    -0.00020899     0.00065046
H        -0.92244851    -0.02803906     1.90026911    -0.00096739     0.00011606     0.00047836
H        -1.03258403    -0.00773705    -0.61237312    -0.00030199    -0.00033485    -0.00046342
     6
  Step:    32            Position(A)                                  Velocity(au)
C        -0.04146670     0.04666323    -0.12215185    -0.00004088     0.00009537    -0.00060202
N        -0.04560078    -0.07400501     1.41591917     0.00004710    -0.00003937     0.00053969
H         0.98448631    -0.11032238    -0.57024954     0.00075949    -0.00015384    -0.00095142
H         0.89262380    -0.05013875     1.95353097     0.00038369    -0.00022464     0.00053302
H        -0.92810427    -0.02736944     1.90311231    -0.00105345     0.00012424     0.00053706
H        -1.03413946    -0.00959951    -0.61489880    -0.00025721    -0.00033509    -0.00044477
     6
  Step:    33            Position(A)                                  Velocity(au)
C        -0.04167100     0.04718010    -0.12545710    -0.00003235     0.00009053    -0.00058701
N        -0.04529158    -0.07421717     1.41888547     0.00006301    -0.00003692     0.00052769
H         0.98836730    -0.11108958    -0.57543159     0.00063312    -0.00012165    -0.00091053
H         0.89424417    -0.05143068     1.95616886     0.00020068    -0.00023988     0.00041724
H        -0.93416306    -0.02665750     1.90624131    -0.00111180     0.00013127     0.00058090
H        -1.03544427    -0.01146332    -0.61731906    -0.00021213    -0.00033541    -0.00042568
     6
  Step:    34            Position(A)                                  Velocity(au)
C        -0.04182646     0.04766984    -0.12867913    -0.00002339     0.00008564    -0.00057217
N        -0.04490011    -0.07441556     1.42178678     0.00007657    -0.00003443     0.00051637
H         0.99152634    -0.11167505    -0.58037423     0.00050112    -0.00008861    -0.00086602
H         0.89485525    -0.05280614     1.95817048     0.00002246    -0.00025475     0.00030520
H        -0.94046693    -0.02590983     1.90957163    -0.00114169     0.00013713     0.00060956
H        -1.03649819    -0.01332909    -0.61963219    -0.00016724    -0.00033590    -0.00040644
     6
  Step:    35            Position(A)                                  Velocity(au)
C        -0.04193108     0.04813229    -0.13181867    -0.00001415     0.00008074    -0.00055746
N        -0.04444021    -0.07459993     1.42462668     0.00008756    -0.00003189     0.00050566
H         0.99393896    -0.11207481    -0.58506035     0.00036585    -0.00005497    -0.00081899
H         0.89449388    -0.05426310     1.95956222    -0.00014751    -0.00026931     0.00019881
H        -0.94685685    -0.02513284     1.91301867    -0.00114339     0.00014189     0.00062329
H        -1.03730376    -0.01519801    -0.62183803    -0.00012304    -0.00033668    -0.00038730
     6
  Step:    36            Position(A)                                  Velocity(au)
C        -0.04198375     0.04856745    -0.13487632    -0.00000477     0.00007586    -0.00054285
N        -0.04392677    -0.07477004     1.42740819     0.00009581    -0.00002931     0.00049545
H         0.99559346    -0.11228613    -0.58947879     0.00022951    -0.00002091    -0.00077045
H         0.89321542    -0.05579998     1.96038060    -0.00030606    -0.00028366     0.00009978
H        -0.95317786    -0.02433244     1.91650062    -0.00111803     0.00014569     0.00062278
H        -1.03786605    -0.01707187    -0.62393776    -0.00007996    -0.00033786    -0.00036850
     6
  Step:    37            Position(A)                                  Velocity(au)
C        -0.04198413     0.04897549    -0.13785241     0.00000461     0.00007103    -0.00052833
N        -0.04337529    -0.07492569     1.43013362     0.00010126    -0.00002670     0.00048563
H         0.99648990    -0.11230719    -0.59362388     0.00009410     0.00001343    -0.00072136
H         0.89109210    -0.05741591     1.96067130    -0.00045027    -0.00029795     0.00000970
H        -0.95928365    -0.02351355     1.91994087    -0.00106745     0.00014873     0.00060915
H        -1.03819253    -0.01895329    -0.62593391    -0.00003840    -0.00033961    -0.00035027
     6
  Step:    38            Position(A)                                  Velocity(au)
C        -0.04193256     0.04935677    -0.14074750     0.00001386     0.00006628    -0.00051395
N        -0.04280152    -0.07506673     1.43280477     0.00010388    -0.00002407     0.00047609
H         0.99663919    -0.11213685    -0.59749506    -0.00003848     0.00004798    -0.00067261
H         0.88821173    -0.05911103     1.96048840    -0.00057747    -0.00031242    -0.00007001
H        -0.96504008    -0.02267968     1.92326988    -0.00099403     0.00015132     0.00058374
H        -1.03829280    -0.02084584    -0.62783018     0.00000127    -0.00034214    -0.00033281
     6
  Step:    39            Position(A)                                  Velocity(au)
C        -0.04183011     0.04971182    -0.14356244     0.00002288     0.00006163    -0.00049974
N        -0.04222120    -0.07519312     1.43542303     0.00010368    -0.00002144     0.00046675
H         0.99606239    -0.11177415    -0.60109660    -0.00016647     0.00008274    -0.00062504
H         0.88467638    -0.06088687     1.95989353    -0.00068522    -0.00032736    -0.00013805
H        -0.97032742    -0.02183242     1.92642627    -0.00090049     0.00015387     0.00054810
H        -1.03817846    -0.02275443    -0.62963143     0.00003870    -0.00034573    -0.00031633
     6
  Step:    40            Position(A)                                  Velocity(au)
C        -0.04167844     0.05004133    -0.14629818     0.00003155     0.00005713    -0.00048566
N        -0.04164987    -0.07530489     1.43798912     0.00010073    -0.00001882     0.00045747
H         0.99479019    -0.11121779    -0.60443754    -0.00028814     0.00011788    -0.00057953
H         0.88060086    -0.06274705     1.95895507    -0.00077136    -0.00034325    -0.00019330
H        -0.97504205    -0.02097065     1.92935774    -0.00078980     0.00015699     0.00050389
H        -1.03786297    -0.02468590    -0.63134369     0.00007356    -0.00035083    -0.00030105
     6
  Step:    41            Position(A)                                  Velocity(au)
C        -0.04147982     0.05034617    -0.14895535     0.00003975     0.00005279    -0.00047156
N        -0.04110263    -0.07540213     1.44050286     0.00009511    -0.00001622     0.00044799
H         0.99286279    -0.11046513    -0.60753178    -0.00040175     0.00015381    -0.00053702
H         0.87611110    -0.06469834     1.95774714    -0.00083406    -0.00036085    -0.00023482
H        -0.97909753    -0.02008920     1.93202157    -0.00066507     0.00016164     0.00045287
H        -1.03736169    -0.02665008    -0.63297433     0.00010546    -0.00035819    -0.00028727
     6
  Step:    42            Position(A)                                  Velocity(au)
C        -0.04123715     0.05062732    -0.15153295     0.00004738     0.00004864    -0.00045694
N        -0.04059404    -0.07548499     1.44296219     0.00008693    -0.00001365     0.00043784
H         0.99033044    -0.10951032    -0.61039896    -0.00050519     0.00019149    -0.00049881
H         0.87134202    -0.06675287     1.95634832    -0.00087190    -0.00038161    -0.00026193
H        -0.98242494    -0.01917633     1.93438499    -0.00052941     0.00016958     0.00039686
H        -1.03669223    -0.02866220    -0.63453270     0.00013387    -0.00036934    -0.00027557
     6
  Step:    43            Position(A)                                  Velocity(au)
C        -0.04095397     0.05088594    -0.15402624     0.00005428     0.00004474    -0.00044033
N        -0.04013794    -0.07555365     1.44536178     0.00007630    -0.00001113     0.00042590
H         0.98725641    -0.10834002    -0.61306732    -0.00059490     0.00023331    -0.00046760
H         0.86643514    -0.06893322     1.95484031    -0.00088384    -0.00040874    -0.00027411
H        -0.98497264    -0.01820725     1.93642572    -0.00038581     0.00018499     0.00033789
H        -1.03587602    -0.03074882    -0.63603245     0.00015739    -0.00038807    -0.00026771
     6
  Step:    44            Position(A)                                  Velocity(au)
C        -0.04063495     0.05112367    -0.15641789     0.00005988     0.00004149    -0.00041312
N        -0.03974754    -0.07560844     1.44768709     0.00006346    -0.00000868     0.00040620
H         0.98373064    -0.10692204    -0.61558643    -0.00065673     0.00028301    -0.00045577
H         0.86153678    -0.07128739     1.95330737    -0.00086886    -0.00044975    -0.00026984
H        -0.98670509    -0.01712409     1.93813348    -0.00023775     0.00021994     0.00027901
H        -1.03494614    -0.03296744    -0.63750261     0.00016782    -0.00042695    -0.00027532
     6