     6
  Step:   300            Position(A)                                  Velocity(au)
C        -0.02455665     0.01570675     0.02346565    -0.00000931    -0.00000513     0.00020257
N        -0.04449085    -0.04781731     1.29180499     0.00011172    -0.00001800    -0.00020740
H         0.22205983     0.93903012    -0.50141198    -0.00192863    -0.00001826    -0.00042264
H        -0.22970468    -0.96082896     1.73735041    -0.00264793     0.00078440     0.00049960
H        -0.09098033     0.75006824     1.92787323     0.00125943    -0.00052290     0.00063822
H        -0.20343756    -0.92071441    -0.50277348     0.00187554     0.00006801    -0.00024691
