     6
  Step:     0            Position(A)                                  Velocity(au)
C        -0.03080934     0.00892299     0.03577962     0.00005265    -0.00012510     0.00016791
N        -0.05066641    -0.04163763     1.28475335    -0.00001572     0.00008633    -0.00015629
H         0.88168302     0.00968969    -0.54738108    -0.00005793     0.00042233     0.00032360
H         0.84964524    -0.19185378     1.85551226    -0.00040434    -0.00024597     0.00002314
H        -0.88651521    -0.07308102     1.79128759     0.00068466    -0.00030183     0.00030470
H        -0.98654644     0.05775084    -0.48711385    -0.00063134     0.00041654    -0.00048044
     6
  Step:     1            Position(A)                                  Velocity(au)
C        -0.03051599     0.00824445     0.03647925     0.00005399    -0.00012315     0.00008684
N        -0.05067969    -0.04117161     1.28410444     0.00001079     0.00008423    -0.00008050
H         0.88160146     0.01202598    -0.54588758     0.00002869     0.00043266     0.00022169
H         0.84704212    -0.19317739     1.85545602    -0.00054462    -0.00023865    -0.00004293
H        -0.88343131    -0.07477549     1.79347391     0.00044024    -0.00031845     0.00049619
H        -0.99025684     0.06004237    -0.49005689    -0.00071765     0.00042150    -0.00059104
     6
  Step:     2            Position(A)                                  Velocity(au)
C        -0.03021889     0.00757622     0.03672924     0.00005406    -0.00012146     0.00000392
N        -0.05054842    -0.04071652     1.28387300     0.00003679     0.00008243    -0.00000394
H         0.88199677     0.01442119    -0.54495677     0.00011585     0.00044431     0.00011844
H         0.84368946    -0.19446360     1.85504284    -0.00067755    -0.00023280    -0.00010636
H        -0.88170083    -0.07656354     1.79671379     0.00019406    -0.00033619     0.00068787
H        -0.99439445     0.06236031    -0.49357732    -0.00078783     0.00042653    -0.00069195
     6
  Step:     3            Position(A)                                  Velocity(au)
C        -0.02992508     0.00691682     0.03652206     0.00005284    -0.00012003    -0.00008003
N        -0.05027754    -0.04027057     1.28406140     0.00006154     0.00008098     0.00007284
H         0.88286775     0.01688255    -0.54459299     0.00020216     0.00045722     0.00001474
H         0.83963612    -0.19572205     1.85429344    -0.00080005    -0.00022898    -0.00016492
H        -0.88131011    -0.07845025     1.80099275    -0.00004594    -0.00035463     0.00087432
H        -0.99886826     0.06470458    -0.49762032    -0.00084104     0.00043141    -0.00078269
     6
  Step:     4            Position(A)                                  Velocity(au)
C        -0.02964159     0.00626474     0.03585476     0.00005033    -0.00011885    -0.00016411
N        -0.04987596    -0.03983174     1.28466886     0.00008432     0.00007989     0.00014917
H         0.88420568     0.01941692    -0.54479568     0.00028619     0.00047125    -0.00008843
H         0.83494785    -0.19696548     1.85324088    -0.00090881    -0.00022773    -0.00021626
H        -0.88220282    -0.08043828     1.80626687    -0.00027214    -0.00037323     0.00105008
H        -1.00358393     0.06707406    -0.50212920    -0.00087670     0.00043590    -0.00086284
     6
  Step:     5            Position(A)                                  Velocity(au)
C        -0.02937528     0.00561851     0.03472939     0.00004658    -0.00011790    -0.00024728
N        -0.04935649    -0.03939792     1.28569091     0.00010440     0.00007917     0.00022428
H         0.88599399     0.02203033    -0.54555899     0.00036639     0.00048615    -0.00019001
H         0.82970848    -0.19820973     1.85193105    -0.00100029    -0.00022962    -0.00025796
H        -0.88428287    -0.08252730     1.81246349    -0.00047749    -0.00039138     0.00120988
H        -1.00844510     0.06946627    -0.50704571    -0.00089442     0.00043970    -0.00093200
     6
  Step:     6            Position(A)                                  Velocity(au)
C        -0.02913278     0.00497684     0.03315358     0.00004164    -0.00011713    -0.00032840
N        -0.04873557    -0.03896697     1.28711878     0.00012113     0.00007882     0.00029723
H         0.88820795     0.02472745    -0.54687128     0.00044117     0.00050161    -0.00028879
H         0.82402109    -0.19947377     1.85042308    -0.00107078    -0.00023521    -0.00028752
H        -0.88741870    -0.08471360     1.81948305    -0.00065585    -0.00040842     0.00134891
H        -1.01335414     0.07187717    -0.51230998    -0.00089399     0.00044248    -0.00098978
     6
  Step:     7            Position(A)                                  Velocity(au)
C        -0.02892034     0.00433869     0.03114112     0.00003559    -0.00011649    -0.00040622
N        -0.04803297    -0.03853670     1.28893856     0.00013394     0.00007885     0.00036695
H         0.89081436     0.02751112    -0.54871443     0.00050889     0.00051721    -0.00038344
H         0.81800877    -0.20077971     1.84878945    -0.00111655    -0.00024504    -0.00030255
H        -0.89144894    -0.08698988     1.82720221    -0.00080224    -0.00042365     0.00146305
H        -1.01821324     0.07430098    -0.51786047    -0.00087552     0.00044389    -0.00103582
     6
  Step:     8            Position(A)                                  Velocity(au)
C        -0.02874365     0.00370335     0.02871251     0.00002857    -0.00011590    -0.00047942
N        -0.04727128    -0.03810497     1.29113050     0.00014236     0.00007923     0.00043226
H         0.89377141     0.03038188    -0.55106326     0.00056794     0.00053249    -0.00047254
H         0.81181428    -0.20215264     1.84711544    -0.00113421    -0.00025960    -0.00030086
H        -0.89618922    -0.08934520     1.83547797    -0.00091305    -0.00043641     0.00154910
H        -1.02292585     0.07673006    -0.52363416    -0.00083941     0.00044361    -0.00106984
     6
  Step:     9            Position(A)                                  Velocity(au)
C        -0.02860770     0.00307045     0.02589522     0.00002072    -0.00011531    -0.00054666
N        -0.04647527    -0.03766970     1.29366847     0.00014607     0.00007997     0.00049194
H         0.89702890     0.03333775    -0.55388502     0.00061683     0.00054696    -0.00055462
H         0.80559801    -0.20362027     1.84549735    -0.00112096    -0.00027928    -0.00028076
H        -0.90143975    -0.09176517     1.84415284    -0.00098618    -0.00044610     0.00160492
H        -1.02739829     0.07915502    -0.52956688    -0.00078643     0.00044131    -0.00109167
     6
  Step:    10            Position(A)                                  Velocity(au)
C        -0.02851663     0.00244004     0.02272363     0.00001222    -0.00011465    -0.00060671
N        -0.04567108    -0.03722891     1.29651986     0.00014492     0.00008102     0.00054481
H         0.90052894     0.03637399    -0.55713931     0.00065425     0.00056012    -0.00062829
H         0.79953378    -0.20521220     1.84403958    -0.00107505    -0.00030430    -0.00024124
H        -0.90699309    -0.09423240     1.85306043    -0.00102105    -0.00045225     0.00162956
H        -1.03154139     0.08156481    -0.53559377    -0.00071769     0.00043676    -0.00110132
     6
  Step:    11            Position(A)                                  Velocity(au)
C        -0.02847359     0.00181254     0.01923860     0.00000327    -0.00011385    -0.00065846
N        -0.04488526    -0.03678076     1.29964592     0.00013897     0.00008237     0.00058983
H         0.90420713     0.03948315    -0.56077841     0.00067924     0.00057151    -0.00069229
H         0.79380293    -0.20695896     1.84285050    -0.00099609    -0.00033469    -0.00018221
H        -0.91264228    -0.09672709     1.86203174    -0.00101865    -0.00045452     0.00162328
H        -1.03527255     0.08394702    -0.54165019    -0.00063478     0.00042978    -0.00109905
     6
  Step:    12            Position(A)                                  Velocity(au)
C        -0.02848064     0.00118871     0.01548665    -0.00000591    -0.00011287    -0.00070105
N        -0.04414365    -0.03632360     1.30300252     0.00012849     0.00008397     0.00062620
H         0.90799424     0.04265527    -0.56474805     0.00069118     0.00058074    -0.00074559
H         0.78858604    -0.20889069     1.84203693    -0.00088539    -0.00037018    -0.00010469
H        -0.91818875    -0.09922788     1.87090143    -0.00098136    -0.00045275     0.00158754
H        -1.03851801     0.08628834    -0.54767306    -0.00053964     0.00042028    -0.00108538
     6
  Step:    13            Position(A)                                  Velocity(au)
C        -0.02853865     0.00056961     0.01151863    -0.00001510    -0.00011167    -0.00073392
N        -0.04347030    -0.03585604     1.30654158     0.00011394     0.00008578     0.00065341
H         0.91181838     0.04587823    -0.56898878     0.00068992     0.00058751    -0.00078748
H         0.78405308    -0.21103539     1.84169770    -0.00074609    -0.00041021    -0.00001086
H        -0.92344896    -0.10171272     1.87951367    -0.00091272    -0.00044695     0.00152482
H        -1.04121500     0.08857507    -0.55360231    -0.00043458     0.00040829    -0.00106115
     6
  Step:    14            Position(A)                                  Velocity(au)
C        -0.02864728    -0.00004350     0.00738803    -0.00002409    -0.00011022    -0.00075685
N        -0.04288632    -0.03537705     1.31021277     0.00009598     0.00008772     0.00067135
H         0.91560734     0.04913832    -0.57343766     0.00067578     0.00059164    -0.00081765
H         0.78035310    -0.21341720     1.84191712    -0.00058317    -0.00045389     0.00009597
H        -0.92826039    -0.10415985     1.88772739    -0.00081720    -0.00043732     0.00143847
H        -1.04331351     0.09079367    -0.55938253    -0.00032217     0.00039397    -0.00102749
     6
  Step:    15            Position(A)                                  Velocity(au)
C        -0.02880502    -0.00064925     0.00314922    -0.00003267    -0.00010854    -0.00077000
N        -0.04240895    -0.03488597     1.31396551     0.00007540     0.00008974     0.00068026
H         0.91929129     0.05242069    -0.57803051     0.00064952     0.00059309    -0.00083619
H         0.77760434    -0.21605455     1.84275890    -0.00040308    -0.00050008     0.00021155
H        -0.93248567    -0.10654863     1.89542053    -0.00069991    -0.00042421     0.00133253
H        -1.04477763     0.09293166    -0.56496444    -0.00020507     0.00037757    -0.00098578
     6
  Step:    16            Position(A)                                  Velocity(au)
C        -0.02900934    -0.00124629    -0.00114462    -0.00004069    -0.00010665    -0.00077388
N        -0.04205073    -0.03438260     1.31775104     0.00005312     0.00009176     0.00068077
H         0.92280489     0.05571061    -0.58270381     0.00061227     0.00059203    -0.00084358
H         0.77588646    -0.21895880     1.84426141    -0.00021337    -0.00054746     0.00033107
H        -0.93601634    -0.10886073     1.90249367    -0.00056632    -0.00040818     0.00121146
H        -1.04558596     0.09497767    -0.57030635    -0.00008592     0.00035940    -0.00093763
     6
  Step:    17            Position(A)                                  Velocity(au)
C        -0.02925682    -0.00183342    -0.00544341    -0.00004801    -0.00010460    -0.00076934
N        -0.04181913    -0.03386715     1.32152433     0.00003006     0.00009372     0.00067382
H         0.92608946     0.05899413    -0.58739706     0.00056547     0.00058872    -0.00084070
H         0.77523523    -0.22213319     1.84643487    -0.00002206    -0.00059463     0.00044949
H        -0.93877364    -0.11108079     1.90887170    -0.00042183    -0.00038985     0.00107984
H        -1.04573159     0.09692220    -0.57537527     0.00003279     0.00033988    -0.00088480
     6
  Step:    18            Position(A)                                  Velocity(au)
C        -0.02954333    -0.00240970    -0.00970187    -0.00005454    -0.00010245    -0.00075749
N        -0.04171641    -0.03334023     1.32524581     0.00000710     0.00009556     0.00066059
H         0.92909452     0.06225885    -0.59205477     0.00051078     0.00058360    -0.00082875
H         0.77564105    -0.22557269     1.84926103     0.00016304    -0.00064023     0.00056205
H        -0.94070822    -0.11319696     1.91450450    -0.00027155    -0.00036993     0.00094217
H        -1.04522125     0.09875808    -0.58014774     0.00014884     0.00031947    -0.00082908
     6
  Step:    19            Position(A)                                  Velocity(au)
C        -0.02986428    -0.00297456    -0.01388086    -0.00006022    -0.00010028    -0.00073957
N        -0.04173999    -0.03280276     1.32888249    -0.00001494     0.00009725     0.00064239
H         0.93177890     0.06549475    -0.59662826     0.00044990     0.00057720    -0.00080913
H         0.77705132    -0.22926456     1.85269543     0.00033499    -0.00068313     0.00066462
H        -0.94179841    -0.11520133     1.91936628    -0.00012009    -0.00034915     0.00080260
H        -1.04407366     0.10048066    -0.58461018     0.00026043     0.00029864    -0.00077226
     6
  Step:    20            Position(A)                                  Velocity(au)
C        -0.03021485    -0.00352788    -0.01794818    -0.00006506    -0.00009819    -0.00071689
N        -0.04188299    -0.03225584     1.33240856    -0.00003542     0.00009879     0.00062053
H         0.93411096     0.06869471    -0.60107671     0.00038447     0.00057008    -0.00078335
H         0.77937624    -0.23318968     1.85667166     0.00048812    -0.00072243     0.00075396
H        -0.94204724    -0.11709007     1.92345363     0.00002867    -0.00032823     0.00066477
H        -1.04231738     0.10208793    -0.58875864     0.00036619     0.00027784    -0.00071598
     6
  Step:    21            Position(A)                                  Velocity(au)
C        -0.03059016    -0.00407002    -0.02187885    -0.00006907    -0.00009626    -0.00069071
N        -0.04213510    -0.03170062     1.33580541    -0.00005382     0.00010018     0.00059624
H         0.93606819     0.07185480    -0.60536768     0.00031596     0.00056283    -0.00075288
H         0.78249700    -0.23732428     1.86110701     0.00061831    -0.00075754     0.00082787
H        -0.94147861    -0.11886323     1.92678271     0.00017154    -0.00030782     0.00053169
H        -1.03998831     0.10358035    -0.59259801     0.00046517     0.00025746    -0.00066165
     6
  Step:    22            Position(A)                                  Velocity(au)
C        -0.03098550    -0.00460183    -0.02565466    -0.00007228    -0.00009455    -0.00066211
N        -0.04248349    -0.03113815     1.33906095    -0.00006981     0.00010143     0.00057053
H         0.93763618     0.07497434    -0.60947681     0.00024559     0.00055598    -0.00071903
H         0.78627490    -0.24164180     1.86590837     0.00072297    -0.00078816     0.00088504
H        -0.94013337    -0.12052446     1.92938580     0.00030601    -0.00028846     0.00040574
H        -1.03712732     0.10496053    -0.59614089     0.00055680     0.00023782    -0.00061043
     6
  Step:    23            Position(A)                                  Velocity(au)
C        -0.03139633    -0.00512457    -0.02926327    -0.00007473    -0.00009314    -0.00063193
N        -0.04291364    -0.03056933     1.34216852    -0.00008314     0.00010259     0.00054420
H         0.93880722     0.07805554    -0.61338695     0.00017431     0.00054994    -0.00068287
H         0.79056016    -0.24611454     1.87097781     0.00080082    -0.00081418     0.00092501
H        -0.93806567    -0.12208044     1.93130786     0.00043009    -0.00027062     0.00028875
H        -1.03377840     0.10623274    -0.59940603     0.00064069     0.00021912    -0.00056316
     6
  Step:    24            Position(A)                                  Velocity(au)
C        -0.03181835    -0.00563979    -0.03269695    -0.00007601    -0.00008980    -0.00063570
N        -0.04341005    -0.02999487     1.34512553    -0.00009323     0.00010426     0.00054422
H         0.93957877     0.08110296    -0.61708676     0.00008305     0.00060024    -0.00060786
H         0.79519940    -0.25071516     1.87621675     0.00083064    -0.00091533     0.00092819
H        -0.93534039    -0.12354024     1.93260365     0.00055066    -0.00018819     0.00018684
H        -1.02998743     0.10740240    -0.60241685     0.00073692     0.00012442    -0.00049477
     6
  Step:    25            Position(A)                                  Velocity(au)
C        -0.03224258    -0.00612426    -0.03634048    -0.00007654    -0.00008359    -0.00068441
N        -0.04395151    -0.02940857     1.34822723    -0.00010014     0.00010499     0.00058077
H         0.93973180     0.08473794    -0.62015421    -0.00002968     0.00067670    -0.00049164
H         0.79980753    -0.25630477     1.88131128     0.00081225    -0.00105240     0.00088962
H        -0.93193520    -0.12417557     1.93338798     0.00067112    -0.00006583     0.00008545
H        -1.02557435     0.10761794    -0.60491429     0.00084995    -0.00002135    -0.00039853
     6
  Step:    26            Position(A)                                  Velocity(au)
C        -0.03266959    -0.00656949    -0.04030904    -0.00007676    -0.00007660    -0.00074270
N        -0.04452386    -0.02882717     1.35158489    -0.00010428     0.00010383     0.00062722
H         0.93924867     0.08862927    -0.62255485    -0.00014234     0.00071582    -0.00037347
H         0.80423332    -0.26242004     1.88611121     0.00076874    -0.00113495     0.00082987
H        -0.92787613    -0.12427243     1.93355399     0.00078030     0.00002297    -0.00002179
H        -1.02053419     0.10716498    -0.60684929     0.00095718    -0.00013395    -0.00030062
     6
  Step:    27            Position(A)                                  Velocity(au)
C        -0.03309570    -0.00697553    -0.04459469    -0.00007623    -0.00006965    -0.00079791
N        -0.04511050    -0.02825462     1.35519799    -0.00010536     0.00010206     0.00067204
H         0.93814982     0.09269338    -0.62430487    -0.00025026     0.00074265    -0.00025887
H         0.80835115    -0.26891831     1.89053431     0.00070365    -0.00119539     0.00075641
H        -0.92326317    -0.12392029     1.93314582     0.00086921     0.00009817    -0.00011868
H        -1.01493648     0.10612922    -0.60825529     0.00104991    -0.00023371    -0.00020986
     6
  Step:    28            Position(A)                                  Velocity(au)
C        -0.03351639    -0.00734319    -0.04917285    -0.00007481    -0.00006284    -0.00084772
N        -0.04569432    -0.02769344     1.35905043    -0.00010331     0.00009985     0.00071305
H         0.93646854     0.09687921    -0.62543058    -0.00035110     0.00076135    -0.00014958
H         0.81205001    -0.27569931     1.89451404     0.00061974    -0.00123919     0.00067185
H        -0.91822028    -0.12318190     1.93223561     0.00093373     0.00016310    -0.00020096
H        -1.00887097     0.10456870    -0.60918060     0.00112466    -0.00032402    -0.00012863
     6
  Step:    29            Position(A)                                  Velocity(au)
C        -0.03392660    -0.00767347    -0.05401044    -0.00007241    -0.00005620    -0.00089080
N        -0.04625798    -0.02714557     1.36311791    -0.00009810     0.00009729     0.00074895
H         0.93425004     0.10114980    -0.62596625    -0.00044267     0.00077391    -0.00004708
H         0.81523471    -0.28268227     1.89799671     0.00052002    -0.00126915     0.00057857
H        -0.91289200    -0.12210866     1.93091373     0.00097041     0.00021931    -0.00026563
H        -1.00244466     0.10253022    -0.60968401     0.00117840    -0.00040632    -0.00005878
     6
  Step:    30            Position(A)                                  Velocity(au)
C        -0.03432082    -0.00796753    -0.05906861    -0.00006898    -0.00004977    -0.00092627
N        -0.04678413    -0.02661265     1.36737043    -0.00008980     0.00009445     0.00077888
H         0.93155097     0.10547643    -0.62595361    -0.00052284     0.00078161     0.00004717
H         0.81782681    -0.28979808     1.90094129     0.00040777    -0.00128720     0.00047899
H        -0.90744017    -0.12074560     1.92928473     0.00097647     0.00026761    -0.00031044
H        -0.99578034     0.10005495    -0.60983352     0.00120843    -0.00048136    -0.00000193
     6
  Step:    31            Position(A)                                  Velocity(au)
C        -0.03469323    -0.00822661    -0.06430438    -0.00006448    -0.00004358    -0.00095356
N        -0.04725590    -0.02609596     1.37177391    -0.00007852     0.00009138     0.00080226
H         0.92843948     0.10983616    -0.62544203    -0.00058965     0.00078546     0.00013181
H         0.81976638    -0.29698737     1.90331994     0.00028645    -0.00129497     0.00037562
H        -0.90204009    -0.11913459     1.92746370     0.00095012     0.00030851    -0.00033384
H        -0.98901496     0.09718067    -0.60970550     0.00121257    -0.00054957     0.00004050
     6
  Step:    32            Position(A)                                  Velocity(au)
C        -0.03503790    -0.00845215    -0.06967226    -0.00005892    -0.00003767    -0.00097240
N        -0.04765724    -0.02559646     1.37629168    -0.00006448     0.00008817     0.00081880
H         0.92499396     0.11421080    -0.62448791    -0.00064138     0.00078631     0.00020560
H         0.82101219    -0.30419822     1.90511818     0.00015961    -0.00129393     0.00027094
H        -0.89687476    -0.11731495     1.92557237     0.00089070     0.00034246    -0.00033512
H        -0.98229640     0.09394370    -0.60938316     0.00118928    -0.00061119     0.00006744
     6
  Step:    33            Position(A)                                  Velocity(au)
C        -0.03534893    -0.00864582    -0.07512562    -0.00005234    -0.00003208    -0.00098282
N        -0.04797350    -0.02511476     1.38088580    -0.00004801     0.00008488     0.00082847
H         0.92130192     0.11858648    -0.62315402    -0.00067664     0.00078499     0.00026753
H         0.82154252    -0.31138673     1.90633501     0.00003077    -0.00128569     0.00016739
H        -0.89212810    -0.11532359     1.92373431     0.00079894     0.00036995    -0.00031453
H        -0.97578020     0.09037914    -0.60895501     0.00113779    -0.00066651     0.00007820
     6
  Step:    34            Position(A)                                  Velocity(au)
C        -0.03562080    -0.00880943    -0.08061831    -0.00004483    -0.00002684    -0.00098510
N        -0.04819199    -0.02465111     1.38551867    -0.00002952     0.00008159     0.00083152
H         0.91745799     0.12295357    -0.62150828    -0.00069439     0.00078233     0.00031684
H         0.82135494    -0.31851746     1.90698251    -0.00009662    -0.00127190     0.00006728
H        -0.88797665    -0.11319466     1.92206932     0.00067709     0.00039159    -0.00027333
H        -0.96962437     0.08652054    -0.60851221     0.00105830    -0.00071590     0.00007263
     6
  Step:    35            Position(A)                                  Velocity(au)
C        -0.03584860    -0.00894501    -0.08610606    -0.00003653    -0.00002198    -0.00097978
N        -0.04830254    -0.02420536     1.39015432    -0.00000950     0.00007836     0.00082842
H         0.91356188     0.12730673    -0.61962234    -0.00069407     0.00077915     0.00035307
H         0.82046555    -0.32556398     1.90708497    -0.00021939    -0.00125433    -0.00002733
H        -0.88458096    -0.11095880     1.92068769     0.00052884     0.00040809    -0.00021376
H        -0.96398389     0.08239932    -0.60814550     0.00095199    -0.00075989     0.00005111
     6
  Step:    36            Position(A)                                  Velocity(au)
C        -0.03602831    -0.00905467    -0.09154770    -0.00002764    -0.00001752    -0.00096756
N        -0.04829799    -0.02377698     1.39475963     0.00001147     0.00007528     0.00081981
H         0.90971571     0.13164497    -0.61756976    -0.00067555     0.00077624     0.00037612
H         0.81890763    -0.33250943     1.90667762    -0.00033467    -0.00123475    -0.00011466
H        -0.88207751    -0.10864239     1.91968485     0.00035919     0.00042034    -0.00013895
H        -0.95900502     0.07804397    -0.60794213     0.00082104    -0.00079914     0.00001462
     6
  Step:    37            Position(A)                                  Velocity(au)
C        -0.03615713    -0.00914058    -0.09690628    -0.00001839    -0.00001345    -0.00094929
N        -0.04817455    -0.02336507     1.39930528     0.00003277     0.00007240     0.00080645
H         0.90602117     0.13597137    -0.61542401    -0.00063923     0.00077432     0.00038621
H         0.81672987    -0.33934663     1.90580515    -0.00043994    -0.00121494    -0.00019320
H        -0.88057152    -0.10626685     1.91913672     0.00017425     0.00042927    -0.00005271
H        -0.95481915     0.07347912    -0.60798225     0.00066866    -0.00083442    -0.00003525
     6
  Step:    38            Position(A)                                  Velocity(au)
C        -0.03623366    -0.00920490    -0.10214962    -0.00000903    -0.00000976    -0.00092587
N        -0.04793204    -0.02296842     1.40376627     0.00005376     0.00006978     0.00078915
H         0.90257666     0.14029276    -0.61325644    -0.00058594     0.00077401     0.00038392
H         0.81399424    -0.34607810     1.90451992    -0.00053309    -0.00119657    -0.00026178
H        -0.88013147    -0.10384816     1.91909623    -0.00001921     0.00043589     0.00004071
H        -0.95153730     0.06872496    -0.60833575     0.00049883    -0.00086661    -0.00009643
     6
  Step:    39            Position(A)                                  Velocity(au)
C        -0.03625805    -0.00924966    -0.10725067     0.00000013    -0.00000643    -0.00089821
N        -0.04757395    -0.02258549     1.40812213     0.00007379     0.00006746     0.00076870
H         0.89947469     0.14461902    -0.61113466    -0.00051694     0.00077579     0.00037006
H         0.81077393    -0.35271543     1.90288034    -0.00061236    -0.00118121    -0.00031953
H        -0.88078609    -0.10139681     1.91959152    -0.00021402     0.00044116     0.00013685
H        -0.94924589     0.06379686    -0.60905968     0.00031625    -0.00089658    -0.00016646
     6
  Step:    40            Position(A)                                  Velocity(au)
C        -0.03623217    -0.00927674    -0.11218752     0.00000881    -0.00000341    -0.00086718
N        -0.04710735    -0.02221451     1.41235687     0.00009227     0.00006549     0.00074585
H         0.89679958     0.14896251    -0.60912087    -0.00043390     0.00077999     0.00034573
H         0.80715082    -0.35927868     1.90094905    -0.00067645    -0.00117023    -0.00036584
H        -0.88252323    -0.09891797     1.92062560    -0.00040309     0.00044595     0.00023138
H        -0.94800301     0.05870530    -0.61019603     0.00012614    -0.00092515    -0.00024251
     6
  Step:    41            Position(A)                                  Velocity(au)
C        -0.03615956    -0.00928781    -0.11694313     0.00001672    -0.00000067    -0.00083358
N        -0.04654259    -0.02185347     1.41645848     0.00010865     0.00006391     0.00072123
H         0.89462493     0.15333704    -0.60727044    -0.00033889     0.00078678     0.00031223
H         0.80321326    -0.36579514     1.89879136    -0.00072439    -0.00116479    -0.00040038
H        -0.88529142    -0.09641237     1.92217762    -0.00057978     0.00045103     0.00032028
H        -0.94783603     0.05345641    -0.61177026    -0.00006600    -0.00095307    -0.00032162
     6
  Step:    42            Position(A)                                  Velocity(au)
C        -0.03604532    -0.00928424    -0.12150499     0.00002358     0.00000185    -0.00079817
N        -0.04589289    -0.02150019     1.42041852     0.00012246     0.00006273     0.00069542
H         0.89301158     0.15775685    -0.60563094    -0.00023434     0.00079612     0.00027102
H         0.79905384    -0.37229826     1.89647377    -0.00075566    -0.00116583    -0.00042308
H        -0.88900377    -0.09387656     1.92420554    -0.00073824     0.00045701     0.00040009
H        -0.94874077     0.04805220    -0.61379098    -0.00025461    -0.00098097    -0.00040079
     6
  Step:    43            Position(A)                                  Velocity(au)
C        -0.03589595    -0.00926716    -0.12586466     0.00002919     0.00000419    -0.00076159
N        -0.04517375    -0.02115234     1.42423150     0.00013336     0.00006198     0.00066886
H         0.89200562     0.16223563    -0.60424110    -0.00012299     0.00080780     0.00022374
H         0.79476690    -0.37882619     1.89406241    -0.00077015    -0.00117402    -0.00043412
H        -0.89354306    -0.09130417     1.92664959    -0.00087361     0.00046431     0.00046801
H        -0.95068198     0.04249158    -0.61625010    -0.00043433    -0.00100929    -0.00047714
     6
  Step:    44            Position(A)                                  Velocity(au)
C        -0.03571904    -0.00923739    -0.13001726     0.00003338     0.00000641    -0.00072443
N        -0.04440233    -0.02080747     1.42789430     0.00014110     0.00006167     0.00064192
H         0.89163692     0.16678564    -0.60313019    -0.00000784     0.00082151     0.00017210
H         0.79044593    -0.38542026     1.89162162    -0.00076824    -0.00118978    -0.00043396
H        -0.89876811    -0.08868694     1.92943642    -0.00098226     0.00047320     0.00052200
H        -0.95359523     0.03677138    -0.61912400    -0.00060022    -0.00103831    -0.00054806
     6