     6
  Step:   300            Position(A)                                  Velocity(au)
C        -0.04067382     0.01411234     0.01319802     0.00001052    -0.00000153     0.00004010
N        -0.03900669    -0.05302736     1.30161129    -0.00000856     0.00000276    -0.00001891
H        -0.04697513    -0.89883953    -0.57468492     0.00084368     0.00023403    -0.00020574
H        -0.12005442     0.76537500     1.91015120     0.00097539     0.00001824     0.00019353
H         0.03126009    -0.94023486     1.81114771    -0.00092936     0.00001027     0.00002451
H        -0.05044234     0.97264160    -0.49949729    -0.00089605    -0.00028266    -0.00022733
