|===============================================================================
|
|  DFTB+ release 20.1
|
|  Copyright (C) 2006 - 2020  DFTB+ developers group
|
|===============================================================================
|
|  When publishing results obtained with DFTB+, please cite the following
|  reference:
|
|  * DFTB+, a software package for efficient approximate density functional
|    theory based atomistic simulations, J. Chem. Phys. 152, 124101 (2020).
|    [doi: 10.1063/1.5143190]
|
|  You should also cite additional publications crediting the parametrization
|  data you use. Please consult the documentation of the SK-files for the
|  references.
|
|===============================================================================

Reading input file 'dftb_in.hsd'
Parser version: 8

--------------------------------------------------------------------------------
Reading SK-files:
Done.


Processed input in HSD format written to 'dftb_pin.hsd'

Starting initialization...
--------------------------------------------------------------------------------
OpenMP threads:              1
Chosen random seed:          508636819
Mode:                        Static calculation
Self consistent charges:     Yes
SCC-tolerance:                 0.100000E-05
Max. scc iterations:                   1000
Shell resolved Hubbard:      No
Spin polarisation:           No
Nr. of up electrons:             6.000000
Nr. of down electrons:           6.000000
Periodic boundaries:         No
Electronic solver:           Relatively robust
Maximal SCC-cycles:                    1000
Initial charges:             Set automatically (system chrg:   0.100E+01)
Included shells:             C:  s, p
                             N:  s, p
                             H:  s
Spin coupling constants:     C   1(s)-1(s):  -0.455900E-01
                             C   1(s)-2(p):  -0.293000E-01
                             C   2(p)-1(s):  -0.293000E-01
                             C   2(p)-2(p):  -0.275500E-01
                             N   1(s)-1(s):  -0.468700E-01
                             N   1(s)-2(p):  -0.317000E-01
                             N   2(p)-1(s):  -0.317000E-01
                             N   2(p)-2(p):  -0.307200E-01
                             H   1(s)-1(s):  -0.792500E-01
Range separated hybrid:      Yes
  Screening parameter omega:   0.300000E+00
  Range separated algorithm:   MatrixBased
Extra options:
                             Mulliken analysis
                             Force calculation
Force type                   original
                             Eigenvector printing


REKS Calcuation:             Yes
SSR(2,2) Calcuation:         Yes
Energy Functional:           (PPS+OSS)/2
Number of Core Orbitals:                  5
Number of Active Orbitals:                2
Number of Basis:                         12
Number of States:                         2
State-Averaging Weight:          0.500000
                                 0.500000
State of Interest:                        1
Initial Guess:               Diagonalize H0 matrix
Newton-Raphson for FON opt:  Yes
NR max. Iterations:                      50
Level Shifting:              Yes
Shift Value:                     0.300000
W Scale Factor:              C  =    3.000000
                             N  =    3.000000
                             H  =    3.000000
Transition Dipole:           No
Gradient of Microstate:      No
CP-REKS Solver:              Preconditioned Conjugate-Gradient
CG max. Iterations:                     100
CG Tolerance:                  0.100000E-07
Memory for A and Hxc:        Direct Updating Without Saving
Non-Adiabatic Coupling:      Yes

--------------------------------------------------------------------------------

***  Geometry step: 0

  iSCC       reks energy        Diff energy         x_a       SCC error   
    1       -6.2624067640       0.0000000000     0.999654    1.19282031
    2       -6.2739311901      -0.0115244261     0.999846    0.08508752
    3       -6.2778094329      -0.0038782428     0.999912    0.03493414
    4       -6.2798064199      -0.0019969870     0.999940    0.01641659
    5       -6.2809277762      -0.0011213562     0.999954    0.00850874
    6       -6.2815703067      -0.0006425305     0.999962    0.00741115
    7       -6.2819379112      -0.0003676045     0.999966    0.00610882
    8       -6.2821467291      -0.0002088179     0.999968    0.00485911
    9       -6.2822646112      -0.0001178821     0.999970    0.00377373
   10       -6.2823309452      -0.0000663341     0.999970    0.00288352
   11       -6.2823682775      -0.0000373323     0.999971    0.00217910
   12       -6.2823893536      -0.0000210761     0.999971    0.00163463
   13       -6.2824013183      -0.0000119647     0.999972    0.00122037
   14       -6.2824081605      -0.0000068422     0.999972    0.00090848
   15       -6.2824121069      -0.0000039464     0.999972    0.00069344
   16       -6.2824144040      -0.0000022971     0.999972    0.00056087
   17       -6.2824157537      -0.0000013497     0.999972    0.00045281
   18       -6.2824165540      -0.0000008003     0.999972    0.00036494
   19       -6.2824170326      -0.0000004786     0.999972    0.00029366
   20       -6.2824173211      -0.0000002885     0.999972    0.00023595
   21       -6.2824174963      -0.0000001751     0.999972    0.00018933
   22       -6.2824176033      -0.0000001070     0.999972    0.00015174
   23       -6.2824176690      -0.0000000657     0.999972    0.00012149
   24       -6.2824177095      -0.0000000405     0.999972    0.00009723
   25       -6.2824177346      -0.0000000251     0.999972    0.00007837
   26       -6.2824177502      -0.0000000156     0.999972    0.00006305
   27       -6.2824177599      -0.0000000097     0.999972    0.00005064
   28       -6.2824177660      -0.0000000061     0.999972    0.00004061
   29       -6.2824177698      -0.0000000038     0.999972    0.00003254
   30       -6.2824177722      -0.0000000024     0.999972    0.00002604
   31       -6.2824177737      -0.0000000015     0.999972    0.00002081
   32       -6.2824177746      -0.0000000009     0.999972    0.00001663
   33       -6.2824177752      -0.0000000006     0.999972    0.00001327
   34       -6.2824177756      -0.0000000004     0.999972    0.00001059
   35       -6.2824177758      -0.0000000002     0.999972    0.00000844
   36       -6.2824177759      -0.0000000001     0.999972    0.00000673
   37       -6.2824177760      -0.0000000001     0.999972    0.00000536
   38       -6.2824177761      -0.0000000001     0.999972    0.00000427
   39       -6.2824177761      -0.0000000000     0.999972    0.00000340
   40       -6.2824177761      -0.0000000000     0.999972    0.00000270
   41       -6.2824177762      -0.0000000000     0.999972    0.00000215
   42       -6.2824177762      -0.0000000000     0.999972    0.00000171
   43       -6.2824177762      -0.0000000000     0.999972    0.00000136
   44       -6.2824177762      -0.0000000000     0.999972    0.00000108
   45       -6.2824177762      -0.0000000000     0.999972    0.00000086
  
--------------------------------------------------
 Final SA-REKS(2,2) energy:      -6.28241778
  
 State     Energy      FON(1)    FON(2)   Spin
  PPS   -6.41205774   1.999943  0.000057  0.00
  OSS   -6.15277781   1.000000  1.000000  0.00
 Trip   -6.23080990   1.000000  1.000000  1.00
--------------------------------------------------

 Lagrangian Wab:   0.00306628  0.00306618

--------------------------------------------------
 SSR: 2SI-2SA-REKS(2,2) Hamiltonian matrix
               PPS           OSS
   PPS    -6.41205774    0.00431323
   OSS     0.00431323   -6.15277781
--------------------------------------------------

----------------------------------------------------------------
 SSR: 2SI-2SA-REKS(2,2) states
                    E_n       C_{PPS}    C_{OSS}
 SSR state  1   -6.41212947  -0.999862   0.016629
 SSR state  2   -6.15270608  -0.016629  -0.999862
----------------------------------------------------------------

 unrelaxed SSR FONs for S0:  1.999667  0.000333

Total Energy:                       -6.4121294727 H         -174.4829 eV
Extrapolated to 0:                  -6.4121294727 H         -174.4829 eV

----------------------------------------------------------------------------------
 Solving CP-REKS equation for  1 state vector...
----------------------------------------------------------------------------------
  CG solver: Constructing Y initial guess
  CG solver: Iteration    1    eps =    0.000049172802
  CG solver: Iteration    2    eps =    0.000011624694
  CG solver: Iteration    3    eps =    0.000000444054
  CG solver: Iteration    4    eps =    0.000000089653
  CG solver: Iteration    5    eps =    0.000000011167
  CG solver: Iteration    6    eps =    0.000000000398
  Convergence reached in CG solver after    6 iterations
  CG solver: Calculating converged R, Z, Q2 matrix
----------------------------------------------------------------------------------

----------------------------------------------------------------------------------
 Solving CP-REKS equation for SI between  1 and  2 state vectors...
----------------------------------------------------------------------------------
  CG solver: Constructing Y initial guess
  CG solver: Iteration    1    eps =    0.000786766380
  CG solver: Iteration    2    eps =    0.000487343290
  CG solver: Iteration    3    eps =    0.000152614363
  CG solver: Iteration    4    eps =    0.000002296218
  CG solver: Iteration    5    eps =    0.000000322863
  CG solver: Iteration    6    eps =    0.000000008589
  Convergence reached in CG solver after    6 iterations
  CG solver: Calculating converged R, Z, Q2 matrix
----------------------------------------------------------------------------------

--------------------------------------------------
 Gradient Information
--------------------------------------------------
           1 st state (SSR)
     0.00598938     0.01215304     0.03394217
    -0.02285569     0.00605143    -0.03913351
     0.00727056    -0.00380469     0.00853933
     0.01525695    -0.00599865     0.00152226
     0.00134520    -0.00661335     0.00200244
    -0.00700640    -0.00178778    -0.00687269

           2 st state (SSR)
    -0.00813581    -0.01354924     0.14165432
     0.01529012     0.00970693    -0.16607359
    -0.00569462     0.01508069     0.02505262
    -0.01138993    -0.00771323    -0.00653624
     0.00146797     0.00485273    -0.00617903
     0.00846227    -0.00837789     0.01208192
--------------------------------------------------
 Coupling Information
--------------------------------------------------
 between  1 and  2 states
--------------------------------------------------
 g vector - difference gradient
     0.00701121     0.01272912    -0.05397613
    -0.01920894    -0.00161171     0.06358728
     0.00678177    -0.00939933    -0.00827305
     0.01362928     0.00076668     0.00399387
    -0.00028001    -0.00580391     0.00413709
    -0.00793332     0.00331914    -0.00946906

 h vector - derivative coupling
    -0.00166178    -0.00388121    -0.00271287
    -0.00377155     0.00652384     0.00246835
     0.00888428     0.00146039    -0.00035574
     0.00897087    -0.00273748    -0.00113053
    -0.00656986    -0.00203475     0.00132524
    -0.00585195     0.00066921     0.00040555

 G vector - GDV
     0.00706259     0.01285114    -0.05385607
    -0.01907291    -0.00182775     0.06347004
     0.00648259    -0.00944269    -0.00825665
     0.01332344     0.00085729     0.00402925
    -0.00006139    -0.00573304     0.00409074
    -0.00773434     0.00329505    -0.00947731

 H vector - DCV - non-adiabatic coupling
    -0.00550346    -0.01332106    -0.01737009
    -0.01699232     0.02492698     0.01766001
     0.03509658     0.00442146    -0.00243096
     0.03630788    -0.01044807    -0.00384351
    -0.02534675    -0.00858293     0.00563588
    -0.02356192     0.00300362     0.00034867
--------------------------------------------------


--------------------------------------------------------------------------------
DFTB+ running times                          cpu [s]             wall clock [s]
--------------------------------------------------------------------------------
SCC                                    +     0.03  ( 68.8%)      0.03  ( 65.1%)
Post-SCC processing                    +     0.01  ( 25.5%)      0.01  ( 25.6%)
  Force calculation                          0.01  ( 24.8%)      0.01  ( 23.3%)
--------------------------------------------------------------------------------
Missing                                +     0.00  (  5.7%)      0.00  (  9.3%)
Total                                  =     0.04  (100.0%)      0.04  (100.0%)
--------------------------------------------------------------------------------
