    14
  Step:   600            Position(A)                                  Velocity(au)
C        -4.54795980    -0.81911028    -0.82239777     0.00063892     0.00107095     0.00020911
C        -4.91980363    -0.15782539     0.25459338    -0.00029020    -0.00037114     0.00071276
H        -3.79519273    -0.39739035    -1.47802442    -0.00030864     0.00133884     0.00043547
H        -4.95458021    -1.78057832    -1.02095583     0.00166361    -0.00005835     0.00090891
H        -5.51234274    -0.69472579     1.04459504     0.00075868    -0.00043750     0.00107338
C        -4.29225793     0.99950928     0.89630053    -0.00033607     0.00037825    -0.00056557
C        -3.03663387     1.32938241     0.55530452    -0.00012181    -0.00088416     0.00039246
H        -4.66993022     1.47305403     1.77282814    -0.00054347    -0.00118239    -0.00550152
H        -2.65624229     2.22595548     1.02592806     0.00214874    -0.00081161     0.00158323
C        -2.03409590     0.78640258    -0.41332265     0.00008989    -0.00000442    -0.00106504
H        -2.47233630     0.32137687    -1.37028173    -0.00274381    -0.00271787     0.00001011
N        -0.79926459     0.99540371    -0.05697499    -0.00011424     0.00002588     0.00038979
H         0.01296590     0.77764848    -0.68232316     0.00023663     0.00166945     0.00112494
H        -0.43029856     1.40248472     0.90745852     0.00060550    -0.00041796    -0.00128229
