    14
  Step:     0            Position(A)                                  Velocity(au)
C        -6.05601523    -0.62764671    -0.09713839     0.00004531     0.00007158     0.00004674
C        -4.70554178    -0.76516724     0.10800893     0.00005417    -0.00004258     0.00007231
H        -6.52623093     0.28672993    -0.46655979    -0.00055175     0.00031464    -0.00018542
H        -6.63969074    -1.58391439    -0.17121492     0.00024753     0.00025889    -0.00027016
H        -4.30221697    -1.73432373     0.35578005    -0.00089121     0.00015465    -0.00098015
C        -3.85583782     0.34216113     0.00072008     0.00012502    -0.00004768     0.00016493
C        -2.48573728     0.37929553     0.15966003     0.00023286     0.00013706    -0.00002088
H        -4.32848623     1.28853730    -0.24114728    -0.00025076    -0.00058474     0.00026718
H        -2.02312793    -0.57210452     0.59155958    -0.00057522     0.00076067    -0.00068442
C        -1.84096409     1.67316647    -0.02152681    -0.00007212    -0.00027103    -0.00027459
H        -2.56742860     2.51086159    -0.27671560     0.00126885     0.00057041    -0.00043816
N        -0.56399341     1.89545679     0.19225117    -0.00027824     0.00000584     0.00015216
H        -0.22395491     2.89536267     0.15810389     0.00000335     0.00047303     0.00014781
H         0.21415105     1.27218231     0.60826143     0.00002523    -0.00020968     0.00016575
    14
  Step:     1            Position(A)                                  Velocity(au)
C        -6.05570716    -0.62702678    -0.09674191     0.00001020     0.00004417     0.00002509
C        -4.70486077    -0.76561812     0.10884044     0.00007012    -0.00003707     0.00007877
H        -6.53213982     0.29016485    -0.46817993    -0.00051740     0.00029768    -0.00010342
H        -6.63689811    -1.57978902    -0.17373796     0.00025680     0.00048434    -0.00019096
H        -4.31169987    -1.73311068     0.34511454    -0.00082671     0.00004047    -0.00096070
C        -3.85487329     0.34166783     0.00245168     0.00004979    -0.00004416     0.00015187
C        -2.48270182     0.38086631     0.15954004     0.00032068     0.00015194    -0.00000247
H        -4.33150121     1.28250449    -0.23826594    -0.00030337    -0.00050575     0.00025880
H        -2.02934827    -0.56193661     0.58322990    -0.00054151     0.00106927    -0.00082244
C        -1.84215850     1.66993110    -0.02451925    -0.00014397    -0.00031932    -0.00027230
H        -2.55188356     2.51619721    -0.28132519     0.00155676     0.00040321    -0.00040725
N        -0.56656905     1.89570244     0.19401749    -0.00019239     0.00003947     0.00017090
H        -0.22456841     2.89867862     0.15966797    -0.00012106     0.00011983     0.00013845
H         0.21162905     1.27090837     0.60883968    -0.00048597    -0.00002135    -0.00006057
    14
  Step:     2            Position(A)                                  Velocity(au)
C        -6.05579219    -0.62668041    -0.09658940    -0.00002601     0.00002194     0.00000237
C        -4.70400784    -0.76597818     0.10973217     0.00008577    -0.00002634     0.00008340
H        -6.53755010     0.29324231    -0.46882241    -0.00046220     0.00025223    -0.00000815
H        -6.63407276    -1.57331857    -0.17539245     0.00024971     0.00068050    -0.00011226
H        -4.32030278    -1.73343842     0.33476297    -0.00073301    -0.00012090    -0.00092450
C        -3.85474853     0.34119501     0.00404250    -0.00002828    -0.00004393     0.00013922
C        -2.47872182     0.38261942     0.15960609     0.00040467     0.00017127     0.00001266
H        -4.33512311     1.27747315    -0.23548558    -0.00036074    -0.00040435     0.00024954
H        -2.03497459    -0.54871211     0.57356711    -0.00046177     0.00130801    -0.00092322
C        -1.84411376     1.66618069    -0.02748382    -0.00020935    -0.00036523    -0.00026913
H        -2.53337156     2.51968249    -0.28562487     0.00180464     0.00023835    -0.00038382
N        -0.56820221     1.89632034     0.19598985    -0.00010869     0.00007322     0.00018909
H        -0.22660327     2.89798426     0.16113264    -0.00024988    -0.00024236     0.00012910
H         0.20351950     1.27171513     0.60693636    -0.00097877     0.00015829    -0.00027923
    14
  Step:     3            Position(A)                                  Velocity(au)
C        -6.05627622    -0.62654682    -0.09669005    -0.00006220     0.00000551    -0.00002092
C        -4.70298430    -0.76619446     0.11066492     0.00010155    -0.00001148     0.00008641
H        -6.54225137     0.29568279    -0.46835833    -0.00038996     0.00018506     0.00009702
H        -6.63143512    -1.56490187    -0.17619390     0.00021898     0.00083356    -0.00003592
H        -4.32773586    -1.73575557     0.32488940    -0.00061674    -0.00031383    -0.00087564
C        -3.85549205     0.34070673     0.00549739    -0.00010854    -0.00004684     0.00012704
C        -2.47384898     0.38461319     0.15981696     0.00048285     0.00019663     0.00002359
H        -4.33939317     1.27365848    -0.23280669    -0.00042043    -0.00028689     0.00024116
H        -2.03945029    -0.53332147     0.56303281    -0.00032677     0.00145418    -0.00097732
C        -1.84673841     1.66194100    -0.03040691    -0.00026473    -0.00040870    -0.00026442
H        -2.51240361     2.52141164    -0.28972193     0.00199970     0.00008848    -0.00037239
N        -0.56894695     1.89730427     0.19815415    -0.00003254     0.00010579     0.00020525
H        -0.23003490     2.89337644     0.16249235    -0.00036979    -0.00057785     0.00011871
H         0.19021661     1.27437128     0.60273091    -0.00141742     0.00030362    -0.00047238
    14
  Step:     4            Position(A)                                  Velocity(au)
C        -6.05715295    -0.62655984    -0.09704705    -0.00009723    -0.00000477    -0.00004420
C        -4.70178626    -0.76622940     0.11162262     0.00011780     0.00000579     0.00008814
H        -6.54608115     0.29729081    -0.46669998    -0.00030542     0.00010442     0.00020810
H        -6.62928205    -1.55508281    -0.17617825     0.00015820     0.00093132     0.00003627
H        -4.33379507    -1.74030401     0.31560667    -0.00048639    -0.00051734    -0.00081905
C        -3.85712304     0.34017023     0.00682168    -0.00018971    -0.00005238     0.00011537
C        -2.46815866     0.38692114     0.16012224     0.00055276     0.00022896     0.00002964
H        -4.34432074     1.27119679    -0.23020975    -0.00047918    -0.00016119     0.00023536
H        -2.04212321    -0.51689910     0.55218644    -0.00012917     0.00148790    -0.00097728
C        -1.84990524     1.65723957    -0.03326841    -0.00030720    -0.00044936    -0.00025769
H        -2.48962440     2.52161806    -0.29377151     0.00213071    -0.00003403    -0.00037701
N        -0.56891400     1.89863469     0.20048000     0.00003120     0.00013608     0.00021791
H        -0.23469322     2.88534258     0.16372971    -0.00046766    -0.00085114     0.00010617
H         0.17251072     1.27835732     0.59660218    -0.00176547     0.00038742    -0.00062144
    14
  Step:     5            Position(A)                                  Velocity(au)
C        -6.05840324    -0.62665115    -0.09765703    -0.00012988    -0.00000892    -0.00006687
C        -4.70040714    -0.76606783     0.11259308     0.00013450     0.00002320     0.00008892
H        -6.54893304     0.29796711    -0.46380574    -0.00021395     0.00001942     0.00032080
H        -6.62797412    -1.54452737    -0.17540036     0.00006265     0.00096459     0.00010279
H        -4.33837658    -1.74707340     0.30697104    -0.00035110    -0.00070804    -0.00075975
C        -3.85964226     0.33956080     0.00802125    -0.00026959    -0.00005956     0.00010429
C        -2.46175631     0.38962223     0.16046536     0.00061141     0.00026797     0.00003048
H        -4.34987605     1.27013222    -0.22765782    -0.00053333    -0.00003581     0.00023354
H        -2.04227614    -0.50077083     0.54165304     0.00013416     0.00139720    -0.00091973
C        -1.85345889     1.65211040    -0.03604439    -0.00033450    -0.00048627    -0.00024876
H        -2.46579017     2.52066706    -0.29796982     0.00218896    -0.00011800    -0.00040102
N        -0.56826429     1.90028118     0.20292126     0.00007837     0.00016321     0.00022572
H        -0.24026597     2.87475610     0.16481513    -0.00053105    -0.00102824     0.00009039
H         0.15159360     1.28284676     0.58913565    -0.00198769     0.00038180    -0.00070810
    14
  Step:     6            Position(A)                                  Velocity(au)
C        -6.05999425    -0.62675498    -0.09851000    -0.00015889    -0.00000743    -0.00008833
C        -4.69884372    -0.76572184     0.11356801     0.00015102     0.00003822     0.00008908
H        -6.55076163     0.29771558    -0.45968188    -0.00012120    -0.00006043     0.00043069
H        -6.62791154    -1.53398066    -0.17392954    -0.00006974     0.00092891     0.00016268
H        -4.34147608    -1.75579382     0.29898566    -0.00021929    -0.00086374    -0.00070209
C        -3.86302081     0.33886714     0.00910314    -0.00034516    -0.00006699     0.00009392
C        -2.45478300     0.39278349     0.16078909     0.00065567     0.00031159     0.00002642
H        -4.35598829     1.27041336    -0.22510068    -0.00057930     0.00008079     0.00023672
H        -2.03918828    -0.48633264     0.53206565     0.00045925     0.00118453    -0.00080780
C        -1.85722307     1.64660154    -0.03871062    -0.00034515    -0.00051782    -0.00023777
H        -2.44173670     2.51903657    -0.30254462     0.00216945    -0.00015519    -0.00044657
N        -0.56719951     1.90220514     0.20541805     0.00010594     0.00018650     0.00022765
H        -0.24631091     2.86284789     0.16570712    -0.00054929    -0.00107977     0.00007035
H         0.12902615     1.28671002     0.58111110    -0.00205547     0.00026213    -0.00071709
    14
  Step:     7            Position(A)                                  Velocity(au)
C        -6.06187921    -0.62681375    -0.09958941    -0.00018313    -0.00000137    -0.00010802
C        -4.69710329    -0.76523176     0.11454192     0.00016621     0.00004845     0.00008880
H        -6.55158441     0.29664500    -0.45438361    -0.00003287    -0.00012565     0.00053342
H        -6.62949988    -1.52420577    -0.17184146    -0.00023725     0.00082636     0.00021581
H        -4.34317404    -1.76596937     0.29161148    -0.00009757    -0.00096674    -0.00064916
C        -3.86719336     0.33809525     0.01007583    -0.00041324    -0.00007307     0.00008438
C        -2.44741234     0.39643886     0.16104341     0.00068322     0.00035584     0.00001853
H        -4.36254935     1.27189966    -0.22247906    -0.00061407     0.00018119     0.00024562
H        -2.03222923    -0.47485705     0.52398080     0.00083270     0.00087186    -0.00065281
C        -1.86100968     1.64078211    -0.04124616    -0.00033854    -0.00054184    -0.00022516
H        -2.41832935     2.51727202    -0.30773930     0.00207220    -0.00014245    -0.00051413
N        -0.56594662     1.90436126     0.20790153     0.00011270     0.00020533     0.00022328
H        -0.25228266     2.85113396     0.16635411    -0.00051525    -0.00098636     0.00004534
H         0.10662630     1.28858136     0.57344788    -0.00195547     0.00001452    -0.00064094
    14
  Step:     8            Position(A)                                  Velocity(au)
C        -6.06400051    -0.62678492    -0.10087318    -0.00020189     0.00000760    -0.00012550
C        -4.69520761    -0.76466186     0.11551061     0.00017875     0.00005207     0.00008811
H        -6.55148080     0.29496667    -0.44801237     0.00004559    -0.00016728     0.00062495
H        -6.63310192    -1.51590246    -0.16920827    -0.00043345     0.00066686     0.00026290
H        -4.34361065    -1.77694317     0.28478413     0.00000988    -0.00100606    -0.00060247
C        -3.87206121     0.33726859     0.01094908    -0.00047121    -0.00007635     0.00007577
C        -2.43983629     0.40056821     0.16119439     0.00069328     0.00039512     0.00000860
H        -4.36942223     1.27437720    -0.21972730    -0.00063553     0.00025967     0.00026062
H        -2.02097128    -0.46725911     0.51778428     0.00123146     0.00050082    -0.00047365
C        -1.86462922     1.63474765    -0.04363646    -0.00031504    -0.00055577    -0.00021164
H        -2.39640336     2.51592021    -0.31379226     0.00190291    -0.00008359    -0.00060208
N        -0.56473390     1.90669720     0.21030266     0.00009997     0.00021894     0.00021314
H        -0.25758305     2.84126929     0.16669900    -0.00042749    -0.00074544     0.00001526
H         0.08624660     1.28702758     0.56708926    -0.00169895    -0.00035449    -0.00048520
    14
  Step:     9            Position(A)                                  Velocity(au)
C        -6.06629591    -0.62664754    -0.10233486    -0.00021507     0.00001726    -0.00014043
C        -4.69319285    -0.76409255     0.11646952     0.00018742     0.00004800     0.00008695
H        -6.55058697     0.29298550    -0.44071153     0.00010941    -0.00017750     0.00070193
H        -6.63898237    -1.50961693    -0.16608993    -0.00064707     0.00046799     0.00030528
H        -4.34295798    -1.78797883     0.27843132     0.00010126    -0.00097796    -0.00056210
C        -3.87750191     0.33642505     0.01173336    -0.00051737    -0.00007570     0.00006812
C        -2.43224559     0.40508292     0.16123146     0.00068666     0.00042302    -0.00000112
H        -4.37645279     1.27758043    -0.21677750    -0.00064263     0.00031260     0.00028173
H        -2.00528862    -0.46390068     0.51361877     0.00162578     0.00012570    -0.00029356
C        -1.86790176     1.62862359    -0.04587628    -0.00027596    -0.00055677    -0.00019818
H        -2.37669957     2.51544342    -0.32091105     0.00167271     0.00000975    -0.00070633
N        -0.56375962     1.90915103     0.21256432     0.00007192     0.00022636     0.00019887
H        -0.26163480     2.83482613     0.16668792    -0.00029200    -0.00037717    -0.00001901
H         0.06945849     1.28082620     0.56283320    -0.00132622    -0.00081080    -0.00027125
    14
  Step:    10            Position(A)                                  Velocity(au)
C        -6.06870565    -0.62640724    -0.10394535    -0.00022319     0.00002513    -0.00015266
C        -4.69110742    -0.76361187     0.11741280     0.00019125     0.00003588     0.00008518
H        -6.54908716     0.29108352    -0.43265622     0.00015486    -0.00015050     0.00076205
H        -6.64725787    -1.50566434    -0.16252976    -0.00086310     0.00025298     0.00034450
H        -4.34139546    -1.79833787     0.27248716     0.00017676    -0.00088519    -0.00052709
C        -3.88337974     0.33561260     0.01243943    -0.00055090    -0.00007041     0.00006147
C        -2.42481430     0.40982256     0.16116993     0.00066524     0.00043347    -0.00000841
H        -4.38348097     1.28121598    -0.21356388    -0.00063533     0.00033855     0.00030859
H        -1.98540430    -0.46450910     0.51136212     0.00198483    -0.00019872    -0.00013488
C        -1.87066627     1.62256730    -0.04797195    -0.00022331    -0.00054199    -0.00018587
H        -2.35980968     2.51613340    -0.32924463     0.00139673     0.00011917    -0.00082048
N        -0.56316055     1.91164919     0.21465336     0.00003514     0.00022661     0.00018301
H        -0.26397121     2.83301802     0.16628312    -0.00012270     0.00007402    -0.00005535
H         0.05723293     1.26928980     0.56115518    -0.00090105    -0.00129417    -0.00003376
    14
  Step:    11            Position(A)                                  Velocity(au)
C        -6.07117871    -0.62609775    -0.10567457    -0.00022723     0.00002878    -0.00016215
C        -4.68900898    -0.76330759     0.11833292     0.00018951     0.00001604     0.00008263
H        -6.54719910     0.28969311    -0.42404018     0.00017980    -0.00008339     0.00080432
H        -6.65786441    -1.50408241    -0.15855331    -0.00106482     0.00004725     0.00038200
H        -4.33909107    -1.80734404     0.26690032     0.00023800    -0.00073568    -0.00049590
C        -3.88955384     0.33488470     0.01307807    -0.00057161    -0.00006018     0.00005580
C        -2.41769229     0.41456594     0.16104753     0.00063129     0.00042198    -0.00001157
H        -4.39035180     1.28498680    -0.21002646    -0.00061454     0.00033819     0.00034045
H        -1.96186663    -0.46824813     0.51066795     0.00228262    -0.00042967    -0.00001429
C        -1.87278720     1.61676647    -0.04994259    -0.00015959    -0.00050899    -0.00017588
H        -2.34614350     2.51805057    -0.33886068     0.00109192     0.00022269    -0.00093660
N        -0.56299088     1.91410847     0.21656794    -0.00000277     0.00021920     0.00016833
H        -0.26431920     2.83644551     0.16547711     0.00006045     0.00054528    -0.00009049
H         0.04974635     1.25251378     0.56209453    -0.00049487    -0.00173087     0.00018769
    14
  Step:    12            Position(A)                                  Velocity(au)
C        -6.07367675    -0.62577762    -0.10749280    -0.00022840     0.00002630    -0.00016900
C        -4.68696152    -0.76326105     0.11922042     0.00018177    -0.00001073     0.00007913
H        -6.54515373     0.28925925    -0.41506014     0.00018414     0.00002285     0.00082928
H        -6.67055283    -1.50463074    -0.15417273    -0.00123646    -0.00012588     0.00041866
H        -4.33618866    -1.81443228     0.26163839     0.00028750    -0.00054095    -0.00046678
C        -3.89588472     0.33429604     0.01366009    -0.00057985    -0.00004509     0.00005112
C        -2.41100364     0.41905428     0.16091692     0.00058708     0.00038644    -0.00000965
H        -4.39692513     1.28861449    -0.20611584    -0.00058195     0.00031410     0.00037618
H        -1.93546770    -0.47390901     0.51104955     0.00250195    -0.00054390     0.00005982
C        -1.87415761     1.61143213    -0.05181959    -0.00008742    -0.00045621    -0.00016920
H        -2.33592180     2.52100528    -0.34973459     0.00077485     0.00029881    -0.00104638
N        -0.56322122     1.91644464     0.21833587    -0.00003502     0.00020463     0.00015712
H        -0.26264879     2.84494706     0.16430347     0.00023532     0.00096782    -0.00012058
H         0.04640660     1.23142368     0.56526123    -0.00016761    -0.00205333     0.00035942
    14
  Step:    13            Position(A)                                  Velocity(au)
C        -6.07617533    -0.62552246    -0.10937178    -0.00022795     0.00001662    -0.00017338
C        -4.68503240    -0.76354232     0.12006401     0.00016786    -0.00004320     0.00007452
H        -6.54317075     0.29019303    -0.40589805     0.00017016     0.00016270     0.00083908
H        -6.68491428    -1.50683624    -0.14939423    -0.00136558    -0.00024861     0.00045466
H        -4.33280144    -1.81917839     0.25668851     0.00032819    -0.00031466    -0.00043803
C        -3.90223921     0.33389831     0.01419639    -0.00057637    -0.00002559     0.00004745
C        -2.40484872     0.42302015     0.16083636     0.00053467     0.00032732    -0.00000254
H        -4.40308308     1.29185825    -0.20179670    -0.00053986     0.00027040     0.00041441
H        -1.90713163    -0.48014702     0.51197663     0.00263549    -0.00053814     0.00008703
C        -1.87469958     1.60678599    -0.05364413    -0.00000940    -0.00038344    -0.00016655
H        -2.32919213     2.52458769    -0.36175227     0.00045998     0.00033048    -0.00114233
N        -0.56375696     1.91858518     0.22000517    -0.00005694     0.00018446     0.00015064
H        -0.25917103     2.85761837     0.16283918     0.00038228     0.00128201    -0.00014201
H         0.04607955     1.20759318     0.56995751     0.00004545    -0.00221699     0.00046130
    14
  Step:    14            Position(A)                                  Velocity(au)
C        -6.07866349    -0.62541395    -0.11128585    -0.00022699    -0.00000026    -0.00017557
C        -4.68328919    -0.76420616     0.12085077     0.00014787    -0.00007985     0.00006867
H        -6.54143112     0.29281869    -0.39670361     0.00014253     0.00032597     0.00083735
H        -6.70042761    -1.51006963    -0.14422614    -0.00144460    -0.00031076     0.00048948
H        -4.32900889    -1.82131607     0.25205563     0.00036322    -0.00007168    -0.00040806
C        -3.90849388     0.33373615     0.01469819    -0.00056219    -0.00000249     0.00004484
C        -2.39930663     0.42621494     0.16086136     0.00047598     0.00024732     0.00000925
H        -4.40873564     1.29452998    -0.19704979    -0.00049094     0.00021240     0.00045356
H        -1.87781141    -0.48568187     0.51295356     0.00268404    -0.00042424     0.00007263
C        -1.87436318     1.60304369    -0.05546319     0.00007197    -0.00029206    -0.00016824
H        -2.32585881     2.52823518    -0.37472516     0.00015884     0.00030763    -0.00121868
N        -0.56446697     1.92047996     0.22163135    -0.00006651     0.00016091     0.00014907
H        -0.25428575     2.87299349     0.16119676     0.00048785     0.00144898    -0.00015221
H         0.04740090     1.18292285     0.57535305     0.00013586    -0.00220688     0.00048851
    14
  Step:    15            Position(A)                                  Velocity(au)
C        -6.08114121    -0.62552818    -0.11321270    -0.00022642    -0.00002340    -0.00017589
C        -4.68179748    -0.76528918     0.12156623     0.00012209    -0.00011889     0.00006143
H        -6.54005263     0.29732428    -0.38757945     0.00010779     0.00049858     0.00082864
H        -6.71651774    -1.51363473    -0.13868597    -0.00147114    -0.00030992     0.00052212
H        -4.32485540    -1.82074649     0.24776136     0.00039582     0.00017250    -0.00037551
C        -3.91453813     0.33384392     0.01517731    -0.00053854     0.00002315     0.00004334
C        -2.39443565     0.42843067     0.16103882     0.00041293     0.00015087     0.00002476
H        -4.41382344     1.29650485    -0.19187413    -0.00043808     0.00014619     0.00049202
H        -1.84841302    -0.48942811     0.51356552     0.00265398    -0.00022283     0.00002496
C        -1.87312515     1.60039655    -0.05732478     0.00015427    -0.00018508    -0.00017416
H        -2.32571715     2.53131778    -0.38841326    -0.00012005     0.00022790    -0.00127187
N        -0.56521206     1.92210536     0.22326633    -0.00006393     0.00013627     0.00015178
H        -0.24849847     2.88931752     0.15950921     0.00054633     0.00145489    -0.00015011
H         0.04905177     1.15931352     0.58064462     0.00011566    -0.00203371     0.00044821
    14
  Step:    16            Position(A)                                  Velocity(au)
C        -6.08361696    -0.62592578    -0.11513376    -0.00022689    -0.00005109    -0.00017468
C        -4.68061828    -0.76680713     0.12219461     0.00009101    -0.00015834     0.00005269
H        -6.53907303     0.30372614    -0.37857542     0.00007348     0.00066424     0.00081772
H        -6.73261171    -1.51684968    -0.13280381    -0.00144737    -0.00025012     0.00055141
H        -4.32034957    -1.81754238     0.24384070     0.00042930     0.00040221    -0.00033923
C        -3.92027557     0.33424264     0.01564641    -0.00050679     0.00005000     0.00004305
C        -2.39027294     0.42951546     0.16140314     0.00034750     0.00004348     0.00004277
H        -4.41831938     1.29772824    -0.18628600    -0.00038418     0.00007832     0.00052821
H        -1.81975050    -0.49055673     0.51349964     0.00255460     0.00004213    -0.00004663
C        -1.87098829     1.59899472    -0.05927328     0.00023515    -0.00006681    -0.00018380
H        -2.32848513     2.53322087    -0.40254985    -0.00037076     0.00009553    -0.00130046
N        -0.56586563     1.92346121     0.22495182    -0.00005089     0.00011239     0.00015773
H        -0.24233384     2.90482204     0.15791281     0.00055910     0.00130815    -0.00013608
H         0.04993116     1.13843156     0.58515846     0.00000805    -0.00172449     0.00035427
    14
  Step:    17            Position(A)                                  Velocity(au)
C        -6.08610478    -0.62664588    -0.11703414    -0.00022873    -0.00008127    -0.00017225
C        -4.67980642    -0.76875308     0.12271893     0.00005525    -0.00019607     0.00004235
H        -6.53844511     0.31185590    -0.36969019     0.00004699     0.00080665     0.00080880
H        -6.74818175    -1.51910650    -0.12662277    -0.00137889    -0.00014000     0.00057625
H        -4.31546362    -1.81194733     0.24033996     0.00046698     0.00060214    -0.00029832
C        -3.92562511     0.33493778     0.01611919    -0.00046833     0.00007659     0.00004407
C        -2.38683332     0.42938188     0.16197449     0.00028175    -0.00006882     0.00006194
H        -4.42222820     1.29821820    -0.18031845    -0.00033209     0.00001534     0.00056070
H        -1.79252630    -0.48850653     0.51254536     0.00239641     0.00034668    -0.00013314
C        -1.86798076     1.59893496    -0.06134566     0.00031234     0.00005754    -0.00019636
H        -2.33382823     2.53340774    -0.41686322    -0.00058939    -0.00008038    -0.00130478
N        -0.56632528     1.92456406     0.22671694    -0.00002978     0.00009046     0.00016577
H        -0.23626717     2.91793577     0.15653219     0.00053267     0.00103253    -0.00011166
H         0.04922790     1.12158704     0.58839495    -0.00016019    -0.00131342     0.00022286
    14
  Step:    18            Position(A)                                  Velocity(au)
C        -6.08862094    -0.62770371    -0.11890196    -0.00023203    -0.00011181    -0.00016882
C        -4.67940948    -0.77109656     0.12312115     0.00001551    -0.00022997     0.00003033
H        -6.53804508     0.32137318    -0.36088133     0.00003442     0.00091173     0.00080493
H        -6.76277752    -1.51991248    -0.12019728    -0.00127363     0.00000893     0.00059574
H        -4.31013348    -1.80436945     0.23731433     0.00051211     0.00075788    -0.00025207
C        -3.93052113     0.33591812     0.01661049    -0.00042457     0.00010138     0.00004649
C        -2.38410913     0.42800994     0.16275826     0.00021767    -0.00017994     0.00008095
H        -4.42558448     1.29806378    -0.17401962    -0.00028434    -0.00003654     0.00058822
H        -1.76732442    -0.48297242     0.51058702     0.00219035     0.00066830    -0.00022631
C        -1.86415522     1.60025353    -0.06356893     0.00038366     0.00018237    -0.00021087
H        -2.34137906     2.53146236    -0.43109432    -0.00077364    -0.00028771    -0.00128661
N        -0.56651719     1.92544023     0.22857841    -0.00000325     0.00007115     0.00017484
H        -0.23068075     2.92741058     0.15547013     0.00047660     0.00066025    -0.00007911
H         0.04642666     1.10969800     0.59003393    -0.00036297    -0.00083604     0.00006987
    14
  Step:    19            Position(A)                                  Velocity(au)
C        -6.09118086    -0.62909187    -0.12072740    -0.00023655    -0.00014080    -0.00016454
C        -4.67946714    -0.77378401     0.12338243    -0.00002749    -0.00025802     0.00001656
H        -6.53769209     0.33180175    -0.35208091     0.00003981     0.00096942     0.00080763
H        -6.77604489    -1.51891111    -0.11358978    -0.00114087     0.00018384     0.00060933
H        -4.30426023    -1.79536720     0.23482539     0.00056764     0.00085696    -0.00020005
C        -3.93491330     0.33715562     0.01713627    -0.00037688     0.00012289     0.00005041
C        -2.38207134     0.42544542     0.16374548     0.00015708    -0.00028411     0.00009853
H        -4.42844870     1.29741878    -0.16745003    -0.00024303    -0.00007192     0.00060980
H        -1.74460831    -0.47388627     0.50759443     0.00194761     0.00098605    -0.00031867
C        -1.85958744     1.60292469    -0.06595878     0.00044711     0.00030218    -0.00022630
H        -2.35075311     2.52711362    -0.44501025    -0.00092256    -0.00051278    -0.00124877
N        -0.56639635     1.92612068     0.23054195     0.00002614     0.00005477     0.00018399
H        -0.22584072     2.93237996     0.15480159     0.00040192     0.00022690    -0.00004111
H         0.04128725     1.10329700     0.58992344    -0.00057611    -0.00032696    -0.00008989
    14
  Step:    20            Position(A)                                  Velocity(au)
C        -6.09379599    -0.63078393    -0.12250155    -0.00024182    -0.00016670    -0.00015944
C        -4.68001086    -0.77674121     0.12348342    -0.00007297    -0.00027857     0.00000103
H        -6.53717422     0.34258099    -0.34321297     0.00006477     0.00097451     0.00081693
H        -6.78773619    -1.51589060    -0.10686699    -0.00099060     0.00037139     0.00061680
H        -4.29771532    -1.78562177     0.23293786     0.00063570     0.00089038    -0.00014219
C        -3.93876611     0.33860657     0.01771335    -0.00032658     0.00013980     0.00005589
C        -2.38067260     0.42179457     0.16491386     0.00010143    -0.00037618     0.00011354
H        -4.43090123     1.29649042    -0.16067915    -0.00020961    -0.00008667     0.00062482
H        -1.72471682    -0.46140058     0.50361547     0.00167996     0.00128035    -0.00040331
C        -1.85437378     1.60686427    -0.06851958     0.00050096     0.00041197    -0.00024165
H        -2.36156181     2.52024425    -0.45841355    -0.00103628    -0.00074160    -0.00119478
N        -0.56594531     1.92663846     0.23260349     0.00005591     0.00004148     0.00019235