 Fermi distribution function

Calculation with static geometry


********************************************************************************
 iSCC Total electronic   Diff electronic      SCC error    
   10   -0.54323294E+01   -0.26201263E-12    0.19443405E-07
********************************************************************************

 Total charge:     1.00000000

 Atomic gross charges (e)
 Atom           Charge
    1       0.14984200
    2      -0.02830879
    3       0.17764253
    4       0.26534844
    5       0.27917686
    6       0.15629896

Nr. of electrons (up):     12.00000000
Atom populations (up)
 Atom       Population
    1       3.85015800
    2       5.02830879
    3       0.82235747
    4       0.73465156
    5       0.72082314
    6       0.84370104

l-shell populations (up)
 Atom Sh.   l       Population
    1   1   0       1.29524978
    1   2   1       2.55490822
    2   1   0       1.41274179
    2   2   1       3.61556700
    3   1   0       0.82235747
    4   1   0       0.73465156
    5   1   0       0.72082314
    6   1   0       0.84370104

Orbital populations (up)
 Atom Sh.   l   m       Population  Label
    1   1   0   0       1.29524978  s
    1   2   1  -1       0.61887177  p_y
    1   2   1   0       0.88828929  p_z
    1   2   1   1       1.04774716  p_x
    2   1   0   0       1.41274179  s
    2   2   1  -1       1.31844496  p_y
    2   2   1   0       1.13228032  p_z
    2   2   1   1       1.16484173  p_x
    3   1   0   0       0.82235747  s
    4   1   0   0       0.73465156  s
    5   1   0   0       0.72082314  s
    6   1   0   0       0.84370104  s

Fermi level:                        -0.4918849624 H          -13.3849 eV
Band energy:                        -8.9850496853 H         -244.4956 eV
TS:                                  0.0000000000 H            0.0000 eV
Band free energy (E-TS):            -8.9850496853 H         -244.4956 eV
Extrapolated E(0K):                 -8.9850496853 H         -244.4956 eV
Input / Output electrons (q):     12.0000000000     12.0000000000

Energy H0:                          -5.5674631025 H         -151.4984 eV
Energy SCC:                          0.1351337194 H            3.6772 eV
Total Electronic energy:            -5.4323293831 H         -147.8212 eV
Repulsive energy:                    0.2055960641 H            5.5946 eV
Total energy:                       -5.2267333190 H         -142.2267 eV
Extrapolated to 0:                  -5.2267333190 H         -142.2267 eV
Total Mermin free energy:           -5.2267333190 H         -142.2267 eV
Force related energy:               -5.2267333190 H         -142.2267 eV

SCC converged

Excitation Energy:                   0.1500564479 H            4.0832 eV

Total Forces
    1      0.010408218720      0.000587849915     -0.025238793225
    2      0.011103000522     -0.008747805493      0.008452473090
    3     -0.007773160003     -0.002354329733      0.004306457472
    4     -0.010981307728      0.010420945780      0.001722849409
    5     -0.002437937720     -0.007022742023      0.006980776633
    6     -0.000318813791      0.007116081553      0.003776236620

Maximal derivative component:        0.252388E-01 au


