     6
  Step:     0            Position(A)                                  Velocity(au)
C        -0.03597327     0.01126535     0.01349356     0.00016387    -0.00014021    -0.00040257
N        -0.03182358    -0.04808947     1.30310689    -0.00006978     0.00007875     0.00040257
H         0.89743103     0.00788473    -0.53898276    -0.00095524     0.00072996     0.00036245
H         0.78422874    -0.13731647     1.83866120     0.00004632    -0.00046075    -0.00066791
H        -1.02484532    -0.05045629     1.81942416     0.00039121    -0.00008377    -0.00070919
H        -0.99886151     0.04413939    -0.49628325    -0.00046541     0.00039097     0.00021748
     6
  Step:     1            Position(A)                                  Velocity(au)
C        -0.03508156     0.01053078     0.01094079     0.00016072    -0.00012889    -0.00052828
N        -0.03231103    -0.04765395     1.30560928    -0.00010820     0.00008031     0.00050999
H         0.89236947     0.01177867    -0.53708214    -0.00088444     0.00069584     0.00032493
H         0.78518212    -0.14001449     1.83547473     0.00030499    -0.00052351    -0.00049294
H        -1.02195323    -0.05100400     1.81525969     0.00066059    -0.00011468    -0.00080775
H        -1.00149792     0.04619220    -0.49518785    -0.00049291     0.00036224     0.00018390
     6
  Step:     2            Position(A)                                  Velocity(au)
C        -0.03421461     0.00985497     0.00771294     0.00015456    -0.00011852    -0.00064736
N        -0.03300748    -0.04721070     1.30868730    -0.00014539     0.00008141     0.00061132
H         0.88775321     0.01549884    -0.53542731    -0.00079052     0.00066521     0.00027208
H         0.78756602    -0.14304491     1.83326728     0.00056396    -0.00058075    -0.00031249
H        -1.01761693    -0.05171119     1.81058554     0.00091438    -0.00014182    -0.00089240
H        -1.00425506     0.04810310    -0.49427101    -0.00050923     0.00033828     0.00015181
     6
  Step:     3            Position(A)                                  Velocity(au)
C        -0.03338873     0.00923268     0.00385029     0.00014533    -0.00010898    -0.00075715
N        -0.03390347    -0.04676225     1.31230495    -0.00017997     0.00008197     0.00070445
H         0.88371098     0.01906459    -0.53410209    -0.00067266     0.00063728     0.00020417
H         0.79135906    -0.14637538     1.83205202     0.00081281    -0.00063094    -0.00013319
H        -1.01193812    -0.05255735     1.80548537     0.00114403    -0.00016517    -0.00095890
H        -1.00707550     0.04989736    -0.49352513    -0.00051520     0.00031830     0.00012091
     6
  Step:     4            Position(A)                                  Velocity(au)
C        -0.03262032     0.00865947    -0.00059290     0.00013312    -0.00010013    -0.00085485
N        -0.03498170    -0.04631146     1.31641504    -0.00021038     0.00008193     0.00078711
H         0.88037427     0.02248973    -0.53318760    -0.00053138     0.00061095     0.00012228
H         0.79648238    -0.14996621     1.83180615     0.00104039    -0.00067260     0.00003811
H        -1.00506712    -0.05352313     1.80006654     0.00133983    -0.00018499    -0.00100273
H        -1.00990676     0.05159480    -0.49294468    -0.00051168     0.00030125     0.00009083
     6
  Step:     5            Position(A)                                  Velocity(au)
C        -0.03192527     0.00813184    -0.00554794     0.00011811    -0.00009182    -0.00093779
N        -0.03621635    -0.04586149     1.32095846    -0.00023504     0.00008123     0.00085704
H         0.87786896     0.02578140    -0.53275777    -0.00036907     0.00058507     0.00002842
H         0.80279709    -0.15376997     1.83247105     0.00123571    -0.00070427     0.00019489
H        -0.99720808    -0.05459117     1.79446136     0.00149163    -0.00020162    -0.00101948
H        -1.01270087     0.05320924    -0.49252653    -0.00049954     0.00028610     0.00006120
     6
  Step:     6            Position(A)                                  Velocity(au)
C        -0.03131816     0.00764717    -0.01093236     0.00010070    -0.00008392    -0.00100370
N        -0.03757310    -0.04541587     1.32586423    -0.00025250     0.00007982     0.00091224
H         0.87630514     0.02894040    -0.53287425    -0.00019007     0.00055869    -0.00007443
H         0.81010656    -0.15773105     1.83395485     0.00138909    -0.00072459     0.00033143
H        -0.98862134    -0.05574611     1.78882645     0.00158954    -0.00021542    -0.00100525
H        -1.01541438     0.05474920    -0.49226993    -0.00047980     0.00027205     0.00003168
     6
  Step:     7            Position(A)                                  Velocity(au)
C        -0.03081121     0.00720345    -0.01665231     0.00008149    -0.00007636    -0.00105117
N        -0.03900984    -0.04497841     1.33105092    -0.00026163     0.00007769     0.00095135
H         0.87576615     0.03196241    -0.53358120    -0.00000059     0.00053118    -0.00018246
H         0.81816521    -0.16178638     1.83613775     0.00149348    -0.00073264     0.00044346
H        -0.97962236    -0.05697450     1.78333986     0.00162547    -0.00022679    -0.00095751
H        -1.01800914     0.05621906    -0.49217609    -0.00045374     0.00025853     0.00000202
     6
  Step:     8            Position(A)                                  Velocity(au)
C        -0.03041314     0.00679909    -0.02260708     0.00006124    -0.00006913    -0.00107999
N        -0.04047890    -0.04455301     1.33643033    -0.00026190     0.00007488     0.00097405
H         0.87629862     0.03483992    -0.53490074     0.00019190     0.00050236    -0.00029136
H         0.82669382    -0.16586804     1.83888009     0.00154557    -0.00072827     0.00052864
H        -0.97056811    -0.05826493     1.77819193     0.00159511    -0.00023620    -0.00087590
H        -1.02045378     0.05762055    -0.49224749    -0.00042293     0.00024528    -0.00002789
     6
  Step:     9            Position(A)                                  Velocity(au)
C        -0.03012833     0.00643254    -0.02869572     0.00004080    -0.00006227    -0.00109146
N        -0.04193039    -0.04414336     1.34191296    -0.00025345     0.00007152     0.00098130
H         0.87790607     0.03756447    -0.53683029     0.00037960     0.00047251    -0.00039681
H         0.83540053    -0.16990765     1.84203278     0.00154647    -0.00071236     0.00058685
H        -0.96183460    -0.05960844     1.77357232     0.00149883    -0.00024427    -0.00076252
H        -1.02272538     0.05895430    -0.49248707    -0.00038924     0.00023234    -0.00005807
     6
  Step:    10            Position(A)                                  Velocity(au)
C        -0.02995638     0.00610202    -0.03482475     0.00002102    -0.00005586    -0.00108837
N        -0.04331594    -0.04375246     1.34741485    -0.00023709     0.00006778     0.00097537
H         0.88054781     0.04012909    -0.53934251     0.00055561     0.00044226    -0.00049505
H         0.84400479    -0.17384205     1.84544922     0.00150141    -0.00068675     0.00062017
H        -0.95379043    -0.06099929     1.76965644     0.00134177    -0.00025181    -0.00062158
H        -1.02481093     0.06022132    -0.49289750    -0.00035468     0.00021998    -0.00008851
     6
  Step:    11            Position(A)                                  Velocity(au)
C        -0.02989233     0.00580535    -0.04091636     0.00000256    -0.00004997    -0.00107462
N        -0.04459250    -0.04338229     1.35286480    -0.00021416     0.00006390     0.00095958
H         0.88414464     0.04253034    -0.54238892     0.00071498     0.00041248    -0.00058369
H         0.85225903    -0.17761873     1.84899630     0.00141855    -0.00065399     0.00063232
H        -0.94676865    -0.06243582     1.76659292     0.00113297    -0.00025971    -0.00045873
H        -1.02670790     0.06142436    -0.49348095    -0.00032113     0.00020864    -0.00011925
     6
  Step:    12            Position(A)                                  Velocity(au)
C        -0.02992755     0.00553985    -0.04691443    -0.00001410    -0.00004467    -0.00105449
N        -0.04572524    -0.04303353     1.35821026    -0.00018622     0.00006011     0.00093764
H         0.88859150     0.04476960    -0.54590916     0.00085518     0.00038400    -0.00066187
H         0.85996371    -0.18119961     1.85256295     0.00130708    -0.00061681     0.00062790
H        -0.94104434    -0.06392109     1.76449566     0.00088361    -0.00026891    -0.00027994
H        -1.02842368     0.06256858    -0.49423912    -0.00029012     0.00019875    -0.00015041
     6
  Step:    13            Position(A)                                  Velocity(au)
C        -0.03005102     0.00530250    -0.05278622    -0.00002872    -0.00003998    -0.00103171
N        -0.04668872    -0.04270568     1.36341928    -0.00015480     0.00005656     0.00091285
H         0.89377094     0.04685278    -0.54983928     0.00097543     0.00035732    -0.00072973
H         0.86697211    -0.18456182     1.85606422     0.00117537    -0.00057748     0.00061139
H        -0.93682230    -0.06546282     1.76344181     0.00060527    -0.00028017    -0.00009073
H        -1.02997364     0.06366163    -0.49517408    -0.00026272     0.00019065    -0.00018231
     6
  Step:    14            Position(A)                                  Velocity(au)
C        -0.03025060     0.00509017    -0.05851923    -0.00004121    -0.00003585    -0.00100879
N        -0.04746648    -0.04239728     1.36847814    -0.00012118     0.00005337     0.00088752
H         0.89956333     0.04878873    -0.55411729     0.00107576     0.00033252    -0.00078771
H         0.87318445    -0.18769520     1.85943996     0.00102983    -0.00053752     0.00058649
H        -0.93423614    -0.06707248     1.76347506     0.00030891    -0.00029393     0.00010406
H        -1.03137876     0.06471309    -0.49628981    -0.00023945     0.00018449    -0.00021534
     6
  Step:    15            Position(A)                                  Velocity(au)
C        -0.03051383     0.00489995    -0.06411459    -0.00005156    -0.00003220    -0.00098694
N        -0.04804959    -0.04210640     1.37338585    -0.00008645     0.00005053     0.00086284
H         0.90585137     0.05058687    -0.55868503     0.00115613     0.00030930    -0.00083607
H         0.87853672    -0.19059804     1.86265036     0.00087491    -0.00049770     0.00055595
H        -0.93335333    -0.06876358     1.76461033     0.00000500    -0.00031027     0.00029997
H        -1.03266260     0.06573335    -0.49759232    -0.00022041     0.00018020    -0.00024977
     6
  Step:    16            Position(A)                                  Velocity(au)
C        -0.03082838     0.00472930    -0.06957977    -0.00005975    -0.00002895    -0.00096631
N        -0.04843533    -0.04183101     1.37814793    -0.00005157     0.00004802     0.00083912
H         0.91251998     0.05225508    -0.56348699     0.00121612     0.00028712    -0.00087464
H         0.88298948    -0.19327285     1.86567039     0.00071380    -0.00045823     0.00052168
H        -0.93418014    -0.07054966     1.76683680    -0.00029594    -0.00032889     0.00049244
H        -1.03384889     0.06673260    -0.49908895    -0.00020539     0.00017762    -0.00028563
     6
  Step:    17            Position(A)                                  Velocity(au)
C        -0.03118212     0.00457620    -0.07492284    -0.00006579    -0.00002598    -0.00094643
N        -0.04862644    -0.04156930     1.38277152    -0.00001750     0.00004578     0.00081617
H         0.91945377     0.05379839    -0.56846797     0.00125503     0.00026537    -0.00090302
H         0.88652065    -0.19572343     1.86848538     0.00054918    -0.00041913     0.00048515
H        -0.93666348    -0.07244230     1.77011833    -0.00058307    -0.00034923     0.00067660
H        -1.03495990     0.06772005    -0.50078712    -0.00019402     0.00017649    -0.00032274
     6
  Step:    18            Position(A)                                  Velocity(au)
C        -0.03156312     0.00443912    -0.08014917    -0.00006970    -0.00002324    -0.00092667
N        -0.04863078    -0.04131979     1.38726259     0.00001482     0.00004374     0.00079364
H         0.92653559     0.05521864    -0.57357156     0.00127231     0.00024351    -0.00092080
H         0.88912251    -0.19795357     1.87108833     0.00038377    -0.00038040     0.00044761
H        -0.94069159    -0.07444971     1.77439277    -0.00084561    -0.00037054     0.00084747
H        -1.03601557     0.06870357    -0.50269316    -0.00018585     0.00017656    -0.00036072
     6
  Step:    19            Position(A)                                  Velocity(au)
C        -0.03195970     0.00431694    -0.08526036    -0.00007153    -0.00002065    -0.00090638
N        -0.04846116    -0.04108137     1.39162502     0.00004447     0.00004185     0.00077119
H         0.93364717     0.05651486    -0.57874010     0.00126789     0.00022112    -0.00092780
H         0.89080178    -0.19996702     1.87347879     0.00022049    -0.00034214     0.00041029
H        -0.94609671    -0.07657592     1.77957241    -0.00107365    -0.00039204     0.00100040
H        -1.03703313     0.06968966    -0.50481122    -0.00018040     0.00017760    -0.00039910
     6
  Step:    20            Position(A)                                  Velocity(au)
C        -0.03236064     0.00420887    -0.09025443    -0.00007138    -0.00001817    -0.00088512
N        -0.04813496    -0.04085322     1.39586059     0.00007066     0.00004006     0.00074859
H         0.94067129     0.05768393    -0.58391560     0.00124226     0.00019794    -0.00092412
H         0.89158078    -0.20176807     1.87566264     0.00006250    -0.00030458     0.00037439
H        -0.95266173    -0.07882057     1.78554631    -0.00125900    -0.00041296     0.00113147
H        -1.03802685     0.07068360    -0.50714273    -0.00017717     0.00017942    -0.00043732
     6
  Step:    21            Position(A)                                  Velocity(au)
C        -0.03275538     0.00411435    -0.09512678    -0.00006939    -0.00001578    -0.00086260
N        -0.04767351    -0.04063477     1.39996959     0.00009273     0.00003836     0.00072573
H         0.94749471     0.05872133    -0.58904132     0.00119662     0.00017383    -0.00091026
H         0.89149849    -0.20336219     1.87765217    -0.00008700    -0.00026807     0.00034117
H        -0.96013079    -0.08117917     1.79218490    -0.00139584    -0.00043263     0.00123782
H        -1.03900801     0.07168965    -0.50968607    -0.00017562     0.00018188    -0.00047484
     6
  Step:    22            Position(A)                                  Velocity(au)
C        -0.03313426     0.00403293    -0.09987117    -0.00006576    -0.00001346    -0.00083876
N        -0.04710112    -0.04042559     1.40395137     0.00011025     0.00003672     0.00070257
H         0.95401185     0.05962185    -0.59406368     0.00113279     0.00014874    -0.00088706
H         0.89061088    -0.20475663     1.87946614    -0.00022491    -0.00023301     0.00031181
H        -0.96822327    -0.08364376     1.79934617    -0.00148116    -0.00045055     0.00131792
H        -1.03998477     0.07271135    -0.51243655    -0.00017522     0.00018490    -0.00051116
     6
  Step:    23            Position(A)                                  Velocity(au)
C        -0.03348881     0.00396427    -0.10448090    -0.00006073    -0.00001119    -0.00081368
N        -0.04644395    -0.04022527     1.40780492     0.00012300     0.00003515     0.00067919
H         0.96012796     0.06038013    -0.59893408     0.00105307     0.00012271    -0.00085563
H         0.88899022    -0.20596076     1.88112963    -0.00034843    -0.00019982     0.00028747
H        -0.97664916    -0.08620385     1.80688273    -0.00151478    -0.00046640     0.00137154
H        -1.04096213     0.07375174    -0.51538669    -0.00017542     0.00018843    -0.00054584
     6
  Step:    24            Position(A)                                  Velocity(au)
C        -0.03381187     0.00390805    -0.10894959    -0.00005455    -0.00000899    -0.00078756
N        -0.04572883    -0.04003341     1.41152929     0.00013095     0.00003366     0.00065569
H         0.96576130     0.06099099    -0.60361016     0.00096010     0.00009582    -0.00081728
H         0.88672337    -0.20698611     1.88267355    -0.00045518    -0.00016891     0.00026915
H        -0.98512407    -0.08884751     1.81464885    -0.00149902    -0.00048006     0.00139968
H        -1.04194202     0.07481367    -0.51852667    -0.00017571     0.00019246    -0.00057857
     6
  Step:    25            Position(A)                                  Velocity(au)
C        -0.03409775     0.00386396    -0.11327195    -0.00004750    -0.00000684    -0.00076070
N        -0.04498218    -0.03984952     1.41512394     0.00013430     0.00003228     0.00063220
H         0.97084502     0.06144970    -0.60805688     0.00085670     0.00006814    -0.00077346
H         0.88390934    -0.20784619     1.88413397    -0.00054333    -0.00014059     0.00025769
H        -0.99338181    -0.09156248     1.82250647    -0.00143811    -0.00049161     0.00140423
H        -1.04292343     0.07590009    -0.52184488    -0.00017558     0.00019707    -0.00060912
     6
  Step:    26            Position(A)                                  Velocity(au)
C        -0.03434224     0.00383165    -0.11744423    -0.00003983    -0.00000476    -0.00073344
N        -0.04422917    -0.03967300     1.41858894     0.00013332     0.00003102     0.00060888
H         0.97532795     0.06175195    -0.61224722     0.00074570     0.00003975    -0.00072564
H         0.88065605    -0.20855602     1.88555118    -0.00061168    -0.00011507     0.00025377
H        -1.00118319    -0.09433728     1.83032965    -0.00133755    -0.00050131     0.00138776
H        -1.04390267     0.07701430    -0.52532862    -0.00017459     0.00020235    -0.00063742
     6
  Step:    27            Position(A)                                  Velocity(au)
C        -0.03454265     0.00381078    -0.12146441    -0.00003181    -0.00000275    -0.00070609
N        -0.04349299    -0.03950309     1.42192510     0.00012843     0.00002990     0.00058587
H         0.97917445     0.06189371    -0.61616222     0.00062980     0.00001066    -0.00067525
H         0.87707693    -0.20913147     1.88696852    -0.00065961    -0.00009241     0.00025779
H        -1.00832213    -0.09716208     1.83800770    -0.00120350    -0.00050954     0.00135318
H        -1.04487363     0.07816030    -0.52896477    -0.00017236     0.00020846    -0.00066346
     6
  Step:    28            Position(A)                                  Velocity(au)
C        -0.03469765     0.00380097    -0.12533214    -0.00002368    -0.00000080    -0.00067890
N        -0.04279443    -0.03933893     1.42513391     0.00012008     0.00002896     0.00056327
H         0.98236362     0.06187102    -0.61979065     0.00051148    -0.00001917    -0.00062362
H         0.87328739    -0.20958841     1.88843109    -0.00068709    -0.00007253     0.00026998
H        -1.01462790    -0.10002950     1.84544652    -0.00104231    -0.00051681     0.00130350
H        -1.04582818     0.07934307    -0.53274032    -0.00016856     0.00021563    -0.00068734
     6
  Step:    29            Position(A)                                  Velocity(au)
C        -0.03480719     0.00380179    -0.12904835    -0.00001565     0.00000106    -0.00065204
N        -0.04215163    -0.03917955     1.42821727     0.00010875     0.00002821     0.00054108
H         0.98488811     0.06167953    -0.62312858     0.00039300    -0.00004987    -0.00057197
H         0.86940152    -0.20994172     1.88998442    -0.00069465    -0.00005513     0.00029029
H        -1.01996565    -0.10293526     1.85256897    -0.00086022    -0.00052373     0.00124168
H        -1.04675657     0.08056904    -0.53664299    -0.00016293     0.00022415    -0.00070924
     6
  Step:    30            Position(A)                                  Velocity(au)
C        -0.03487241     0.00381279    -0.13261453    -0.00000790     0.00000283    -0.00062552
N        -0.04157986    -0.03902390     1.43117700     0.00009495     0.00002765     0.00051924
H         0.98675286     0.06131407    -0.62617880     0.00027639    -0.00008164    -0.00052144
H         0.86552910    -0.21020419     1.89167325    -0.00068326    -0.00003972     0.00031850
H        -1.02423534    -0.10587879     1.85931438    -0.00066311    -0.00053101     0.00117050
H        -1.04764789     0.08184651    -0.54066158    -0.00015532     0.00023443    -0.00072940
     6
  Step:    31            Position(A)                                  Velocity(au)
C        -0.03489543     0.00383341    -0.13603213    -0.00000062     0.00000450    -0.00059926
N        -0.04109156    -0.03887087     1.43401449     0.00007917     0.00002729     0.00049764
H         0.98797393     0.06076803    -0.62895029     0.00016353    -0.00011483    -0.00047308
H         0.86177312    -0.21038522     1.89354036    -0.00065429    -0.00002555     0.00035416
H        -1.02736907    -0.10886387     1.86563724    -0.00045633    -0.00053950     0.00109243
H        -1.04849067     0.08318641    -0.54478650    -0.00014567     0.00024704    -0.00074812
     6
  Step:    32            Position(A)                                  Velocity(au)
C        -0.03487936     0.00386300    -0.13930199     0.00000603     0.00000604    -0.00057306
N        -0.04069638    -0.03871936     1.43673048     0.00006189     0.00002713     0.00047611
H         0.98857775     0.06003261    -0.63145815     0.00005624    -0.00014992    -0.00042802
H         0.85822753    -0.21048932     1.89562548    -0.00060948    -0.00001156     0.00039666
H        -1.02932780    -0.11189939     1.87150538    -0.00024467    -0.00055021     0.00100963
H        -1.04927356     0.08460336    -0.54901032    -0.00013412     0.00026278    -0.00076590
     6
  Step:    33            Position(A)                                  Velocity(au)
C        -0.03482814     0.00390074    -0.14242365     0.00001191     0.00000739    -0.00054647
N        -0.04040123    -0.03856831     1.43932474     0.00004360     0.00002715     0.00045434
H         0.98860121     0.05909589    -0.63372412    -0.00004348    -0.00018759    -0.00038758
H         0.85497530    -0.21051412     1.89796443    -0.00055089     0.00000372     0.00044525
H        -1.03009802    -0.11500061     1.87689804    -0.00003242    -0.00056444     0.00092395
H        -1.04998655     0.08611729    -0.55332886    -0.00012107     0.00028285    -0.00078347
     6
  Step:    34            Position(A)                                  Velocity(au)
C        -0.03474664     0.00394542    -0.14539327     0.00001683     0.00000847    -0.00051850
N        -0.04021034    -0.03841669     1.44179479     0.00002478     0.00002737     0.00043164
H         0.98809312     0.05794162    -0.63577841    -0.00013312    -0.00022869    -0.00035372
H         0.85208695    -0.21044781     1.90058850    -0.00048078     0.00002228     0.00049913
H        -1.02968919    -0.11819103     1.88180427     0.00017645    -0.00058390     0.00083698
H        -1.05062308     0.08775623    -0.55774334    -0.00010755     0.00030910    -0.00080220
     6
  Step:    35            Position(A)                                  Velocity(au)
C        -0.03464062     0.00399507    -0.14819950     0.00002065     0.00000904    -0.00048699
N        -0.04012519    -0.03826344     1.44413307     0.00000592     0.00002779     0.00040657
H         0.98711835     0.05654835    -0.63766446    -0.00020893    -0.00027397    -0.00032977
H         0.84961964    -0.21026597     1.90352455    -0.00040153     0.00004650     0.00055757
H        -1.02813241    -0.12150506     1.88622163     0.00037807    -0.00061069     0.00075021
H        -1.05118460     0.08956053    -0.56226501    -0.00009592     0.00034419    -0.00082481
     6
  Step:    36            Position(A)                                  Velocity(au)
C        -0.03451676     0.00404607    -0.15081466     0.00002325     0.00000867    -0.00044767
N        -0.04014448    -0.03810727     1.44632088    -0.00001248     0.00002853     0.00037618
H         0.98576718     0.05489166    -0.63944952    -0.00026505    -0.00032244    -0.00032166
H         0.84761691    -0.20993014     1.90679566    -0.00031563     0.00007782     0.00061987
H        -1.02548033    -0.12498950     1.89015599     0.00056840    -0.00064600     0.00066538
H        -1.05169089     0.09158794    -0.56692555    -0.00009132     0.00039087    -0.00085664
     6
  Step:    37            Position(A)                                  Velocity(au)
C        -0.03438200     0.00409156    -0.15318007     0.00002480     0.00000675    -0.00039485
N        -0.04026404    -0.03794608     1.44831827    -0.00002994     0.00002974     0.00033658
H         0.98416955     0.05296104    -0.64124308    -0.00029509    -0.00036763    -0.00033695
H         0.84610814    -0.20940018     1.91042087    -0.00022606     0.00011215     0.00068452
H        -1.02180873    -0.12869207     1.89362426     0.00074332    -0.00068579     0.00058513
H        -1.05220058     0.09390919    -0.57179553    -0.00010165     0.00044758    -0.00090489
     6
  Step:    38            Position(A)                                  Velocity(au)
C        -0.03424104     0.00412109    -0.15520479     0.00002585     0.00000305    -0.00032690
N        -0.04047736    -0.03777661     1.45006314    -0.00004614     0.00003154     0.00028664
H         0.98248622     0.05080413    -0.64319594    -0.00029944    -0.00039873    -0.00037721
H         0.84510341    -0.20868315     1.91440656    -0.00013696     0.00013875     0.00074806
H        -1.01721561    -0.13261448     1.89666182     0.00089988    -0.00071939     0.00051271
H        -1.05282109     0.09656444    -0.57698661    -0.00013047     0.00050473    -0.00097146
     6
  Step:    39            Position(A)                                  Velocity(au)
C        -0.03409472     0.00412547    -0.15681254     0.00002687    -0.00000190    -0.00024905
N        -0.04077669    -0.03759564     1.45150339    -0.00006086     0.00003379     0.00022994
H         0.98084228     0.04853041    -0.64543458    -0.00028707    -0.00041044    -0.00043468
H         0.84458628    -0.20785845     1.91873322    -0.00005278     0.00014997     0.00080624
H        -1.01180949    -0.13668575     1.89932138     0.00103685    -0.00073878     0.00045004
H        -1.05365033     0.09951771    -0.58259023    -0.00017154     0.00055224    -0.00104918
     6
  Step:    40            Position(A)                                  Velocity(au)
C        -0.03394265     0.00410005    -0.15797053     0.00003336    -0.00000887    -0.00020040
N        -0.04115317    -0.03740134     1.45261663    -0.00008829     0.00004337     0.00020417
H         0.97929822     0.04624609    -0.64802319    -0.00031961    -0.00048469    -0.00059794
H         0.84451725    -0.20701774     1.92336002     0.00002732     0.00017522     0.00102331
H        -1.00570115    -0.14081872     1.90165964     0.00137908    -0.00088940     0.00047514
H        -1.05472611     0.10269715    -0.58863798    -0.00025742     0.00070176    -0.00134974
     6
  Step:    41            Position(A)                                  Velocity(au)
C        -0.03375126     0.00405791    -0.15906386     0.00003463    -0.00000618    -0.00019488
N        -0.04167755    -0.03715994     1.45372511    -0.00009920     0.00004350     0.00019606
H         0.97731580     0.04361551    -0.65121652    -0.00039177    -0.00047075    -0.00055241
H         0.84482874    -0.20619088     1.92909793     0.00007916     0.00013255     0.00104069
H        -0.99773803    -0.14561443     1.90415283     0.00147713    -0.00084767     0.00042653
H        -1.05601202     0.10644416    -0.59605130    -0.00019875     0.00065504    -0.00131704
     6
  Step:    42            Position(A)                                  Velocity(au)
C        -0.03355825     0.00403142    -0.16013356     0.00003405    -0.00000334    -0.00019094
N        -0.04225418    -0.03691851     1.45479269    -0.00010704     0.00004345     0.00018881
H         0.97494998     0.04102115    -0.65415444    -0.00045654    -0.00047003    -0.00050753
H         0.84539583    -0.20554658     1.93491067     0.00011892     0.00010804     0.00105022
H        -0.98930637    -0.15022709     1.90639370     0.00154714    -0.00082256     0.00038528
H        -1.05693207     0.10996753    -0.60325585    -0.00012789     0.00062047    -0.00127646
     6
  Step:    43            Position(A)                                  Velocity(au)
C        -0.03337336     0.00402088    -0.16118278     0.00003183    -0.00000050    -0.00018702
N        -0.04286540    -0.03667772     1.45582038    -0.00011164     0.00004333     0.00018137
H         0.97224928     0.03839934    -0.65684885    -0.00051192    -0.00047908    -0.00046559
H         0.84614848    -0.20499195     1.94075277     0.00014577     0.00009859     0.00105121
H        -0.98056860    -0.15474280     1.90842848     0.00158704    -0.00081161     0.00035316
H        -1.05743129     0.11332983    -0.61021686    -0.00004884     0.00059590    -0.00123060
     6
  Step:    44            Position(A)                                  Velocity(au)
C        -0.03320508     0.00402591    -0.16220874     0.00002818     0.00000225    -0.00018239
N        -0.04349291    -0.03643773     1.45680517    -0.00011293     0.00004321     0.00017325
H         0.96926960     0.03570523    -0.65932070    -0.00055698    -0.00049494    -0.00042778
H         0.84701331    -0.20445261     1.94657507     0.00015937     0.00010113     0.00104316
H        -0.97169632    -0.15923287     1.91031239     0.00159562    -0.00081243     0.00033156
H        -1.05747400     0.11657976    -0.61691080     0.00003539     0.00057900    -0.00118110
     6