 Fermi distribution function

Calculation with static geometry


********************************************************************************
 iSCC Total electronic   Diff electronic      SCC error    
   13   -0.53444326E+01   -0.82600593E-12    0.44008296E-07
********************************************************************************

 Total charge:     1.00000000

 Atomic gross charges (e)
 Atom           Charge
    1       0.30511108
    2      -0.20859007
    3       0.16345089
    4       0.29365165
    5       0.27882109
    6       0.16755536

Nr. of electrons (up):     12.00000000
Atom populations (up)
 Atom       Population
    1       3.69488892
    2       5.20859007
    3       0.83654911
    4       0.70634835
    5       0.72117891
    6       0.83244464

l-shell populations (up)
 Atom Sh.   l       Population
    1   1   0       1.34489863
    1   2   1       2.34999029
    2   1   0       1.44077504
    2   2   1       3.76781503
    3   1   0       0.83654911
    4   1   0       0.70634835
    5   1   0       0.72117891
    6   1   0       0.83244464

Orbital populations (up)
 Atom Sh.   l   m       Population  Label
    1   1   0   0       1.34489863  s
    1   2   1  -1       0.55025598  p_y
    1   2   1   0       0.86818566  p_z
    1   2   1   1       0.93154864  p_x
    2   1   0   0       1.44077504  s
    2   2   1  -1       1.40685261  p_y
    2   2   1   0       1.05394558  p_z
    2   2   1   1       1.30701685  p_x
    3   1   0   0       0.83654911  s
    4   1   0   0       0.70634835  s
    5   1   0   0       0.72117891  s
    6   1   0   0       0.83244464  s

Fermi level:                        -0.4912851476 H          -13.3685 eV
Band energy:                        -8.7406073801 H         -237.8440 eV
TS:                                  0.0000000000 H            0.0000 eV
Band free energy (E-TS):            -8.7406073801 H         -237.8440 eV
Extrapolated E(0K):                 -8.7406073801 H         -237.8440 eV
Input / Output electrons (q):     12.0000000000     12.0000000000

Energy H0:                          -5.4758654285 H         -149.0059 eV
Energy SCC:                          0.1314328317 H            3.5765 eV
Total Electronic energy:            -5.3444325968 H         -145.4294 eV
Repulsive energy:                    0.1603568209 H            4.3635 eV
Total energy:                       -5.1840757760 H         -141.0659 eV
Extrapolated to 0:                  -5.1840757760 H         -141.0659 eV
Total Mermin free energy:           -5.1840757760 H         -141.0659 eV
Force related energy:               -5.1840757760 H         -141.0659 eV

SCC converged

Excitation Energy:                   0.0978644642 H            2.6630 eV

Total Forces
    1     -0.001829744033      0.000339979540      0.083380288734
    2      0.018989620979      0.010177967545     -0.087106734050
    3     -0.011023866202     -0.013054203724      0.006419922378
    4     -0.019085159751      0.007048946760     -0.006788442012
    5      0.002697297076     -0.014939216381      0.001236629607
    6      0.010251851931      0.010426526261      0.002858335343

Maximal derivative component:        0.871067E-01 au


