    14
  Step:     0            Position(A)                                  Velocity(au)
C        -5.97620226    -0.76224459    -0.17419761     0.00009441     0.00020608    -0.00008886
C        -4.65559722    -0.74758188     0.19133769    -0.00038110     0.00003879     0.00006057
H        -6.46570465     0.20296201    -0.47560029    -0.00045432    -0.00173687    -0.00000622
H        -6.63864725    -1.64274399    -0.00725449     0.00054849    -0.00000958     0.00056824
H        -4.22719446    -1.70640705     0.58920005    -0.00078508     0.00018233    -0.00110216
C        -3.94782664     0.45405680    -0.02957477     0.00022592    -0.00008406     0.00010014
C        -2.59710470     0.48433129     0.17839846     0.00022850     0.00002241    -0.00008278
H        -4.43380984     1.30121443    -0.44588538     0.00002621    -0.00094301    -0.00057577
H        -2.02975182    -0.36118795     0.45704575    -0.00094943    -0.00088704     0.00061283
C        -1.81149486     1.74846314     0.02952573    -0.00037622    -0.00023553     0.00026124
H        -2.31621312     2.68325031    -0.31584462     0.00069241     0.00055920     0.00021673
N        -0.54225115     1.76726959     0.15923403     0.00027394     0.00020608    -0.00028163
H         0.01271241     2.65902427     0.07135689    -0.00060458     0.00000441     0.00040271
H        -0.07466485     0.92067603     0.59852158     0.00020394     0.00058998     0.00081460
    14
  Step:     1            Position(A)                                  Velocity(au)
C        -5.97543557    -0.75997287    -0.17514545     0.00004520     0.00020525    -0.00008354
C        -4.65978427    -0.74727178     0.19201287    -0.00038216     0.00002017     0.00006222
H        -6.47026270     0.18275969    -0.47558762    -0.00039595    -0.00190752    -0.00000560
H        -6.63203706    -1.64219143    -0.00151354     0.00065661     0.00010679     0.00047974
H        -4.23562131    -1.70302729     0.57684882    -0.00074453     0.00041370    -0.00114173
C        -3.94554142     0.45299419    -0.02848624     0.00019155    -0.00011095     0.00009885
C        -2.59409913     0.48503022     0.17749434     0.00031912     0.00010187    -0.00008164
H        -4.43432466     1.29179888    -0.45256566    -0.00012180    -0.00076730    -0.00064825
H        -2.03957300    -0.37230583     0.46410903    -0.00084912    -0.00112238     0.00067204
C        -1.81643905     1.74573000     0.03229361    -0.00051877    -0.00026181     0.00024522
H        -2.30828277     2.68839823    -0.31310219     0.00074752     0.00037361     0.00028527
N        -0.53855570     1.76950477     0.15628456     0.00039432     0.00019998    -0.00025783
H         0.00515337     2.65729649     0.07599180    -0.00075569    -0.00028579     0.00044057
H        -0.07305138     0.92913362     0.60641566     0.00009519     0.00095173     0.00062787
    14
  Step:     2            Position(A)                                  Velocity(au)
C        -5.97521352    -0.75775445    -0.17602510    -0.00000408     0.00019597    -0.00007617
C        -4.66395771    -0.74714069     0.19269879    -0.00037898     0.00000678     0.00006232
H        -6.47436678     0.16123128    -0.47572280    -0.00037728    -0.00197032    -0.00003649
H        -6.62428267    -1.64040780     0.00324066     0.00075360     0.00021015     0.00038916
H        -4.24348238    -1.69735654     0.56422254    -0.00067947     0.00059381    -0.00115042
C        -3.94363618     0.45162947    -0.02741234     0.00015619    -0.00013848     0.00009710
C        -2.59012343     0.48655982     0.17661239     0.00040564     0.00017305    -0.00007844
H        -4.43647436     1.28442831    -0.46006708    -0.00026679    -0.00057930    -0.00072118
H        -2.04832793    -0.38574213     0.47174785    -0.00075932    -0.00130018     0.00071421
C        -1.82284388     1.74273560     0.03489047    -0.00064049    -0.00028351     0.00023028
H        -2.29985977     2.69142373    -0.30960374     0.00077872     0.00017775     0.00035263
N        -0.53362459     1.77164453     0.15359345     0.00049673     0.00018856    -0.00023503
H        -0.00381969     2.65277196     0.08099511    -0.00085360    -0.00049023     0.00046906
H        -0.07258242     0.94149685     0.61225746     0.00000336     0.00128832     0.00044791
    14
  Step:     3            Position(A)                                  Velocity(au)
C        -5.97552472    -0.75568560    -0.17681181    -0.00005134     0.00017783    -0.00006642
C        -4.66807528    -0.74712340     0.19337617    -0.00037229     0.00000001     0.00006050
H        -6.47851638     0.13965511    -0.47638601    -0.00040875    -0.00191103    -0.00010436
H        -6.61555072    -1.63759410     0.00700000     0.00083144     0.00028991     0.00029923
H        -4.25048600    -1.69003652     0.55168128    -0.00058608     0.00070908    -0.00112482
C        -3.94212443     0.44996468    -0.02636207     0.00011912    -0.00016508     0.00009413
C        -2.58522507     0.48881594     0.17577824     0.00048769     0.00023391    -0.00007271
H        -4.44016117     1.27912567    -0.46834294    -0.00039707    -0.00039893    -0.00078515
H        -2.05618450    -0.40074968     0.47973375    -0.00068693    -0.00140295     0.00073278
C        -1.83045108     1.73952768     0.03733143    -0.00073679    -0.00030119     0.00021694
H        -2.29124670     2.69228685    -0.30538776     0.00077918    -0.00001514     0.00041429
N        -0.52768877     1.77362979     0.15114281     0.00057578     0.00017185    -0.00021451
H        -0.01352073     2.64657174     0.08625343    -0.00088157    -0.00057815     0.00048673
H        -0.07297779     0.95731802     0.61621457    -0.00005442     0.00156844     0.00029247
    14
  Step:     4            Position(A)                                  Velocity(au)
C        -5.97633677    -0.75386399    -0.17747806    -0.00009502     0.00015120    -0.00005419
C        -4.67210217    -0.74714038     0.19402228    -0.00036261     0.00000103     0.00005654
H        -6.48330897     0.11942394    -0.47800582    -0.00049613    -0.00172559    -0.00021162
H        -6.60609338    -1.63406544     0.00978687     0.00088271     0.00033608     0.00021271
H        -4.25630407    -1.68184414     0.53961506    -0.00046206     0.00074967    -0.00106327
C        -3.94103029     0.44801807    -0.02535303     0.00007912    -0.00018950     0.00008921
C        -2.57945432     0.49167705     0.17502179     0.00056521     0.00028342    -0.00006414
H        -4.44516110     1.27570106    -0.47724382    -0.00050211    -0.00024377    -0.00083162
H        -2.06335580    -0.41643430     0.48777890    -0.00063341    -0.00142178     0.00072368
C        -1.83896266     1.73614650     0.03963635    -0.00080514    -0.00031571     0.00020555
H        -2.28281373     2.69109248    -0.30054029     0.00074351    -0.00019207     0.00046617
N        -0.52102836     1.77540418     0.14890059     0.00062811     0.00015052    -0.00019756
H        -0.02310574     2.64012381     0.09164324    -0.00082940    -0.00052763     0.00049332
H        -0.07377304     0.97580955     0.61865575    -0.00006210     0.00176216     0.00018013
    14
  Step:     5            Position(A)                                  Velocity(au)
C        -5.97760345    -0.75237775    -0.17799735    -0.00013437     0.00011760    -0.00003985
C        -4.67600806    -0.74710096     0.19461304    -0.00035017     0.00001059     0.00005044
H        -6.48937011     0.10190447    -0.48101559    -0.00063703    -0.00142500    -0.00035578
H        -6.59623977    -1.63024174     0.01165352     0.00090110     0.00033995     0.00013225
H        -4.26059450    -1.67363595     0.52842016    -0.00030757     0.00071190    -0.00096657
C        -3.94039344     0.44581901    -0.02441051     0.00003473    -0.00021102     0.00008173
C        -2.57286008     0.49501635     0.17437506     0.00063849     0.00032158    -0.00005266
H        -4.45114582     1.27379275    -0.48653618    -0.00057405    -0.00012679    -0.00085426
H        -2.07004166    -0.43185378     0.49556552    -0.00059574    -0.00135617     0.00068541
C        -1.84806515     1.73262090     0.04182815    -0.00084523    -0.00032825     0.00019632
H        -2.27498100     2.68808502    -0.29518939     0.00066808    -0.00034092     0.00050480
N        -0.51394769     1.77692265     0.14682070     0.00065284     0.00012612    -0.00018541
H        -0.03166549     2.63502884     0.09704585    -0.00069721    -0.00033286     0.00049005
H        -0.07433637     0.99586871     0.62015532    -0.00000608     0.00184364     0.00012882
    14
  Step:     6            Position(A)                                  Velocity(au)
C        -5.97927637    -0.75129130    -0.17834993    -0.00016981     0.00007981    -0.00002429
C        -4.67976284    -0.74690870     0.19512570    -0.00033479     0.00002881     0.00004245
H        -6.49724531     0.08824940    -0.48578928    -0.00081844    -0.00103772    -0.00052803
H        -6.58638011    -1.62662830     0.01268012     0.00088208     0.00029522     0.00006014
H        -4.26303280    -1.66627002     0.51846942    -0.00012624     0.00060042    -0.00083846
C        -3.94027057     0.44340162    -0.02356507    -0.00001532    -0.00022943     0.00007138
C        -2.56548620     0.49871220     0.17386985     0.00070776     0.00034906    -0.00003837
H        -4.45771957     1.27292736    -0.49593239    -0.00060862    -0.00005510    -0.00084962
H        -2.07638870    -0.44610311     0.50277365    -0.00056790    -0.00121262     0.00061893
C        -1.85745372     1.72896530     0.04393115    -0.00085870    -0.00034002     0.00018927
H        -2.26819815     2.68363427    -0.28949691     0.00055132    -0.00045151     0.00052756
N        -0.50674618     1.77816337     0.14484434     0.00065181     0.00010130    -0.00017901
H        -0.03835865     2.63284186     0.10236412    -0.00049824    -0.00001083     0.00047945
H        -0.07390603     1.01614278     0.62147396     0.00012214     0.00179617     0.00015253
    14
  Step:     7            Position(A)                                  Velocity(au)
C        -5.98131840    -0.75063168    -0.17852880    -0.00020284     0.00004161    -0.00000885
C        -4.68333213    -0.74647079     0.19554163    -0.00031602     0.00005470     0.00003305
H        -6.50727497     0.07920227    -0.49256732    -0.00101708    -0.00060725    -0.00071346
H        -6.57694253    -1.62378327     0.01296927     0.00082355     0.00019908    -0.00000194
H        -4.26335614    -1.66050065     0.51007732     0.00007414     0.00042963    -0.00068573
C        -3.94072852     0.44079971    -0.02284891    -0.00007101    -0.00024474     0.00005820
C        -2.55737643     0.50265272     0.17353565     0.00077218     0.00036648    -0.00002159
H        -4.46446061     1.27258739    -0.50512317    -0.00060521    -0.00003003    -0.00081681
H        -2.08246547    -0.45838218     0.50910578    -0.00054247    -0.00100254     0.00052725
C        -1.86685087     1.72518234     0.04596890    -0.00084836    -0.00035151     0.00018422
H        -2.26291974     2.67820737    -0.28364801     0.00039405    -0.00051696     0.00053293
N        -0.49968806     1.77913883     0.14290455     0.00062935     0.00007937    -0.00017871
H        -0.04256537     2.63479199     0.10753472    -0.00025848     0.00039673     0.00046479
H        -0.07166422     1.03516337     0.62349221     0.00032257     0.00161855     0.00025660
    14
  Step:     8            Position(A)                                  Velocity(au)
C        -5.98371381    -0.75038097    -0.17854362    -0.00023554     0.00000697     0.00000495
C        -4.68667647    -0.74571206     0.19584866    -0.00029362     0.00008597     0.00002289
H        -6.51949583     0.07496466    -0.50139755    -0.00120371    -0.00018400    -0.00089343
H        -6.56836334    -1.62227295     0.01263775     0.00072653     0.00005350    -0.00005331
H        -4.26141078    -1.65687094     0.50346781     0.00028180     0.00022269    -0.00051769
C        -3.94182410     0.43804739    -0.02229183    -0.00013031    -0.00025670     0.00004255
C        -2.54859329     0.50672968     0.17339758     0.00082896     0.00037363    -0.00000278
H        -4.47095980     1.27227045    -0.51380166    -0.00056644    -0.00004808    -0.00075689
H        -2.08825627    -0.46803570     0.51430827    -0.00051194    -0.00074020     0.00041519
C        -1.87601317     1.72127531     0.04796138    -0.00081709    -0.00036186     0.00018072
H        -2.25957745     2.67232480    -0.27783815     0.00019963    -0.00053489     0.00052064
N        -0.49297800     1.77989981     0.14093479     0.00059148     0.00006350    -0.00018392
H        -0.04401335     2.64152101     0.11253229    -0.00001221     0.00082917     0.00044926
H        -0.06684911     1.05155166     0.62708753     0.00058362     0.00133044     0.00043297
    14
  Step:     9            Position(A)                                  Velocity(au)
C        -5.98647125    -0.75047926    -0.17842057    -0.00026998    -0.00002089     0.00001579
C        -4.68975554    -0.74459005     0.19604250    -0.00026767     0.00011926     0.00001273
H        -6.53360842     0.07517690    -0.51211273    -0.00134980     0.00018526    -0.00104928
H        -6.56104833    -1.62261286     0.01180304     0.00059570    -0.00013388    -0.00009470
H        -4.25719116    -1.65562889     0.49875190     0.00048224     0.00000829    -0.00034501
C        -3.94357933     0.43518394    -0.02191804    -0.00018956    -0.00026474     0.00002501
C        -2.53924125     0.51082658     0.17347483     0.00087391     0.00036944     0.00001749
H        -4.47685266     1.27153544    -0.52168151    -0.00049741    -0.00010225    -0.00067257
H        -2.09366525    -0.47457543     0.51818877    -0.00046940    -0.00044138     0.00028867
C        -1.88472619     1.71726587     0.04992251    -0.00076715    -0.00036881     0.00017815
H        -2.25855247     2.66650572    -0.27225801    -0.00002613    -0.00050821     0.00049200
N        -0.48674826     1.78052804     0.13888088     0.00054484     0.00005570    -0.00019296
H        -0.04283258     2.65293160     0.11736324     0.00020565     0.00121998     0.00043505
H        -0.05889631     1.06426929     0.63296420     0.00088118     0.00097298     0.00065805
    14
  Step:    10            Position(A)                                  Velocity(au)
C        -5.98962007    -0.75083802    -0.17819811    -0.00030771    -0.00004024     0.00002286
C        -4.69253233    -0.74310305     0.19612721    -0.00023862     0.00015094     0.00000330
H        -6.54902536     0.07901754    -0.52435258    -0.00143395     0.00046648    -0.00116606
H        -6.55533131    -1.62520183     0.01056595     0.00043944    -0.00034961    -0.00012839
H        -4.25086082    -1.65668951     0.49591999     0.00066039    -0.00018417    -0.00017823
C        -3.94597099     0.43225574    -0.02174458    -0.00024490    -0.00026832     0.00000624
C        -2.52947477     0.51481180     0.17378026     0.00090296     0.00035265     0.00003867
H        -4.48184171     1.27003352    -0.52851551    -0.00040481    -0.00018339    -0.00056819
H        -2.09852533    -0.47769179     0.52062341    -0.00040887    -0.00012271     0.00015402
C        -1.89279607     1.71320690     0.05185880    -0.00070034    -0.00036936     0.00017582
H        -2.26014904     2.66120684    -0.26707474    -0.00027512    -0.00044527     0.00045012
N        -0.48105865     1.78111845     0.13671337     0.00049565     0.00005624    -0.00020317
H        -0.03951438     2.66821046     0.12204984     0.00036743     0.00151220     0.00042270
H        -0.04757158     1.07283748     0.64148367     0.00118155     0.00060204     0.00089556
    14
  Step:    11            Position(A)                                  Velocity(au)
C        -5.99320294    -0.75135953    -0.17792050    -0.00034956    -0.00005110     0.00002592
C        -4.69497572    -0.74128799     0.19611462    -0.00020706     0.00017786    -0.00000480
H        -6.56497885     0.08538208    -0.53762250    -0.00144535     0.00064246    -0.00123479
H        -6.55143472    -1.63026127     0.00899423     0.00026909    -0.00057554    -0.00015783
H        -4.24274394    -1.65965787     0.49485281     0.00080307    -0.00032976    -0.00002616
C        -3.94893695     0.42931394    -0.02178152    -0.00029330    -0.00026719    -0.00001315
C        -2.51948721     0.51854143     0.17432075     0.00091330     0.00032251     0.00006022
H        -4.48570862     1.26752351    -0.53411176    -0.00029607    -0.00028134    -0.00044930
H        -2.10261005    -0.47725995     0.52155818    -0.00032540     0.00019864     0.00001758
C        -1.90004750     1.70918544     0.05376895    -0.00061845    -0.00036054     0.00017303
H        -2.26457122     2.65676468    -0.26241085    -0.00053742    -0.00035903     0.00039977
N        -0.47590491     1.78175850     0.13443606     0.00044909     0.00006375    -0.00021149
H        -0.03479440     2.68601379     0.12661063     0.00045749     0.00166965     0.00041118
H        -0.03304759     1.07744016     0.65255621     0.00144814     0.00027545     0.00110423
    14
  Step:    12            Position(A)                                  Velocity(au)
C        -5.99726740    -0.75195591    -0.17763109    -0.00039562    -0.00005499     0.00002531
C        -4.69706220    -0.73921195     0.19602212    -0.00017382     0.00019778    -0.00001118
H        -6.58064516     0.09307256    -0.55136608    -0.00138372     0.00071164    -0.00125287
H        -6.54944438    -1.63779277     0.00711306     0.00009739    -0.00079100    -0.00018697
H        -4.23329212    -1.66390368     0.49534774     0.00090088    -0.00041167     0.00010512
C        -3.95238759     0.42641036    -0.02203230    -0.00033273    -0.00026147    -0.00003257
C        -2.50949452     0.52186741     0.17509767     0.00090356     0.00027911     0.00008164
H        -4.48831879     1.26387862    -0.53834470    -0.00017889    -0.00038553    -0.00032224
H        -2.10564408    -0.47334621     0.52100795    -0.00021494     0.00050483    -0.00011433
C        -1.90632580     1.70531931     0.05564406    -0.00052346    -0.00033986     0.00016910
H        -2.27190618     2.65335239    -0.25832901    -0.00080199    -0.00026531     0.00034672
N        -0.47123386     1.78251308     0.13208670     0.00040874     0.00007594    -0.00021514
H        -0.02950599     2.70473723     0.13104521     0.00047281     0.00168046     0.00039848
H        -0.01589080     1.07886348     0.66564090     0.00164944     0.00003928     0.00124772
    14
  Step:    13            Position(A)                                  Velocity(au)
C        -6.00185781    -0.75256257    -0.17736687    -0.00044529    -0.00005430     0.00002175
C        -4.69877828    -0.73696120     0.19586993    -0.00013992     0.00020942    -0.00001572
H        -6.59525030     0.10095064    -0.56503149    -0.00125665     0.00068373    -0.00122285
H        -6.54930406    -1.64756586     0.00490397    -0.00006341    -0.00097579    -0.00021945
H        -4.22303536    -1.66866394     0.49715244     0.00094912    -0.00042261     0.00021256
C        -3.95621604     0.42359376    -0.02249405    -0.00036194    -0.00025157    -0.00005145
C        -2.49972012     0.52464753     0.17610684     0.00087360     0.00022347     0.00010241
H        -4.48962216     1.25908940    -0.54116130    -0.00006093    -0.00048521    -0.00019375
H        -2.10731217    -0.46621585     0.51905692    -0.00007417     0.00077734    -0.00023531
C        -1.91149913     1.70175032     0.05746836    -0.00041753    -0.00030558     0.00016349
H        -2.28211639     2.65096048    -0.25482568    -0.00105752    -0.00018042     0.00029684
N        -0.46696303     1.78341984     0.12972949     0.00037634     0.00009051    -0.00021228
H        -0.02445088     2.72277713     0.13532823     0.00042028     0.00155356     0.00038241
H         0.00303705     1.07829953     0.67985246     0.00176515    -0.00008091     0.00130228
    14
  Step:    14            Position(A)                                  Velocity(au)
C        -6.00700889    -0.75314378    -0.17715537    -0.00049747    -0.00005161     0.00001614
C        -4.70012317    -0.73463044     0.19567820    -0.00010661     0.00021242    -0.00001851
H        -6.60813689     0.10803047    -0.57811818    -0.00107636     0.00057471    -0.00115060
H        -6.55083169    -1.65914012     0.00231219    -0.00020333    -0.00111311    -0.00025803
H        -4.21252825    -1.67314908     0.49999800     0.00094758    -0.00036393     0.00029587
C        -3.96030567     0.42090678    -0.02315789    -0.00038033    -0.00023817    -0.00006926
C        -2.49038283     0.52675635     0.17733816     0.00082434     0.00015766     0.00012197
H        -4.48965176     1.25326381    -0.54258330     0.00005046    -0.00056980    -0.00007073
H        -2.10726670    -0.45634047     0.51585999     0.00009952     0.00099724    -0.00033902
C        -1.91546001     1.69863420     0.05922082    -0.00030295    -0.00025702     0.00015583
H        -2.29504155     2.64940536    -0.25183517    -0.00129328    -0.00011870     0.00025527
N        -0.46300068     1.78449322     0.12744256     0.00035203     0.00010570    -0.00020224
H        -0.02031147     2.73872424     0.13941121     0.00031286     0.00131172     0.00036119
H         0.02272520     1.07709334     0.69413085     0.00178816    -0.00008126     0.00125970
    14
  Step:    15            Position(A)                                  Velocity(au)
C        -6.01274084    -0.75369173    -0.17701385    -0.00055070    -0.00004925     0.00000939
C        -4.70111056    -0.73231408     0.19546504    -0.00007523     0.00020711    -0.00001980
H        -6.61879775     0.11352360    -0.59020300    -0.00085689     0.00040304    -0.00104376
H        -6.55375224    -1.67191723    -0.00074085    -0.00031577    -0.00119165    -0.00030415
H        -4.20230528    -1.67662563     0.50362525     0.00089966    -0.00024347     0.00035675
C        -3.96453655     0.41838332    -0.02400918    -0.00038780    -0.00022217    -0.00008548
C        -2.48168619     0.52809658     0.17877513     0.00075750     0.00008468     0.00013970
H        -4.48851835     1.24662384    -0.54270856     0.00014844    -0.00062918     0.00004005
H        -2.10513506    -0.44439942     0.51164027     0.00030806     0.00114596    -0.00041939
C        -1.91812685     1.69612746     0.06087753    -0.00018212    -0.00019475     0.00014598
H        -2.31040943     2.64836374    -0.24924126    -0.00149985    -0.00009060     0.00022582
N        -0.45926175     1.78573233     0.12530507     0.00033467     0.00012043    -0.00018537
H        -0.01760651     2.75147354     0.14323001     0.00016612     0.00098496     0.00033374
H         0.04215647     1.07652179     0.70741090     0.00172283     0.00002522     0.00112536
    14
  Step:    16            Position(A)                                  Velocity(au)
C        -6.01905649    -0.75422124    -0.17694995    -0.00060332    -0.00004898     0.00000233
C        -4.70176893    -0.73009948     0.19524512    -0.00004708     0.00019434    -0.00001993
H        -6.62688310     0.11684784    -0.60095251    -0.00061248     0.00018737    -0.00091075
H        -6.55773971    -1.68520975    -0.00434167    -0.00039796    -0.00120652    -0.00035789
H        -4.19284646    -1.67847549     0.50780264     0.00081131    -0.00007324     0.00039819
C        -3.96878957     0.41604639    -0.02502795    -0.00038458    -0.00020463    -0.00009966
C        -2.47381100     0.52860890     0.18039439     0.00067547     0.00000830     0.00015501
H        -4.48640437     1.23949938    -0.54170721     0.00022691    -0.00065398     0.00013227
H        -2.10052726    -0.43127051     0.50668514     0.00055239     0.00120717    -0.00047122
C        -1.91944414     1.69437359     0.06241442    -0.00005739    -0.00012058     0.00013405
H        -2.32785357     2.64742340    -0.24689500    -0.00166961    -0.00010163     0.00021062
N        -0.45567905     1.78712783     0.12338723     0.00032238     0.00013410    -0.00016276
H        -0.01667739     2.76027203     0.14671245    -0.00000391     0.00060583     0.00029967
H         0.06041535     1.07764499     0.71875027     0.00158129     0.00021554     0.00091382
    14
  Step:    17            Position(A)                                  Velocity(au)
C        -6.02593953    -0.75476328    -0.17696291    -0.00065356    -0.00005201    -0.00000434
C        -4.70214054    -0.72806251     0.19502900    -0.00002334     0.00017529    -0.00001929
H        -6.63219697     0.11762274    -0.61012748    -0.00035679    -0.00005431    -0.00076021
H        -6.56245827    -1.69831217    -0.00857033    -0.00045047    -0.00115877    -0.00041818
H        -4.18455639    -1.67822783     0.51233650     0.00068995     0.00013266     0.00042390
C        -3.97294992     0.41390660    -0.02618936    -0.00037117    -0.00018670    -0.00011139
C        -2.46690907     0.52827821     0.18216617     0.00058107    -0.00006741     0.00016736
H        -4.48355428     1.23231686    -0.53981499     0.00028091    -0.00063636     0.00020054
H        -2.09305051    -0.41799034     0.50133143     0.00083167     0.00116983    -0.00049124
C        -1.91938238     1.69348957     0.06381003     0.00006888    -0.00003741     0.00012037
H        -2.34693534     2.64614028    -0.24463362    -0.00179703    -0.00015231     0.00021015
N        -0.45220911     1.78866603     0.12174443     0.00031286     0.00014636    -0.00013588
H        -0.01769203     2.76472716     0.14978580    -0.00018172     0.00020718     0.00025920
H         0.07675012     1.08123706     0.72740252     0.00137975     0.00046284     0.00064441
    14
  Step:    18            Position(A)                                  Velocity(au)
C        -6.03335429    -0.75535911    -0.17704493    -0.00069967    -0.00005909    -0.00001002
C        -4.70227951    -0.72626477     0.19482301    -0.00000498     0.00015134    -0.00001827
H        -6.63468856     0.11565968    -0.61758352    -0.00010280    -0.00030470    -0.00060090
H        -6.56759452    -1.71056001    -0.01349013    -0.00047646    -0.00105429    -0.00048317
H        -4.17775258    -1.67557325     0.51707627     0.00054384     0.00035923     0.00043796
C        -3.97690954     0.41196201    -0.02746472    -0.00034831    -0.00016945    -0.00012039
C        -2.46109890     0.52713419     0.18405580     0.00047756    -0.00013867     0.00017648
H        -4.48025893     1.22557774    -0.53732005     0.00030726    -0.00057107     0.00024107
H        -2.08233287    -0.40567831     0.49593837     0.00114213     0.00103217    -0.00047937
C        -1.91793732     1.69355514     0.06504780     0.00019444     0.00005103     0.00010549
H        -2.36716707     2.64409134    -0.24229763    -0.00187863    -0.00023882     0.00022351
N        -0.44883455     1.79032983     0.12041450     0.00030372     0.00015687    -0.00010640
H        -0.02065285     2.76480439     0.15238299    -0.00035252    -0.00017837     0.00021310
H         0.09059999     1.08777059     0.73284796     0.00113605     0.00074001     0.00033821
    14
  Step:    19            Position(A)                                  Velocity(au)
C        -6.04124609    -0.75605597    -0.17718202    -0.00073996    -0.00007064    -0.00001415
C        -4.70224949    -0.72475163     0.19462926     0.00000724     0.00012405    -0.00001724
H        -6.63444595     0.11095689    -0.62327333     0.00013698    -0.00054673    -0.00044188
H        -6.57288167    -1.72137676    -0.01914067    -0.00048086    -0.00090258    -0.00055056
H        -4.17265885    -1.67036908     0.52191766     0.00038170     0.00059122     0.00044468
C        -3.98056976     0.41019953    -0.02882314    -0.00031697    -0.00015378    -0.00012657
C        -2.45646160     0.52524456     0.18602690     0.00036849    -0.00020259     0.00018237
H        -4.47683244     1.21982361    -0.53454110     0.00030515    -0.00045655     0.00025239
H        -2.06806416    -0.39540970     0.49084436     0.00147558     0.00080539    -0.00043988
C        -1.91512858     1.69460586     0.06611775     0.00031722     0.00014057     0.00009003
H        -2.38803392     2.64091559    -0.23974399    -0.00191285    -0.00035413     0.00024876
N        -0.44556463     1.79209796     0.11941672     0.00029253     0.00016520    -0.00007602
H        -0.02540402     2.76082503     0.15444773    -0.00050211    -0.00051829     0.00016253
H         0.10160335     1.09742609     0.73480145     0.00086857     0.00102093     0.00001673
    14
  Step:    20            Position(A)                                  Velocity(au)
C        -6.04954225    -0.75690446    -0.17735444    -0.00077285    -0.00008692    -0.00001621
C        -4.70212110    -0.72355092     0.19444578     0.00001279     0.00009506    -0.00001658
H        -6.63169191     0.10369896    -0.62725058     0.00035035    -0.00076321    -0.00029263
H        -6.57811434    -1.73030560    -0.02553478    -0.00046961    -0.00071538    -0.00061789
H        -4.16940216    -1.66263927     0.52680453     0.00021247     0.00081348     0.00044857
C        -3.98384390     0.40859767    -0.03023379    -0.00027839    -0.00014027    -0.00013007
C        -2.45303748     0.52270218     0.18804559     0.00025775    -0.00025761     0.00018549
H        -4.47358317     1.21558978    -0.53179849     0.00027670    -0.00029602     0.00023597
H        -2.05005178    -0.38805877     0.48631520     0.00181823     0.00051512    -0.00038170
C        -1.91099756     1.69663038     0.06701740     0.00043532     0.00022698     0.00007470
H        -2.40901428     2.63634417    -0.23685558    -0.00189989    -0.00048897     0.00028326
N        -0.44243496     1.79394384     0.11875142     0.00027691     0.00017084    -0.00004650