     6
  Step:     0            Position(A)                                  Velocity(au)
C        -0.04614618     0.00629378     0.02164615    -0.00002774    -0.00000572    -0.00023693
N        -0.03941503    -0.06360959     1.29878083     0.00013590     0.00011038     0.00017503
H         0.96500822     0.02769636    -0.52245533     0.00071875    -0.00009726     0.00003751
H         0.81617197    -0.04115726     1.79081307    -0.00060175    -0.00073504    -0.00038573
H        -0.94800941    -0.00370883     1.87412754    -0.00118058    -0.00052694     0.00101708
H        -0.94850290     0.15633671    -0.55669618    -0.00049446    -0.00010649    -0.00027798
     6
  Step:     1            Position(A)                                  Velocity(au)
C        -0.04625172     0.00625269     0.01997446    -0.00001094    -0.00000931    -0.00037326
N        -0.03874425    -0.06304140     1.30003767     0.00010773     0.00009755     0.00028347
H         0.96869970     0.02728499    -0.52205284     0.00062700    -0.00005324     0.00011009
H         0.81352242    -0.04500195     1.78909349    -0.00035568    -0.00067126    -0.00023610
H        -0.95411174    -0.00648368     1.87944459    -0.00103912    -0.00048843     0.00092022
H        -0.95150658     0.15596138    -0.55824229    -0.00059901    -0.00003174    -0.00028566
     6
  Step:     2            Position(A)                                  Velocity(au)
C        -0.04626584     0.00619195     0.01756308     0.00000553    -0.00001289    -0.00050671
N        -0.03823657    -0.06254250     1.30188163     0.00007669     0.00008504     0.00038922
H         0.97186686     0.02711395    -0.52125102     0.00052755    -0.00000942     0.00018262
H         0.81228128    -0.04850012     1.78823037    -0.00009077    -0.00060849    -0.00007461
H        -0.95937615    -0.00905164     1.88419371    -0.00087608    -0.00045099     0.00081081
H        -0.95505536     0.15598953    -0.55982100    -0.00069238     0.00004069    -0.00028971
     6
  Step:     3            Position(A)                                  Velocity(au)
C        -0.04619121     0.00611169     0.01443065     0.00002134    -0.00001640    -0.00063581
N        -0.03790522    -0.06211097     1.30429606     0.00004371     0.00007290     0.00049127
H         0.97447154     0.02718192    -0.52005487     0.00042173     0.00003400     0.00025321
H         0.81252929    -0.05165931     1.78827721     0.00018407    -0.00054722     0.00009411
H        -0.96369677    -0.01141788     1.88831551    -0.00069560    -0.00041426     0.00069187
H        -0.95908175     0.15640652    -0.56141192    -0.00077196     0.00010993    -0.00028982
     6
  Step:     4            Position(A)                                  Velocity(au)
C        -0.04603221     0.00601241     0.01060364     0.00003618    -0.00001977    -0.00075875
N        -0.03775818    -0.06174459     1.30725897     0.00000980     0.00006117     0.00058837
H         0.97648307     0.02748607    -0.51847947     0.00031112     0.00007659     0.00031987
H         0.81429603    -0.05448992     1.78926048     0.00045868    -0.00048795     0.00026458
H        -0.96699006    -0.01358605     1.89176683    -0.00050192    -0.00037800     0.00056638
H        -0.96350507     0.15719283    -0.56299334    -0.00083531     0.00017493    -0.00028574
     6
  Step:     5            Position(A)                                  Velocity(au)
C        -0.04579486     0.00589512     0.00611823     0.00004972    -0.00002288    -0.00087333
N        -0.03779780    -0.06144088     1.31074183    -0.00002390     0.00004992     0.00067898
H         0.97787998     0.02802095    -0.51655063     0.00019777     0.00011771     0.00038046
H         0.81755430    -0.05700498     1.79117581     0.00072199    -0.00043116     0.00043067
H        -0.96919547    -0.01555898     1.89452036    -0.00029970    -0.00034212     0.00043737
H        -0.96823291     0.15832294    -0.56454225    -0.00088046     0.00023443    -0.00027734
     6
  Step:     6            Position(A)                                  Velocity(au)
C        -0.04548678     0.00576143     0.00102267     0.00006165    -0.00002562    -0.00097689
N        -0.03802036    -0.06119691     1.31470782    -0.00005621     0.00003925     0.00076125
H         0.97865272     0.02877741    -0.51430551     0.00008435     0.00015656     0.00043281
H         0.82221674    -0.05921999     1.79398522     0.00096256    -0.00037728     0.00058584
H        -0.97027795    -0.01733932     1.89656505    -0.00009428    -0.00030664     0.00030811
H        -0.97316425     0.15976469    -0.56603591    -0.00090608     0.00028713    -0.00026479
     6
  Step:     7            Position(A)                                  Velocity(au)
C        -0.04511720     0.00561350    -0.00462057     0.00007166    -0.00002790    -0.00106657
N        -0.03841576    -0.06100936     1.31911012    -0.00008593     0.00002925     0.00083310
H         0.97880722     0.02974203    -0.51179286    -0.00002580     0.00019232     0.00047475
H         0.82813550    -0.06115233     1.79761580     0.00116938    -0.00032664     0.00072360
H        -0.97023193    -0.01892979     1.89790737     0.00010814    -0.00027161     0.00018218
H        -0.97819324     0.16147933    -0.56745299    -0.00091167     0.00033185    -0.00024845
     6
  Step:     8            Position(A)                                  Velocity(au)
C        -0.04469688     0.00545393    -0.01073338     0.00007950    -0.00002966    -0.00113951
N        -0.03896747    -0.06087447     1.32389054    -0.00011186     0.00002001     0.00089242
H         0.97836832     0.03089718    -0.50907271    -0.00012884     0.00022421     0.00050433
H         0.83510597    -0.06282037     1.80196099     0.00133284    -0.00027943     0.00083815
H        -0.96908600    -0.02033305     1.89857307     0.00030065    -0.00023707     0.00006344
H        -0.98321297     0.16342243    -0.56877446    -0.00089757     0.00036767    -0.00022890
     6
  Step:     9            Position(A)                                  Velocity(au)
C        -0.04423803     0.00528551    -0.01722260     0.00008492    -0.00003088    -0.00119345
N        -0.03965284    -0.06078810     1.32897951    -0.00013299     0.00001158     0.00093744
H         0.97738234     0.03222164    -0.50621544    -0.00022073     0.00025171     0.00052002
H         0.84287563    -0.06424262     1.80688505     0.00144588    -0.00023571     0.00092504
H        -0.96690694    -0.02155155     1.89860895     0.00047601    -0.00020306    -0.00004408
H        -0.98811956     0.16554542    -0.56998447    -0.00086500     0.00039409    -0.00020688
     6
  Step:    10            Position(A)                                  Velocity(au)
C        -0.04375408     0.00511109    -0.02398329     0.00008780    -0.00003159    -0.00122724
N        -0.04044399    -0.06074589     1.33429818    -0.00014858     0.00000402     0.00096721
H         0.97591772     0.03369168    -0.50329930    -0.00029775     0.00027456     0.00052104
H         0.85115840    -0.06543731     1.81223098     0.00150497    -0.00019552     0.00098188
H        -0.96380127    -0.02258751     1.89808367     0.00062735    -0.00016968    -0.00013656
H        -0.99281639     0.16779774    -0.57107124    -0.00081618     0.00041116    -0.00018329
     6
  Step:    11            Position(A)                                  Velocity(au)
C        -0.04325912     0.00493335    -0.03090496     0.00008816    -0.00003184    -0.00124135
N        -0.04130934    -0.06074328     1.33976281    -0.00015826    -0.00000266     0.00098195
H         0.97406277     0.03528263    -0.50040644    -0.00035707     0.00029291     0.00050752
H         0.85965443    -0.06642245     1.81783196     0.00151093    -0.00015891     0.00100884
H        -0.95991272    -0.02344333     1.89708649     0.00074913    -0.00013707    -0.00021083
H        -0.99721903     0.17012944    -0.57202797    -0.00075424     0.00041953    -0.00015921
     6
  Step:    12            Position(A)                                  Velocity(au)
C        -0.04276715     0.00475460    -0.03788023     0.00008617    -0.00003176    -0.00123812
N        -0.04221577    -0.06077571     1.34529116    -0.00016214    -0.00000850     0.00098332
H         0.97192033     0.03697087    -0.49761754    -0.00039721     0.00030740     0.00048067
H         0.86807332    -0.06721627     1.82352502     0.00146881    -0.00012595     0.00100870
H        -0.95541470    -0.02412202     1.89572346     0.00083791    -0.00010541    -0.00026478
H        -1.00126018     0.17249439    -0.57285358    -0.00068312     0.00042049    -0.00013574
     6
  Step:    13            Position(A)                                  Velocity(au)
C        -0.04229107     0.00457656    -0.04481509     0.00012988    -0.00004974    -0.00193127
N        -0.04313100    -0.06083877     1.35081028    -0.00025410    -0.00002145     0.00154030
H         0.96960021     0.03873624    -0.49500613    -0.00066110     0.00050443     0.00069955
H         0.87615633    -0.06783747     1.82916460     0.00219273    -0.00015285     0.00155940
H        -0.95049890    -0.02462760     1.89411175     0.00141134    -0.00011831    -0.00047048
H        -1.00489381     0.17485358    -0.57355295    -0.00095969     0.00065744    -0.00018009
     6
  Step:    14            Position(A)                                  Velocity(au)
C        -0.04158869     0.00428908    -0.05526155     0.00011641    -0.00005148    -0.00174089
N        -0.04453559    -0.06095110     1.35917803    -0.00023677    -0.00001806     0.00140064
H         0.96617224     0.04153947    -0.49153189    -0.00053508     0.00048211     0.00052040
H         0.88813423    -0.06866161     1.83780970     0.00199887    -0.00013689     0.00146837
H        -0.94255083    -0.02530847     1.89146538     0.00135937    -0.00012020    -0.00044436
H        -1.01024306     0.17854197    -0.57482732    -0.00092011     0.00063941    -0.00026371
     6
  Step:    15            Position(A)                                  Velocity(au)
C        -0.04096544     0.00399026    -0.06464030     0.00010195    -0.00005352    -0.00155342
N        -0.04582730    -0.06104442     1.36676067    -0.00021433    -0.00001477     0.00126209
H         0.96350675     0.04422654    -0.48907983    -0.00039469     0.00046233     0.00034094
H         0.89891933    -0.06939640     1.84588637     0.00177387    -0.00012110     0.00135900
H        -0.93501847    -0.02599641     1.88905138     0.00126379    -0.00012061    -0.00038936
H        -1.01537204     0.18213516    -0.57655609    -0.00087944     0.00062234    -0.00033860
     6
  Step:    16            Position(A)                                  Velocity(au)
C        -0.04042632     0.00367885    -0.07297321     0.00004056    -0.00002603    -0.00064064
N        -0.04697932    -0.06111947     1.37356809    -0.00008771    -0.00000544     0.00052621
H         0.96167214     0.04681082    -0.48764453    -0.00011472     0.00020778     0.00007686
H         0.90835937    -0.07004235     1.85330471     0.00071356    -0.00004925     0.00057776
H        -0.92814142    -0.02668368     1.88702602     0.00052745    -0.00005597    -0.00014442
H        -1.02027015     0.18563774    -0.57868796    -0.00039078     0.00028311    -0.00018875
     6
  Step:    17            Position(A)                                  Velocity(au)
C        -0.04022617     0.00353267    -0.07654629     0.00003051    -0.00002599    -0.00063008
N        -0.04741997    -0.06116229     1.37651155    -0.00006846    -0.00000966     0.00052040
H         0.96112992     0.04803382    -0.48738277    -0.00007583     0.00022719     0.00001608
H         0.91185106    -0.07027086     1.85636593     0.00052775    -0.00003291     0.00051062
H        -0.92539955    -0.02690276     1.88637345     0.00044097    -0.00002241    -0.00008360
H        -1.02222324     0.18719919    -0.57968509    -0.00030505     0.00027212    -0.00016666
     6
  Step:    18            Position(A)                                  Velocity(au)
C        -0.04008346     0.00338677    -0.08005424     0.00002048    -0.00002625    -0.00062486
N        -0.04774875    -0.06122808     1.37941643    -0.00004875    -0.00001378     0.00051862
H         0.96081992     0.04936409    -0.48746380    -0.00003325     0.00024886    -0.00004529
H         0.91429032    -0.07041222     1.85904323     0.00034513    -0.00001838     0.00044736
H        -0.92318565    -0.02693548     1.88608651     0.00034537     0.00001047    -0.00001558
H        -1.02369833     0.18869589    -0.58056092    -0.00022391     0.00026331    -0.00014755
     6
  Step:    19            Position(A)                                  Velocity(au)
C        -0.03999740     0.00323948    -0.08352670     0.00001042    -0.00002669    -0.00062219
N        -0.04796452    -0.06131625     1.38230509    -0.00002850    -0.00001782     0.00051862
H         0.96075851     0.05081389    -0.48788866     0.00001249     0.00027204    -0.00010746
H         0.91570651    -0.07047613     1.86136347     0.00016463    -0.00000517     0.00038665
H        -0.92154143    -0.02678580     1.88619937     0.00024071     0.00004320     0.00005884
H        -1.02472453     0.19014068    -0.58133333    -0.00014604     0.00025563    -0.00013085
     6
  Step:    20            Position(A)                                  Velocity(au)
C        -0.03996750     0.00308972    -0.08697798     0.00000041    -0.00002727    -0.00062028
N        -0.04806585    -0.06142636     1.38518756    -0.00000793    -0.00002177     0.00051894
H         0.96095894     0.05239136    -0.48865963     0.00006036     0.00029613    -0.00017011
H         0.91612237    -0.07046980     1.86334581    -0.00001264     0.00000694     0.00032834
H        -0.92050702    -0.02645478     1.88674129     0.00012880     0.00007597     0.00013808
H        -1.02532349     0.19154053    -0.58201705    -0.00007127     0.00024849    -0.00011644
     6
  Step:    21            Position(A)                                  Velocity(au)
C        -0.03999283     0.00293673    -0.09041264    -0.00000939    -0.00002794    -0.00061808
N        -0.04805254    -0.06155796     1.38806603     0.00001257    -0.00002564     0.00051877
H         0.96142863     0.05410133    -0.48977711     0.00010904     0.00032068    -0.00023260
H         0.91556623    -0.07039906     1.86500845    -0.00018433     0.00001812     0.00027307
H        -0.92011164    -0.02594247     1.88773218     0.00001261     0.00010878     0.00021999
H        -1.02551573     0.19289925    -0.58262599    -0.00000006     0.00024166    -0.00010442
     6
  Step:    22            Position(A)                                  Velocity(au)
C        -0.04007161     0.00277998    -0.09382939    -0.00001880    -0.00002869    -0.00061496
N        -0.04792655    -0.06171056     1.39093810     0.00003251    -0.00002940     0.00051762
H         0.96216766     0.05594611    -0.49123805     0.00015705     0.00034534    -0.00029419
H         0.91407903    -0.07026894     1.86637284    -0.00034747     0.00002845     0.00022190
H        -0.92036725    -0.02524898     1.88917982    -0.00010415     0.00014152     0.00030214
H        -1.02532420     0.19421929    -0.58317455     0.00006679     0.00023508    -0.00009500
     6
  Step:    23            Position(A)                                  Velocity(au)
C        -0.04020101     0.00261902    -0.09722362    -0.00002759    -0.00002949    -0.00061059
N        -0.04769250    -0.06188358     1.39379890     0.00005137    -0.00003304     0.00051526
H         0.96316799     0.05792608    -0.49303534     0.00020286     0.00036980    -0.00035405
H         0.91171782    -0.07008397     1.86746606    -0.00049878     0.00003800     0.00017606
H        -0.92126518    -0.02437508     1.89107852    -0.00021748     0.00017402     0.00038202
H        -1.02477597     0.19550281    -0.58367820     0.00012838     0.00022882    -0.00008845
     6
  Step:    24            Position(A)                                  Velocity(au)
C        -0.04037709     0.00245349    -0.10058880    -0.00003558    -0.00003036    -0.00060477
N        -0.04735790    -0.06207637     1.39664216     0.00006861    -0.00003656     0.00051156
H         0.96441341     0.06003993    -0.49515753     0.00024501     0.00039381    -0.00041142
H         0.90855735    -0.06984829     1.86832193    -0.00063493     0.00004682     0.00013691
H        -0.92277486    -0.02332251     1.89340886    -0.00032338     0.00020607     0.00045715
H        -1.02390295     0.19675237    -0.58415372     0.00018378     0.00022301    -0.00008501
     6
  Step:    25            Position(A)                                  Velocity(au)
C        -0.04059483     0.00228304    -0.10391739    -0.00004256    -0.00003127    -0.00059744
N        -0.04693307    -0.06228819     1.39946099     0.00008374    -0.00003992     0.00050650
H         0.96587983     0.06228489    -0.49758902     0.00028213     0.00041713    -0.00046554
H         0.90469031    -0.06956570     1.86898141    -0.00075266     0.00005499     0.00010576
H        -0.92484447    -0.02209422     1.89613833    -0.00041814     0.00023744     0.00052528
H        -1.02274190     0.19797116    -0.58461915     0.00023209     0.00021782    -0.00008491
     6
  Step:    26            Position(A)                                  Velocity(au)
C        -0.04084820     0.00210737    -0.10720145    -0.00004837    -0.00003224    -0.00058858
N        -0.04643099    -0.06251822     1.40224826     0.00009631    -0.00004312     0.00050008
H         0.96753608     0.06465686    -0.50031032     0.00031302     0.00043954    -0.00051577
H         0.90022672    -0.06923965     1.86949252    -0.00084897     0.00006256     0.00008386
H        -0.92740292    -0.02069444     1.89922282    -0.00049852     0.00026789     0.00058448
H        -1.02133411     0.19916322    -0.58509358     0.00027256     0.00021340    -0.00008832
     6
  Step:    27            Position(A)                                  Velocity(au)
C        -0.04113032     0.00192619    -0.11043297    -0.00005287    -0.00003325    -0.00057825
N        -0.04586696    -0.06276557     1.40499684     0.00010593    -0.00004616     0.00049234
H         0.96934489     0.06715054    -0.50329854     0.00033670     0.00046083    -0.00056154
H         0.89529230    -0.06887317     1.86990979    -0.00092128     0.00006961     0.00007230
H        -0.93036305    -0.01912871     1.90260851    -0.00056198     0.00029718     0.00063323
H        -1.01972472     0.20033345    -0.58559682     0.00030456     0.00020992    -0.00009532
     6
  Step:    28            Position(A)                                  Velocity(au)
C        -0.04143366     0.00173925    -0.11360421    -0.00005597    -0.00003430    -0.00056655
N        -0.04525808    -0.06302928     1.40769978     0.00011234    -0.00004901     0.00048336
H         0.97126422     0.06975950    -0.50652805     0.00035246     0.00048085    -0.00060244
H         0.89002580    -0.06846889     1.87029310    -0.00096758     0.00007623     0.00007192
H        -0.93362554    -0.01740385     1.90623437    -0.00060674     0.00032511     0.00067049
H        -1.01796186     0.20148758    -0.58614902     0.00032766     0.00020754    -0.00010594
     6
  Step:    29            Position(A)                                  Velocity(au)
C        -0.04175020     0.00154631    -0.11670798    -0.00005759    -0.00003539    -0.00055360
N        -0.04462273    -0.06330837     1.41035048     0.00011536    -0.00005168     0.00047323
H         0.97324866     0.07247643    -0.50997111     0.00035983     0.00049946    -0.00063818
H         0.88457550    -0.06802889     1.87070636    -0.00098659     0.00008252     0.00008326
H        -0.93708328    -0.01552778     1.91003474    -0.00063183     0.00035151     0.00069568
H        -1.01609556     0.20263209    -0.58677024     0.00034166     0.00020638    -0.00012013
     6
  Step:    30            Position(A)                                  Velocity(au)
C        -0.04207170     0.00134714    -0.11973782    -0.00005772    -0.00003652    -0.00053960
N        -0.04397992    -0.06360185     1.41294285     0.00011496    -0.00005417     0.00046206
H         0.97525095     0.07529327    -0.51359875     0.00035865     0.00051657    -0.00066864
H         0.87909498    -0.06755463     1.87121560    -0.00097781     0.00008860     0.00010654
H        -0.94062587    -0.01350936     1.91394206    -0.00063708     0.00037623     0.00070872
H        -1.01417651     0.20377411    -0.58748002     0.00034655     0.00020655    -0.00013775
     6
  Step:    31            Position(A)                                  Velocity(au)
C        -0.04238993     0.00114157    -0.12268821    -0.00005640    -0.00003768    -0.00052471
N        -0.04334866    -0.06390874     1.41547138     0.00011119    -0.00005649     0.00044999
H         0.97722349     0.07820150    -0.51738149     0.00034899     0.00053213    -0.00069381
H         0.87373859    -0.06704693     1.87188714    -0.00094162     0.00009461     0.00014160
H        -0.94414391    -0.01135810     1.91788938    -0.00062306     0.00039920     0.00070998
H        -1.01225485     0.20492119    -0.58829688     0.00034257     0.00020812    -0.00015857
     6
  Step:    32            Position(A)                                  Velocity(au)
C        -0.04269689     0.00092943    -0.12555466    -0.00005367    -0.00003887    -0.00050917
N        -0.04274731    -0.06422812     1.41793137     0.00010423    -0.00005866     0.00043719
H         0.97911973     0.08119232    -0.52129019     0.00033116     0.00054612    -0.00071386
H         0.86865639    -0.06650584     1.87278534    -0.00087932     0.00010068     0.00018786
H        -0.94753298    -0.00908390     1.92181269    -0.00059100     0.00042040     0.00070017
H        -1.01037888     0.20608123    -0.58923789     0.00033018     0.00021113    -0.00018230
     6
  Step:    33            Position(A)                                  Velocity(au)
C        -0.04298498     0.00071059    -0.12833383    -0.00004963    -0.00004008    -0.00049316
N        -0.04219294    -0.06455916     1.42031894     0.00009437    -0.00006069     0.00042381
H         0.98089539     0.08425690    -0.52529671     0.00030568     0.00055857    -0.00072902
H         0.86398870    -0.06593061     1.87397017    -0.00079315     0.00010697     0.00024433
H        -0.95069695    -0.00669670     1.92565279    -0.00054263     0.00043985     0.00068030
H        -1.00859378     0.20726218    -0.59031823     0.00031006     0.00021558    -0.00020858
     6
  Step:    34            Position(A)                                  Velocity(au)
C        -0.04324728     0.00048496    -0.13102346    -0.00004442    -0.00004131    -0.00047687
N        -0.04170077    -0.06490113     1.42263115     0.00008198    -0.00006260     0.00041002
H         0.98250949     0.08738654    -0.52937449     0.00027319     0.00056953    -0.00073963
H         0.85986088    -0.06531964     1.87549480    -0.00068621     0.00011363     0.00030959
H        -0.95355038    -0.00420625     1.92935673    -0.00048002     0.00045762     0.00065159
H        -1.00694052     0.20847187    -0.59155084     0.00028305     0.00022144    -0.00023696
     6
  Step:    35            Position(A)                                  Velocity(au)
C        -0.04347757     0.00025248    -0.13362218    -0.00003817    -0.00004255    -0.00046045
N        -0.04128377    -0.06525342     1.42486594     0.00006750    -0.00006442     0.00039597
H         0.98392499     0.09057283    -0.53349900     0.00023445     0.00057904    -0.00074609
H         0.85637884    -0.06467050     1.87740342    -0.00056234     0.00012082     0.00038185
H        -0.95602028    -0.00162186     1.93287876    -0.00040552     0.00047379     0.00061539
H        -1.00545483     0.20971784    -0.59294605     0.00025016     0.00022863    -0.00026697
     6
  Step:    36            Position(A)                                  Velocity(au)
C        -0.04367052     0.00001314    -0.13612951    -0.00003104    -0.00004379    -0.00044406
N        -0.04095223    -0.06561555     1.42702215     0.00005143    -0.00006618     0.00038184
H         0.98510939     0.09380765    -0.53764797     0.00019030     0.00058717    -0.00074881
H         0.85362496    -0.06397987     1.87972922    -0.00042603     0.00012869     0.00045901
H        -0.95804723     0.00104773     1.93618091    -0.00032158     0.00048849     0.00057311
H        -1.00416648     0.21100713    -0.59451129     0.00021250     0.00023705    -0.00029806
     6
  Step:    37            Position(A)                                  Velocity(au)
C        -0.04382177    -0.00023303    -0.13854575    -0.00002322    -0.00004502    -0.00042781
N        -0.04071352    -0.06598718     1.42909962     0.00003430    -0.00006789     0.00036778
H         0.98603497     0.09708320    -0.54180160     0.00014159     0.00059394    -0.00074824
H         0.85165517    -0.06324359     1.88249278    -0.00028216     0.00013741     0.00053870
H        -0.95958593     0.00379443     1.93923329    -0.00023076     0.00050183     0.00052620
H        -1.00309867     0.21234619    -0.59625086     0.00017128     0.00024660    -0.00032966
     6
  Step:    38            Position(A)                                  Velocity(au)
C        -0.04392789    -0.00048589    -0.14087196    -0.00001486    -0.00004622    -0.00041185
N        -0.04057197    -0.06636809     1.43109913     0.00001666    -0.00006957     0.00035398
H         0.98667902     0.10039180    -0.54594260     0.00008922     0.00059934    -0.00074482
H         0.85049710    -0.06245661     1.88570097    -0.00013584     0.00014715     0.00061841
H        -0.96060533     0.00661075     1.94201406    -0.00013557     0.00051387     0.00047605
H        -1.00226773     0.21374080    -0.59816574     0.00012775     0.00025716    -0.00036114
     6
  Step:    39            Position(A)                                  Velocity(au)
C        -0.04398647    -0.00074525    -0.14311014    -0.00000615    -0.00004737    -0.00039633
N        -0.04052888    -0.06675821     1.43302271    -0.00000096    -0.00007126     0.00034066
H         0.98702381     0.10372557    -0.55005624     0.00003407     0.00060328    -0.00073899
H         0.85014970    -0.06161282     1.88934642     0.00000785     0.00015813     0.00069557
H        -0.96108840     0.00948956     1.94450928    -0.00003848     0.00052464     0.00042407
H        -1.00168290     0.21519621    -0.60025334     0.00008316     0.00026866    -0.00039185
     6
  Step:    40            Position(A)                                  Velocity(au)
C        -0.04399603    -0.00101077    -0.14526316     0.00000276    -0.00004846    -0.00038139
N        -0.04058260    -0.06715758     1.43487347    -0.00001805    -0.00007296     0.00032797
H         0.98705647     0.10707589    -0.55413030    -0.00002303     0.00060547    -0.00073121
H         0.85058409    -0.06070461     1.89340762     0.00014410     0.00017073     0.00076768
H        -0.96103168     0.01242353     1.94671262     0.00005813     0.00053394     0.00037159
H        -1.00134638     0.21671750    -0.60250733     0.00003876     0.00028119    -0.00042107
     6
  Step:    41            Position(A)                                  Velocity(au)
C        -0.04395593    -0.00128203    -0.14733457     0.00001174    -0.00004946    -0.00036714
N        -0.04072880    -0.06756632     1.43665548    -0.00003417    -0.00007469     0.00031609
H         0.98676867     0.11043193    -0.55815535    -0.00008134     0.00060515    -0.00072206
H         0.85174576    -0.05972171     1.89784954     0.00026859     0.00018581     0.00083238
H        -0.96044459     0.01540372     1.94862517     0.00015200     0.00054111     0.00031994
H        -1.00125362     0.21831073    -0.60491724    -0.00000429     0.00029523    -0.00044794
     6
  Step:    42            Position(A)                                  Velocity(au)
C        -0.04386602    -0.00155848    -0.14932857     0.00002084    -0.00005036    -0.00035361
N        -0.04096100    -0.06798461     1.43837361    -0.00004907    -0.00007643     0.00030509
H         0.98615578     0.11377673    -0.56212576    -0.00014040     0.00059941    -0.00071285
H         0.85355825    -0.05864716     1.90262463     0.00037795     0.00020640     0.00088739
H        -0.95934859     0.01841534     1.95025533     0.00024110     0.00054308     0.00027060
H        -1.00139389     0.21998658    -0.60746738    -0.00004513     0.00031335    -0.00047114
     6
  Step:    43            Position(A)                                  Velocity(au)
C        -0.04372525    -0.00183955    -0.15124905     0.00003050    -0.00005501    -0.00032047
N        -0.04127197    -0.06841239     1.44003281    -0.00006401    -0.00007686     0.00028180
H         0.98521446     0.11706732    -0.56604661    -0.00016786     0.00057754    -0.00075337
H         0.85592969    -0.05743691     1.90767294     0.00048130     0.00025799     0.00094745
H        -0.95777561     0.02141558     1.95162067     0.00032346     0.00050764     0.00023426
H        -1.00175321     0.22177947    -0.61013271    -0.00011086     0.00038048    -0.00052565
     6
  Step:    44            Position(A)                                  Velocity(au)
C        -0.04355256    -0.00215572    -0.15290697     0.00003415    -0.00005753    -0.00029286
N        -0.04164614    -0.06883742     1.44150904    -0.00007174    -0.00007780     0.00026175
H         0.98428630     0.12045969    -0.57022555    -0.00019219     0.00062230    -0.00074643
H         0.85879603    -0.05616667     1.91305604     0.00054543     0.00022722     0.00098690
H        -0.95579866     0.02440405     1.95278474     0.00039073     0.00055475     0.00018893
H        -1.00252656     0.22380221    -0.61325933    -0.00015403     0.00036238    -0.00057704
     6