    14
  Step:   600            Position(A)                                  Velocity(au)
C        -5.90143800    -0.77844330    -0.45405033     0.00005990     0.00055484     0.00047204
C        -4.55879536    -0.72443143    -0.04089980     0.00053510    -0.00093518    -0.00028904
H        -6.52357107     0.17905770    -0.58595928     0.00081224     0.00113396    -0.00009830
H        -6.50149927    -1.68957690    -0.78207492    -0.00053867     0.00017752    -0.00070309
H        -3.86397714    -1.43738716     0.35590872    -0.00295023     0.00051483    -0.00218420
C        -3.94265355     0.53631411     0.39223750    -0.00029328    -0.00014498    -0.00003431
C        -2.56527141     0.52125691     0.52559440     0.00068881     0.00063392    -0.00047742
H        -4.51829937     1.51388445     0.51192561    -0.00237137    -0.00024359     0.00380692
H        -2.12976015    -0.51009504     0.62880400     0.00094529    -0.00155232     0.00131554
C        -1.87770888     1.72122228     0.28510518    -0.00012982     0.00056877    -0.00042481
H        -2.61110419     2.65036532     0.45443577    -0.00177639    -0.00123303     0.00002821
N        -0.62852464     1.70555740    -0.19767272    -0.00040573    -0.00028734     0.00019642
H        -0.17620249     2.33657648    -0.88171203     0.00265750    -0.00220310     0.00012002
H        -0.34621604     0.69306488    -0.37657143    -0.00139647    -0.00067289     0.00396469
