 Fermi distribution function

Calculation with static geometry


********************************************************************************
 iSCC Total electronic   Diff electronic      SCC error    
   12   -0.53388248E+01   -0.35765169E-09    0.14065160E-06
********************************************************************************

 Total charge:     1.00000000

 Atomic gross charges (e)
 Atom           Charge
    1       0.32758216
    2      -0.21725128
    3       0.16599875
    4       0.29989541
    5       0.26673312
    6       0.15704183

Nr. of electrons (up):     12.00000000
Atom populations (up)
 Atom       Population
    1       3.67241784
    2       5.21725128
    3       0.83400125
    4       0.70010459
    5       0.73326688
    6       0.84295817

l-shell populations (up)
 Atom Sh.   l       Population
    1   1   0       1.33516148
    1   2   1       2.33725636
    2   1   0       1.45704393
    2   2   1       3.76020735
    3   1   0       0.83400125
    4   1   0       0.70010459
    5   1   0       0.73326688
    6   1   0       0.84295817

Orbital populations (up)
 Atom Sh.   l   m       Population  Label
    1   1   0   0       1.33516148  s
    1   2   1  -1       0.51677905  p_y
    1   2   1   0       0.88697491  p_z
    1   2   1   1       0.93350239  p_x
    2   1   0   0       1.45704393  s
    2   2   1  -1       1.34579667  p_y
    2   2   1   0       1.09616512  p_z
    2   2   1   1       1.31824556  p_x
    3   1   0   0       0.83400125  s
    4   1   0   0       0.70010459  s
    5   1   0   0       0.73326688  s
    6   1   0   0       0.84295817  s

Fermi level:                        -0.4988360751 H          -13.5740 eV
Band energy:                        -8.7901503236 H         -239.1922 eV
TS:                                  0.0000000000 H            0.0000 eV
Band free energy (E-TS):            -8.7901503236 H         -239.1922 eV
Extrapolated E(0K):                 -8.7901503236 H         -239.1922 eV
Input / Output electrons (q):     12.0000000000     12.0000000000

Energy H0:                          -5.4747471565 H         -148.9754 eV
Energy SCC:                          0.1359223844 H            3.6986 eV
Total Electronic energy:            -5.3388247721 H         -145.2768 eV
Repulsive energy:                    0.1648285015 H            4.4852 eV
Total energy:                       -5.1739962706 H         -140.7916 eV
Extrapolated to 0:                  -5.1739962706 H         -140.7916 eV
Total Mermin free energy:           -5.1739962706 H         -140.7916 eV
Force related energy:               -5.1739962706 H         -140.7916 eV

SCC converged

Excitation Energy:                   0.0880420652 H            2.3957 eV

Total Forces
    1     -0.011089400199      0.005907192804      0.054132762251
    2      0.006982777826      0.014584434844     -0.056846829724
    3     -0.005100401733     -0.017707407491      0.003455413009
    4     -0.011541942076      0.007268353754      0.004598352729
    5      0.010538348644     -0.017159757063     -0.005344370342
    6      0.010210617538      0.007107183153      0.000004672076

Maximal derivative component:        0.568468E-01 au


