|===============================================================================
|
|  DFTB+ release 20.1
|
|  Copyright (C) 2006 - 2020  DFTB+ developers group
|
|===============================================================================
|
|  When publishing results obtained with DFTB+, please cite the following
|  reference:
|
|  * DFTB+, a software package for efficient approximate density functional
|    theory based atomistic simulations, J. Chem. Phys. 152, 124101 (2020).
|    [doi: 10.1063/1.5143190]
|
|  You should also cite additional publications crediting the parametrization
|  data you use. Please consult the documentation of the SK-files for the
|  references.
|
|===============================================================================

Reading input file 'dftb_in.hsd'
Parser version: 8

--------------------------------------------------------------------------------
Reading SK-files:
Done.


Processed input in HSD format written to 'dftb_pin.hsd'

Starting initialization...
--------------------------------------------------------------------------------
WARNING!
-> Excited state forces are not implemented yet for fractional occupations, kT=  0.3158E-02K
OpenMP threads:              1
Chosen random seed:          505837599
Mode:                        Static calculation
Self consistent charges:     Yes
SCC-tolerance:                 0.100000E-05
Max. scc iterations:                    100
Shell resolved Hubbard:      No
Spin polarisation:           No
Nr. of up electrons:             6.000000
Nr. of down electrons:           6.000000
Periodic boundaries:         No
Electronic solver:           Relatively robust
Mixer:                       Broyden mixer
Mixing parameter:                  0.200000
Maximal SCC-cycles:                     100
Nr. of chrg. vec. in memory:              0
Electronic temperature:        0.100000E-07 H      0.272114E-06 eV
Initial charges:             Set automatically (system chrg:   0.100E+01)
Included shells:             C:  s, p
                             N:  s, p
                             H:  s
Extra options:
                             Mulliken analysis
                             Force calculation
Force type                   original
                             Eigenvector printing

--------------------------------------------------------------------------------

***  Geometry step: 0

 iSCC Total electronic   Diff electronic      SCC error    
    1   -0.53186084E+01    0.00000000E+00    0.98655366E+00
    2   -0.53301837E+01   -0.11575307E-01    0.66246903E+00
    3   -0.53373415E+01   -0.71578305E-02    0.16836748E+00
    4   -0.53098588E+01    0.27482683E-01    0.61269235E+00
    5   -0.53388237E+01   -0.28964869E-01    0.97528489E-02
    6   -0.53387917E+01    0.31950855E-04    0.25628879E-01
    7   -0.53388196E+01   -0.27888859E-04    0.93809024E-02
    8   -0.53388229E+01   -0.32238222E-05    0.57462366E-02
    9   -0.53388245E+01   -0.16794111E-05    0.19982452E-02
   10   -0.53388248E+01   -0.22502722E-06    0.33849956E-03
   11   -0.53388248E+01   -0.66968626E-08    0.75880803E-04
   12   -0.53388248E+01   -0.35765169E-09    0.14065160E-06
>> Charges saved for restart in charges.bin

Total Energy:                       -5.0859542054 H         -138.3959 eV
Extrapolated to 0:                  -5.1739962706 H         -140.7916 eV
Total Mermin free energy:           -5.0859542054 H         -138.3959 eV
Force related energy:               -5.1739962706 H         -140.7916 eV

--------------------------------------------------------------------------------
DFTB+ running times                          cpu [s]             wall clock [s]
--------------------------------------------------------------------------------
SCC                                    +     0.01  ( 51.5%)      0.05  ( 53.9%)
Post-SCC processing                    +     0.01  ( 42.9%)      0.03  ( 38.2%)
--------------------------------------------------------------------------------
Missing                                +     0.00  (  5.6%)      0.01  (  7.9%)
Total                                  =     0.02  (100.0%)      0.09  (100.0%)
--------------------------------------------------------------------------------
