|===============================================================================
|
|  DFTB+ release 20.1
|
|  Copyright (C) 2006 - 2020  DFTB+ developers group
|
|===============================================================================
|
|  When publishing results obtained with DFTB+, please cite the following
|  reference:
|
|  * DFTB+, a software package for efficient approximate density functional
|    theory based atomistic simulations, J. Chem. Phys. 152, 124101 (2020).
|    [doi: 10.1063/1.5143190]
|
|  You should also cite additional publications crediting the parametrization
|  data you use. Please consult the documentation of the SK-files for the
|  references.
|
|===============================================================================

Reading input file 'dftb_in.hsd'
Parser version: 8

--------------------------------------------------------------------------------
Reading SK-files:
Done.


Processed input in HSD format written to 'dftb_pin.hsd'

Starting initialization...
--------------------------------------------------------------------------------
OpenMP threads:              1
Chosen random seed:          509430003
Mode:                        Static calculation
Self consistent charges:     Yes
SCC-tolerance:                 0.100000E-05
Max. scc iterations:                   1000
Shell resolved Hubbard:      No
Spin polarisation:           No
Nr. of up electrons:             6.000000
Nr. of down electrons:           6.000000
Periodic boundaries:         No
Electronic solver:           Relatively robust
Maximal SCC-cycles:                    1000
Initial charges:             Set automatically (system chrg:   0.100E+01)
Included shells:             C:  s, p
                             N:  s, p
                             H:  s
Spin coupling constants:     C   1(s)-1(s):  -0.455900E-01
                             C   1(s)-2(p):  -0.293000E-01
                             C   2(p)-1(s):  -0.293000E-01
                             C   2(p)-2(p):  -0.275500E-01
                             N   1(s)-1(s):  -0.468700E-01
                             N   1(s)-2(p):  -0.317000E-01
                             N   2(p)-1(s):  -0.317000E-01
                             N   2(p)-2(p):  -0.307200E-01
                             H   1(s)-1(s):  -0.792500E-01
Range separated hybrid:      Yes
  Screening parameter omega:   0.300000E+00
  Range separated algorithm:   MatrixBased
Extra options:
                             Mulliken analysis
                             Force calculation
Force type                   original
                             Eigenvector printing


REKS Calcuation:             Yes
SSR(2,2) Calcuation:         Yes
Energy Functional:           (PPS+OSS)/2
Number of Core Orbitals:                  5
Number of Active Orbitals:                2
Number of Basis:                         12
Number of States:                         2
State-Averaging Weight:          0.500000
                                 0.500000
State of Interest:                        1
Initial Guess:               Diagonalize H0 matrix
Newton-Raphson for FON opt:  Yes
NR max. Iterations:                      50
Level Shifting:              Yes
Shift Value:                     0.300000
W Scale Factor:              C  =    3.000000
                             N  =    3.000000
                             H  =    3.000000
Transition Dipole:           No
Gradient of Microstate:      No
CP-REKS Solver:              Preconditioned Conjugate-Gradient
CG max. Iterations:                     100
CG Tolerance:                  0.100000E-07
Memory for A and Hxc:        Direct Updating Without Saving
Non-Adiabatic Coupling:      Yes

--------------------------------------------------------------------------------

***  Geometry step: 0

  iSCC       reks energy        Diff energy         x_a       SCC error   
    1       -6.2671662780       0.0000000000     0.999780    1.19995672
    2       -6.2775018005      -0.0103355224     0.999895    0.07229495
    3       -6.2811956693      -0.0036938689     0.999937    0.02738143
    4       -6.2830923599      -0.0018966906     0.999956    0.01215446
    5       -6.2841018675      -0.0010095076     0.999965    0.00933041
    6       -6.2846359298      -0.0005340623     0.999970    0.00768064
    7       -6.2849151935      -0.0002792636     0.999972    0.00601337
    8       -6.2850598358      -0.0001446424     0.999973    0.00455960
    9       -6.2851343020      -0.0000744662     0.999974    0.00338554
   10       -6.2851725356      -0.0000382336     0.999975    0.00247910
   11       -6.2851921690      -0.0000196334     0.999975    0.00179865
   12       -6.2852022776      -0.0000101086     0.999975    0.00129702
   13       -6.2852075074      -0.0000052298     0.999975    0.00093158
   14       -6.2852102316      -0.0000027241     0.999975    0.00066745
   15       -6.2852116628      -0.0000014312     0.999975    0.00047756
   16       -6.2852124223      -0.0000007596     0.999975    0.00034151
   17       -6.2852128301      -0.0000004077     0.999975    0.00024424
   18       -6.2852130516      -0.0000002216     0.999975    0.00017478
   19       -6.2852131736      -0.0000001220     0.999975    0.00012664
   20       -6.2852132416      -0.0000000680     0.999975    0.00010240
   21       -6.2852132801      -0.0000000384     0.999975    0.00008249
   22       -6.2852133020      -0.0000000220     0.999975    0.00006624
   23       -6.2852133147      -0.0000000127     0.999975    0.00005305
   24       -6.2852133222      -0.0000000074     0.999975    0.00004239
   25       -6.2852133266      -0.0000000044     0.999975    0.00003380
   26       -6.2852133292      -0.0000000026     0.999975    0.00002691
   27       -6.2852133307      -0.0000000016     0.999975    0.00002138
   28       -6.2852133317      -0.0000000009     0.999975    0.00001697
   29       -6.2852133322      -0.0000000006     0.999975    0.00001346
   30       -6.2852133326      -0.0000000003     0.999975    0.00001066
   31       -6.2852133328      -0.0000000002     0.999975    0.00000843
   32       -6.2852133329      -0.0000000001     0.999975    0.00000667
   33       -6.2852133330      -0.0000000001     0.999975    0.00000527
   34       -6.2852133330      -0.0000000000     0.999975    0.00000416
   35       -6.2852133331      -0.0000000000     0.999975    0.00000328
   36       -6.2852133331      -0.0000000000     0.999975    0.00000259
   37       -6.2852133331      -0.0000000000     0.999975    0.00000204
   38       -6.2852133331      -0.0000000000     0.999975    0.00000161
   39       -6.2852133331      -0.0000000000     0.999975    0.00000127
   40       -6.2852133331      -0.0000000000     0.999975    0.00000100
  
--------------------------------------------------
 Final SA-REKS(2,2) energy:      -6.28521333
  
 State     Energy      FON(1)    FON(2)   Spin
  PPS   -6.41714439   1.999951  0.000049  0.00
  OSS   -6.15328228   1.000000  1.000000  0.00
 Trip   -6.23140365   1.000000  1.000000  1.00
--------------------------------------------------

 Lagrangian Wab:  -0.00160356 -0.00160349

--------------------------------------------------
 SSR: 2SI-2SA-REKS(2,2) Hamiltonian matrix
               PPS           OSS
   PPS    -6.41714439   -0.00225649
   OSS    -0.00225649   -6.15328228
--------------------------------------------------

----------------------------------------------------------------
 SSR: 2SI-2SA-REKS(2,2) states
                    E_n       C_{PPS}    C_{OSS}
 SSR state  1   -6.41716368  -0.999963  -0.008551
 SSR state  2   -6.15326298   0.008551  -0.999963
----------------------------------------------------------------

 unrelaxed SSR FONs for S0:  1.999878  0.000122

Total Energy:                       -6.4171636825 H         -174.6199 eV
Extrapolated to 0:                  -6.4171636825 H         -174.6199 eV

----------------------------------------------------------------------------------
 Solving CP-REKS equation for  1 state vector...
----------------------------------------------------------------------------------
  CG solver: Constructing Y initial guess
  CG solver: Iteration    1    eps =    0.000041246845
  CG solver: Iteration    2    eps =    0.000003647092
  CG solver: Iteration    3    eps =    0.000000262528
  CG solver: Iteration    4    eps =    0.000000004394
  Convergence reached in CG solver after    4 iterations
  CG solver: Calculating converged R, Z, Q2 matrix
----------------------------------------------------------------------------------

----------------------------------------------------------------------------------
 Solving CP-REKS equation for SI between  1 and  2 state vectors...
----------------------------------------------------------------------------------
  CG solver: Constructing Y initial guess
  CG solver: Iteration    1    eps =    0.000429862149
  CG solver: Iteration    2    eps =    0.000167853799
  CG solver: Iteration    3    eps =    0.000069525405
  CG solver: Iteration    4    eps =    0.000001035953
  CG solver: Iteration    5    eps =    0.000000105440
  CG solver: Iteration    6    eps =    0.000000003429
  Convergence reached in CG solver after    6 iterations
  CG solver: Calculating converged R, Z, Q2 matrix
----------------------------------------------------------------------------------

--------------------------------------------------
 Gradient Information
--------------------------------------------------
           1 st state (SSR)
    -0.00105455    -0.00342216     0.03414708
     0.00341101     0.00853547    -0.03152169
    -0.00390378    -0.00359520    -0.00534763
    -0.00222668     0.00190352     0.00392616
    -0.00017492    -0.00754867     0.00585513
     0.00394893     0.00412704    -0.00705906

           2 st state (SSR)
     0.00150369    -0.00501287     0.14007109
     0.00370745     0.00398112    -0.16142900
    -0.01713277     0.00375291     0.01622124
    -0.00935964    -0.00146524    -0.00595152
     0.00594992     0.00487548    -0.00281926
     0.01533136    -0.00613141     0.01390745
--------------------------------------------------
 Coupling Information
--------------------------------------------------
 between  1 and  2 states
--------------------------------------------------
 g vector - difference gradient
    -0.00126432     0.00079823    -0.05297198
    -0.00018120     0.00228693     0.06495947
     0.00661361    -0.00377919    -0.01079387
     0.00357473     0.00178966     0.00495530
    -0.00304597    -0.00632476     0.00433122
    -0.00569684     0.00522913    -0.01048014

 h vector - derivative coupling
    -0.00087625    -0.00016111     0.00013050
     0.00192723    -0.00055130     0.00021570
     0.00010819     0.00611539     0.00045960
    -0.00045196    -0.00614086    -0.00092038
    -0.00098754     0.00653532     0.00038651
     0.00028034    -0.00579744    -0.00027192

 G vector - GDV
    -0.00127912     0.00079536    -0.05296200
    -0.00014822     0.00227717     0.06495366
     0.00661449    -0.00367406    -0.01078443
     0.00356648     0.00168438     0.00493884
    -0.00306242    -0.00621208     0.00433720
    -0.00569122     0.00512922    -0.01048325

 H vector - DCV - non-adiabatic coupling
    -0.00323797    -0.00066212     0.00392706
     0.00731352    -0.00223693    -0.00339220
    -0.00001865     0.02341458     0.00244077
    -0.00194402    -0.02338216    -0.00380821
    -0.00354417     0.02517055     0.00118371
     0.00143129    -0.02230392    -0.00035113
--------------------------------------------------


--------------------------------------------------------------------------------
DFTB+ running times                          cpu [s]             wall clock [s]
--------------------------------------------------------------------------------
SCC                                    +     0.02  ( 64.5%)      0.02  ( 61.8%)
--------------------------------------------------------------------------------
Missing                                +     0.01  ( 35.5%)      0.01  ( 38.2%)
Total                                  =     0.03  (100.0%)      0.03  (100.0%)
--------------------------------------------------------------------------------
