|===============================================================================
|
|  DFTB+ release 20.1
|
|  Copyright (C) 2006 - 2020  DFTB+ developers group
|
|===============================================================================
|
|  When publishing results obtained with DFTB+, please cite the following
|  reference:
|
|  * DFTB+, a software package for efficient approximate density functional
|    theory based atomistic simulations, J. Chem. Phys. 152, 124101 (2020).
|    [doi: 10.1063/1.5143190]
|
|  You should also cite additional publications crediting the parametrization
|  data you use. Please consult the documentation of the SK-files for the
|  references.
|
|===============================================================================

Reading input file 'dftb_in.hsd'
Parser version: 8

--------------------------------------------------------------------------------
Reading SK-files:
Done.


Processed input in HSD format written to 'dftb_pin.hsd'

Starting initialization...
--------------------------------------------------------------------------------
OpenMP threads:              1
Chosen random seed:          508925697
Mode:                        Static calculation
Self consistent charges:     Yes
SCC-tolerance:                 0.100000E-05
Max. scc iterations:                   1000
Shell resolved Hubbard:      No
Spin polarisation:           No
Nr. of up electrons:             6.000000
Nr. of down electrons:           6.000000
Periodic boundaries:         No
Electronic solver:           Relatively robust
Maximal SCC-cycles:                    1000
Initial charges:             Set automatically (system chrg:   0.100E+01)
Included shells:             C:  s, p
                             N:  s, p
                             H:  s
Spin coupling constants:     C   1(s)-1(s):  -0.455900E-01
                             C   1(s)-2(p):  -0.293000E-01
                             C   2(p)-1(s):  -0.293000E-01
                             C   2(p)-2(p):  -0.275500E-01
                             N   1(s)-1(s):  -0.468700E-01
                             N   1(s)-2(p):  -0.317000E-01
                             N   2(p)-1(s):  -0.317000E-01
                             N   2(p)-2(p):  -0.307200E-01
                             H   1(s)-1(s):  -0.792500E-01
Range separated hybrid:      Yes
  Screening parameter omega:   0.300000E+00
  Range separated algorithm:   MatrixBased
Extra options:
                             Mulliken analysis
                             Force calculation
Force type                   original
                             Eigenvector printing


REKS Calcuation:             Yes
SSR(2,2) Calcuation:         Yes
Energy Functional:           (PPS+OSS)/2
Number of Core Orbitals:                  5
Number of Active Orbitals:                2
Number of Basis:                         12
Number of States:                         2
State-Averaging Weight:          0.500000
                                 0.500000
State of Interest:                        1
Initial Guess:               Diagonalize H0 matrix
Newton-Raphson for FON opt:  Yes
NR max. Iterations:                      50
Level Shifting:              Yes
Shift Value:                     0.300000
W Scale Factor:              C  =    3.000000
                             N  =    3.000000
                             H  =    3.000000
Transition Dipole:           No
Gradient of Microstate:      No
CP-REKS Solver:              Preconditioned Conjugate-Gradient
CG max. Iterations:                     100
CG Tolerance:                  0.100000E-07
Memory for A and Hxc:        Direct Updating Without Saving
Non-Adiabatic Coupling:      Yes

--------------------------------------------------------------------------------

***  Geometry step: 0

  iSCC       reks energy        Diff energy         x_a       SCC error   
    1       -6.2707937622       0.0000000000     0.999897    1.19548418
    2       -6.2781446574      -0.0073508953     0.999941    0.04874092
    3       -6.2805800316      -0.0024353742     0.999960    0.01731628
    4       -6.2816834070      -0.0011033754     0.999968    0.00840358
    5       -6.2822142406      -0.0005308335     0.999972    0.00697888
    6       -6.2824747370      -0.0002604965     0.999974    0.00544908
    7       -6.2826035296      -0.0001287925     0.999975    0.00409980
    8       -6.2826673929      -0.0000638633     0.999976    0.00301419
    9       -6.2826990999      -0.0000317069     0.999976    0.00218373
   10       -6.2827148527      -0.0000157528     0.999976    0.00156717
   11       -6.2827226838      -0.0000078311     0.999977    0.00111780
   12       -6.2827265794      -0.0000038956     0.999977    0.00079408
   13       -6.2827285189      -0.0000019395     0.999977    0.00056263
   14       -6.2827294856      -0.0000009666     0.999977    0.00039795
   15       -6.2827299679      -0.0000004823     0.999977    0.00028117
   16       -6.2827302089      -0.0000002410     0.999977    0.00019852
   17       -6.2827303296      -0.0000001206     0.999977    0.00014012
   18       -6.2827303901      -0.0000000605     0.999977    0.00009888
   19       -6.2827304205      -0.0000000304     0.999977    0.00006978
   20       -6.2827304358      -0.0000000153     0.999977    0.00004925
   21       -6.2827304435      -0.0000000077     0.999977    0.00003477
   22       -6.2827304475      -0.0000000039     0.999977    0.00002456
   23       -6.2827304495      -0.0000000020     0.999977    0.00001735
   24       -6.2827304505      -0.0000000010     0.999977    0.00001226
   25       -6.2827304510      -0.0000000005     0.999977    0.00000867
   26       -6.2827304513      -0.0000000003     0.999977    0.00000614
   27       -6.2827304514      -0.0000000001     0.999977    0.00000435
   28       -6.2827304515      -0.0000000001     0.999977    0.00000308
   29       -6.2827304515      -0.0000000000     0.999977    0.00000219
   30       -6.2827304515      -0.0000000000     0.999977    0.00000155
   31       -6.2827304515      -0.0000000000     0.999977    0.00000110
   32       -6.2827304516      -0.0000000000     0.999977    0.00000079
  
--------------------------------------------------
 Final SA-REKS(2,2) energy:      -6.28273045
  
 State     Energy      FON(1)    FON(2)   Spin
  PPS   -6.41361123   1.999954  0.000046  0.00
  OSS   -6.15184967   1.000000  1.000000  0.00
 Trip   -6.22879959   1.000000  1.000000  1.00
--------------------------------------------------

 Lagrangian Wab:   0.00107720  0.00107703

--------------------------------------------------
 SSR: 2SI-2SA-REKS(2,2) Hamiltonian matrix
               PPS           OSS
   PPS    -6.41361123    0.00151605
   OSS     0.00151605   -6.15184967
--------------------------------------------------

----------------------------------------------------------------
 SSR: 2SI-2SA-REKS(2,2) states
                    E_n       C_{PPS}    C_{OSS}
 SSR state  1   -6.41362001  -0.999983   0.005791
 SSR state  2   -6.15184089  -0.005791  -0.999983
----------------------------------------------------------------

 unrelaxed SSR FONs for S0:  1.999920  0.000080

Total Energy:                       -6.4136200092 H         -174.5235 eV
Extrapolated to 0:                  -6.4136200092 H         -174.5235 eV

----------------------------------------------------------------------------------
 Solving CP-REKS equation for  1 state vector...
----------------------------------------------------------------------------------
  CG solver: Constructing Y initial guess
  CG solver: Iteration    1    eps =    0.000028031482
  CG solver: Iteration    2    eps =    0.000001570751
  CG solver: Iteration    3    eps =    0.000000236619
  CG solver: Iteration    4    eps =    0.000000005142
  Convergence reached in CG solver after    4 iterations
  CG solver: Calculating converged R, Z, Q2 matrix
----------------------------------------------------------------------------------

----------------------------------------------------------------------------------
 Solving CP-REKS equation for SI between  1 and  2 state vectors...
----------------------------------------------------------------------------------
  CG solver: Constructing Y initial guess
  CG solver: Iteration    1    eps =    0.000404362360
  CG solver: Iteration    2    eps =    0.000123940031
  CG solver: Iteration    3    eps =    0.000033748981
  CG solver: Iteration    4    eps =    0.000000961537
  CG solver: Iteration    5    eps =    0.000000080860
  CG solver: Iteration    6    eps =    0.000000007965
  Convergence reached in CG solver after    6 iterations
  CG solver: Calculating converged R, Z, Q2 matrix
----------------------------------------------------------------------------------

--------------------------------------------------
 Gradient Information
--------------------------------------------------
           1 st state (SSR)
     0.00692299     0.01121109     0.03644129
    -0.02701187     0.00547096    -0.04477653
     0.00242975    -0.00306980     0.00570236
     0.01229078    -0.00514503     0.00549395
     0.00809025    -0.00611349     0.00533278
    -0.00272190    -0.00235373    -0.00819385

           2 st state (SSR)
    -0.00961864    -0.01392315     0.14391572
     0.01503562     0.01383943    -0.17213706
    -0.00178060     0.01626488     0.02324481
    -0.00701939    -0.00873479    -0.00417213
    -0.00182685     0.00316256    -0.00261061
     0.00520986    -0.01060893     0.01175928
--------------------------------------------------
 Coupling Information
--------------------------------------------------
 between  1 and  2 states
--------------------------------------------------
 g vector - difference gradient
     0.00825301     0.01251738    -0.05374520
    -0.02105047    -0.00409829     0.06369361
     0.00218830    -0.00964989    -0.00877406
     0.00973489     0.00176820     0.00481869
     0.00489629    -0.00467381     0.00398305
    -0.00402203     0.00413642    -0.00997609

 h vector - derivative coupling
    -0.00158519    -0.00436717    -0.00037872
    -0.00218476     0.00744338     0.00078269
     0.00716403     0.00156270    -0.00019342
     0.00683373    -0.00231364    -0.00126645
    -0.00540380    -0.00306233     0.00095715
    -0.00482401     0.00073705     0.00009875

 G vector - GDV
     0.00827082     0.01256712    -0.05373721
    -0.02102375    -0.00418423     0.06368027
     0.00210518    -0.00966734    -0.00877123
     0.00965509     0.00179488     0.00483304
     0.00495855    -0.00463803     0.00397169
    -0.00396588     0.00412760    -0.00997656

 H vector - DCV - non-adiabatic coupling
    -0.00568987    -0.01612767    -0.00382462
    -0.00927664     0.02825060     0.00580786
     0.02746169     0.00554216    -0.00112704
     0.02653392    -0.00875929    -0.00462433
    -0.02042458    -0.01190414     0.00383233
    -0.01860451     0.00299835    -0.00006420
--------------------------------------------------


--------------------------------------------------------------------------------
DFTB+ running times                          cpu [s]             wall clock [s]
--------------------------------------------------------------------------------
SCC                                    +     0.02  ( 59.9%)      0.02  ( 56.7%)
Post-SCC processing                    +     0.01  ( 34.6%)      0.01  ( 33.3%)
--------------------------------------------------------------------------------
Missing                                +     0.00  (  5.5%)      0.00  ( 10.0%)
Total                                  =     0.03  (100.0%)      0.03  (100.0%)
--------------------------------------------------------------------------------
