     6
  Step:     0            Position(A)                                  Velocity(au)
C        -0.03253250     0.00525505     0.02375503     0.00007646    -0.00010728    -0.00028903
N        -0.04250413    -0.06463832     1.28418867     0.00009102     0.00009869     0.00024118
H         0.88381114     0.00330877    -0.49470137    -0.00028955     0.00020289     0.00049883
H         0.78605651    -0.03823563     1.84194997    -0.00026074    -0.00033201    -0.00112477
H        -0.92213113     0.03513856     1.93401492    -0.00132816    -0.00050235     0.00122563
H        -0.98236298     0.16562840    -0.51782554    -0.00029760     0.00053838    -0.00050720
     6
  Step:     1            Position(A)                                  Velocity(au)
C        -0.03215576     0.00467996     0.02200717     0.00006032    -0.00010315    -0.00034818
N        -0.04207009    -0.06411262     1.28570837     0.00006616     0.00009374     0.00031276
H         0.88278133     0.00441597    -0.49246275    -0.00008061     0.00020222     0.00031596
H         0.78506501    -0.03999400     1.83610800    -0.00009005    -0.00031087    -0.00100185
H        -0.92892034     0.03234588     1.94030199    -0.00114392    -0.00051972     0.00106605
H        -0.98407393     0.16861959    -0.52080036    -0.00032362     0.00055485    -0.00057765
     6
  Step:     2            Position(A)                                  Velocity(au)
C        -0.03187263     0.00412661     0.01994607     0.00004246    -0.00009930    -0.00040316
N        -0.04178039    -0.06361282     1.28761023     0.00003855     0.00008918     0.00038043
H         0.88292930     0.00552101    -0.49124480     0.00013807     0.00020201     0.00012742
H         0.78507138    -0.04163650     1.83099003     0.00010172    -0.00028964    -0.00086153
H        -0.93464532     0.02945299     1.94567724    -0.00094084    -0.00053843     0.00089366
H        -0.98590331     0.17169835    -0.52414491    -0.00034064     0.00057007    -0.00064204
     6
  Step:     3            Position(A)                                  Velocity(au)
C        -0.03169117     0.00359341     0.01759559     0.00002342    -0.00009573    -0.00045355
N        -0.04164829    -0.06313682     1.28987113     0.00000890     0.00008499     0.00044353
H         0.88429209     0.00662641    -0.49106847     0.00036006     0.00020221    -0.00006280
H         0.78617806    -0.04316331     1.82668078     0.00030903    -0.00026855    -0.00070810
H        -0.93921532     0.02645416     1.95008076    -0.00072337    -0.00055787     0.00071213
H        -0.98780129     0.17485747    -0.52782584    -0.00034848     0.00058385    -0.00070023
     6
  Step:     4            Position(A)                                  Velocity(au)
C        -0.03161633     0.00307877     0.01498168     0.00000378    -0.00009244    -0.00049893
N        -0.04168301    -0.06268253     1.29246493    -0.00002202     0.00008118     0.00050152
H         0.88687036     0.00773436    -0.49193221     0.00057852     0.00020274    -0.00025050
H         0.78845387    -0.04457590     1.82323949     0.00052510    -0.00024780    -0.00054645
H        -0.94256296     0.02334678     1.95347190    -0.00049566    -0.00057742     0.00052486
H        -0.98971757     0.17808889    -0.53180928    -0.00034710     0.00059597    -0.00075204
     6
  Step:     5            Position(A)                                  Velocity(au)
C        -0.03164979     0.00258115     0.01213226    -0.00001585    -0.00008940    -0.00053889
N        -0.04188940    -0.06224794     1.29536283    -0.00005336     0.00007770     0.00055387
H         0.89062693     0.00884637    -0.49381145     0.00078643     0.00020340    -0.00043139
H         0.79192796    -0.04587669     1.82069716     0.00074214    -0.00022752    -0.00038192
H        -0.94464283     0.02013143     1.95582794    -0.00026182    -0.00059642     0.00033513
H        -0.99160202     0.18138336    -0.53606064    -0.00033658     0.00060614    -0.00079723
     6
  Step:     6            Position(A)                                  Velocity(au)
C        -0.03178994     0.00209922     0.00907730    -0.00003485    -0.00008656    -0.00057299
N        -0.04226761    -0.06183123     1.29853344    -0.00008420     0.00007451     0.00060002
H         0.89548691     0.00996293    -0.49665883     0.00097688     0.00020398    -0.00060128
H         0.79658518    -0.04706870     1.81905495     0.00095163    -0.00020778    -0.00022006
H        -0.94543158     0.01681206     1.95714383    -0.00002612    -0.00061418     0.00014636
H        -0.99340530     0.18473016    -0.54054426    -0.00031713     0.00061402    -0.00083552
     6
  Step:     7            Position(A)                                  Velocity(au)
C        -0.03203193     0.00163190     0.00584890    -0.00005265    -0.00008387    -0.00060078
N        -0.04281277    -0.06143084     1.30194269    -0.00011360     0.00007157     0.00063943
H         0.90133943     0.01108319    -0.50040511     0.00114350     0.00020420    -0.00075619
H         0.80236349    -0.04815519     1.81828401     0.00114482    -0.00018861    -0.00006632
H        -0.94492927     0.01339629     1.95743288     0.00020673    -0.00062999    -0.00003785
H        -0.99507962     0.18811675    -0.54522299    -0.00028913     0.00061924    -0.00086655
     6
  Step:     8            Position(A)                                  Velocity(au)
C        -0.03236793     0.00117843     0.00248144    -0.00006871    -0.00008126    -0.00062185
N        -0.04351483    -0.06104550     1.30555362    -0.00014059     0.00006881     0.00067152
H         0.90804114     0.01220479    -0.50496093     0.00128072     0.00020377    -0.00089258
H         0.80915390    -0.04913941     1.81832685     0.00131330    -0.00017001     0.00007424
H        -0.94316194     0.00989558     1.95672834     0.00043151    -0.00064309    -0.00021351
H        -0.99657961     0.19152863    -0.55005789    -0.00025318     0.00062142    -0.00088995
     6
  Step:     9            Position(A)                                  Velocity(au)
C        -0.03278745     0.00073840    -0.00098847    -0.00008260    -0.00007868    -0.00063582
N        -0.04435856    -0.06067425     1.30932622    -0.00016422     0.00006618     0.00069574
H         0.91542127     0.01332371    -0.51021928     0.00138420     0.00020241    -0.00100752
H         0.81680358    -0.05002446     1.81910030     0.00144964    -0.00015194     0.00019729
H        -0.94018474     0.00632538     1.95508533     0.00064246    -0.00065279    -0.00037635
H        -0.99786334     0.19494938    -0.55500816    -0.00021006     0.00062025    -0.00090542
     6
  Step:    10            Position(A)                                  Velocity(au)
C        -0.03327779     0.00031172    -0.00452230    -0.00009396    -0.00007608    -0.00064244
N        -0.04532377    -0.06031651     1.31321751    -0.00018366     0.00006362     0.00071166
H         0.92328860     0.01443438    -0.51605912     0.00145115     0.00019986    -0.00109892
H         0.82512218    -0.05081314     1.82050005     0.00154794    -0.00013438     0.00029949
H        -0.93608505     0.00270484     1.95258275     0.00083346    -0.00065852    -0.00052190
H        -0.99889354     0.19836092    -0.56003142    -0.00016085     0.00061552    -0.00091282
     6
  Step:    11            Position(A)                                  Velocity(au)
C        -0.03382465    -0.00010144    -0.00808027    -0.00010259    -0.00007343    -0.00064171
N        -0.04638590    -0.05997196     1.31718206    -0.00019820     0.00006109     0.00071900
H         0.93144017     0.01552990    -0.52235000     0.00148057     0.00019594    -0.00116570
H         0.83389097    -0.05150785     1.82240635     0.00160450    -0.00011730     0.00037876
H        -0.93098434    -0.00094386     1.94932420     0.00099831    -0.00065986    -0.00064572
H        -0.99963891     0.20174399    -0.56508459    -0.00010678     0.00060720    -0.00091224
     6
  Step:    12            Position(A)                                  Velocity(au)
C        -0.03441287    -0.00050073    -0.01162263    -0.00010841    -0.00007071    -0.00063388
N        -0.04751677    -0.05964054     1.32117301    -0.00020736     0.00005857     0.00071779
H         0.93967059     0.01660243    -0.52895722     0.00147333     0.00019058    -0.00120792
H         0.84287540    -0.05211101     1.82469089     0.00161809    -0.00010073     0.00043434
H        -0.92503915    -0.00459628     1.94543812     0.00113116    -0.00065667    -0.00074373
H        -1.00007505     0.20507938    -0.57012508    -0.00004926     0.00059549    -0.00090411
     6
  Step:    13            Position(A)                                  Velocity(au)
C        -0.03502714    -0.00088575    -0.01511106    -0.00011153    -0.00006795    -0.00061953
N        -0.04868582    -0.05932231     1.32514355    -0.00021089     0.00005605     0.00070839
H         0.94778172     0.01764371    -0.53574772     0.00143209     0.00018378    -0.00122678
H         0.85183819    -0.05262507     1.82722383     0.00159003    -0.00008469     0.00046681
H        -0.91843797    -0.00822738     1.94107505     0.00122716    -0.00064914    -0.00081266
H        -1.00018532     0.20834896    -0.57511267     0.00001025     0.00058084    -0.00088925
     6
  Step:    14            Position(A)                                  Velocity(au)
C        -0.03565279    -0.00125621    -0.01851044    -0.00011213    -0.00006519    -0.00059953
N        -0.04986146    -0.05901736     1.32904884    -0.00020884     0.00005356     0.00069154
H         0.95559234     0.01864565    -0.54259639     0.00136106     0.00017567    -0.00122463
H         0.86055315    -0.05305262     1.82988080     0.00152398    -0.00006924     0.00047797
H        -0.91139582    -0.01181336     1.93640314     0.00128287    -0.00063785    -0.00085034
H        -0.99996109     0.21153712    -0.58001164     0.00007037     0.00056395    -0.00086886
     6
  Step:    15            Position(A)                                  Velocity(au)
C        -0.03627643    -0.00161205    -0.02179057    -0.00011056    -0.00006249    -0.00057505
N        -0.05101260    -0.05872561     1.33284810    -0.00020149     0.00005113     0.00066829
H         0.96294554     0.01960093    -0.54939156     0.00126544     0.00016648    -0.00120465
H         0.86881714    -0.05339650     1.83254892     0.00142533    -0.00005441     0.00047048
H        -0.90414528    -0.01533374     1.93160131     0.00129664    -0.00062368    -0.00085594
H        -0.99940133     0.21463206    -0.58479281     0.00012991     0.00054572    -0.00084448
     6
  Step:    16            Position(A)                                  Velocity(au)
C        -0.03688651    -0.00195357    -0.02492759    -0.00010718    -0.00005993    -0.00054735
N        -0.05210995    -0.05844677     1.33650650    -0.00018931     0.00004883     0.00063994
H         0.96971367     0.02050344    -0.55603937     0.00115082     0.00015646    -0.00117052
H         0.87645880    -0.05365984     1.83513104     0.00130044    -0.00004023     0.00044757
H        -0.89692630    -0.01877319     1.92685155     0.00126858    -0.00060779    -0.00082992
H        -0.99851139     0.21762693    -0.58943537     0.00018800     0.00052715    -0.00081779
     6
  Step:    17            Position(A)                                  Velocity(au)
C        -0.03747369    -0.00228153    -0.02790450    -0.00010242    -0.00005760    -0.00051765
N        -0.05312718    -0.05818015     1.33999628    -0.00017288     0.00004672     0.00060779
H         0.97580036     0.02134858    -0.56246644     0.00102255     0.00014587    -0.00112600
H         0.88334320    -0.05384585     1.83754838     0.00115580    -0.00002663     0.00041260
H        -0.88997513    -0.02212289     1.92233101     0.00120034    -0.00059144    -0.00077386
H        -0.99730129     0.22052040    -0.59392768     0.00024415     0.00050925    -0.00079048
     6
  Step:    18            Position(A)                                  Velocity(au)
C        -0.03803081    -0.00259707    -0.03071116    -0.00009507    -0.00005422    -0.00051266
N        -0.05404152    -0.05792476     1.34329713    -0.00015393     0.00004330     0.00059119
H         0.98113832     0.02213317    -0.56861980     0.00085792     0.00005810    -0.00105837
H         0.88937213    -0.05395742     1.83974090     0.00099373     0.00007750     0.00036997
H        -0.88351534    -0.02538119     1.91820551     0.00109769    -0.00065217    -0.00068954
H        -0.99578360     0.22331660    -0.59826717     0.00032249     0.00056101    -0.00072864
     6
  Step:    19            Position(A)                                  Velocity(au)
C        -0.03853534    -0.00288703    -0.03362951    -0.00008617    -0.00004843    -0.00055164
N        -0.05484618    -0.05769665     1.34659826    -0.00013144     0.00003780     0.00060764
H         0.98538105     0.02199738    -0.57428562     0.00065627    -0.00007427    -0.00095758
H         0.89444056    -0.05298040     1.84168001     0.00080162     0.00023298     0.00031194
H        -0.87771688    -0.02940592     1.91463072     0.00096952    -0.00075256    -0.00059708
H        -0.99369989     0.22678538    -0.60206460     0.00042586     0.00064566    -0.00062797
     6
  Step:    20            Position(A)                                  Velocity(au)
C        -0.03899222    -0.00313741    -0.03686555    -0.00007760    -0.00004145    -0.00060945
N        -0.05550790    -0.05750301     1.35007631    -0.00010452     0.00003184     0.00063980
H         0.98846009     0.02130453    -0.57930311     0.00044829    -0.00016767    -0.00084096
H         0.89831548    -0.05135812     1.84322107     0.00058502     0.00034045     0.00023913
H        -0.87269876    -0.03377725     1.91154408     0.00081601    -0.00080928    -0.00050131
H        -0.99103243     0.23051996    -0.60527323     0.00052783     0.00068800    -0.00052550
     6
  Step:    21            Position(A)                                  Velocity(au)
C        -0.03940010    -0.00334894    -0.04042096    -0.00006876    -0.00003468    -0.00066638
N        -0.05601093    -0.05734187     1.35372785    -0.00007510     0.00002627     0.00067034
H         0.99037661     0.02012900    -0.58365684     0.00024142    -0.00025046    -0.00072292
H         0.90095969    -0.04918659     1.84434477     0.00036429     0.00043395     0.00016456
H        -0.86862370    -0.03842411     1.90904440     0.00063454    -0.00085646    -0.00038788
H        -0.98781805     0.23445213    -0.60792045     0.00062261     0.00072114    -0.00042846
     6
  Step:    22            Position(A)                                  Velocity(au)
C        -0.03975747    -0.00352336    -0.04428241    -0.00005961    -0.00002822    -0.00072036
N        -0.05634379    -0.05721066     1.35753724    -0.00004390     0.00002115     0.00069765
H         0.99114716     0.01851689    -0.58734934     0.00003805    -0.00032633    -0.00060586
H         0.90237006    -0.04652815     1.84505258     0.00014465     0.00051787     0.00009132
H        -0.86563623    -0.04330973     1.90722690     0.00042908    -0.00089845    -0.00025849
H        -0.98410268     0.23854639    -0.61004208     0.00070858     0.00074927    -0.00033802
     6
  Step:    23            Position(A)                                  Velocity(au)
C        -0.04006289    -0.00366275    -0.04843003    -0.00005018    -0.00002214    -0.00077027
N        -0.05649902    -0.05710669     1.36148446    -0.00001168     0.00001651     0.00072102
H         0.99079961     0.01650079    -0.59039297    -0.00015972    -0.00039710    -0.00049132
H         0.90256796    -0.04342885     1.84536008    -0.00006955     0.00059437     0.00002182
H        -0.86385315    -0.04841322     1.90617050     0.00020530    -0.00093735    -0.00011668
H        -0.97993995     0.24278272    -0.61167861     0.00078412     0.00077444    -0.00025495
     6
  Step:    24            Position(A)                                  Velocity(au)
C        -0.04031493    -0.00376930    -0.05283930    -0.00004048    -0.00001645    -0.00081521
N        -0.05647349    -0.05702724     1.36554709     0.00002072     0.00001234     0.00074002
H         0.98937287     0.01410553    -0.59280742    -0.00034962    -0.00046377    -0.00038061
H         0.90159739    -0.03992529     1.84529499    -0.00027407     0.00066471    -0.00004177
H        -0.86335556    -0.05372276     1.90593072    -0.00002957    -0.00097428     0.00003277
H        -0.97539191     0.24714969    -0.61287432     0.00084755     0.00079784    -0.00017999
     6
  Step:    25            Position(A)                                  Velocity(au)
C        -0.04051232    -0.00384535    -0.05748155    -0.00003055    -0.00001117    -0.00085437
N        -0.05626892    -0.05696968     1.36970116     0.00005235     0.00000862     0.00075435
H         0.98691772     0.01135136    -0.59461896    -0.00052914    -0.00052689    -0.00027505
H         0.89952491    -0.03604836     1.84489629    -0.00046447     0.00072960    -0.00009738
H        -0.86418147    -0.05923099     1.90653435    -0.00026704    -0.00100967     0.00018423
H        -0.97052936     0.25164137    -0.61367706     0.00089715     0.00082023    -0.00011385
     6
  Step:    26            Position(A)                                  Velocity(au)
C        -0.04065406    -0.00389331    -0.06232415    -0.00002047    -0.00000634    -0.00088700
N        -0.05589234    -0.05693152     1.37392157     0.00008218     0.00000533     0.00076381
H         0.98349862     0.00825624    -0.59586091    -0.00069544    -0.00058664    -0.00017609
H         0.89644100    -0.03182559     1.84421395    -0.00063615     0.00078945    -0.00014297
H        -0.86632012    -0.06493169     1.90797596    -0.00049783    -0.00104348     0.00033162
H        -0.96543213     0.25625560    -0.61413825     0.00093128     0.00084216    -0.00005726
     6
  Step:    27            Position(A)                                  Velocity(au)
C        -0.04073959    -0.00391573    -0.06733073    -0.00001035    -0.00000198    -0.00091247
N        -0.05535642    -0.05691053     1.37818246     0.00010918     0.00000241     0.00076832
H         0.97919557     0.00483734    -0.59657425    -0.00084550    -0.00064306    -0.00008526
H         0.89246120    -0.02728234     1.84330880    -0.00078446     0.00084452    -0.00017663
H        -0.86970937    -0.07081765     1.91021658    -0.00071254    -0.00107530     0.00046887
H        -0.96018854     0.26099265    -0.61431285     0.00094853     0.00086398    -0.00001087
     6
  Step:    28            Position(A)                                  Velocity(au)
C        -0.04076904    -0.00391533    -0.07246165    -0.00000035     0.00000187    -0.00093029
N        -0.05467932    -0.05690475     1.38245759     0.00013239    -0.00000019     0.00076788
H         0.97410509     0.00111184    -0.59680813    -0.00097622    -0.00069608    -0.00000414
H         0.88772567    -0.02244298     1.84225162    -0.00090501     0.00089499    -0.00019665
H        -0.87423646    -0.07687825     1.91318508    -0.00090238    -0.00110448     0.00059046
H        -0.95489394     0.26585437    -0.61425897     0.00094792     0.00088595     0.00002481
     6
  Step:    29            Position(A)                                  Velocity(au)
C        -0.04074346    -0.00389498    -0.07767486     0.00000934     0.00000518    -0.00094020
N        -0.05388429    -0.05691262     1.38672080     0.00015098    -0.00000254     0.00076264
H         0.96834070    -0.00290254    -0.59662025    -0.00108463    -0.00074561     0.00006572
H         0.88239817    -0.01733073     1.84112221    -0.00099388     0.00094112    -0.00020161
H        -0.87974326    -0.08309875     1.91678211    -0.00105996    -0.00113032     0.00069186
H        -0.94964836     0.27084381    -0.61403696     0.00092900     0.00090830     0.00004950
     6
  Step:    30            Position(A)                                  Velocity(au)
C        -0.04066503    -0.00385764    -0.08292710     0.00001850     0.00000796    -0.00094221
N        -0.05299875    -0.05693301     1.39094664     0.00016432    -0.00000472     0.00075286
H         0.96203198    -0.00718765    -0.59607660    -0.00116810    -0.00079168     0.00012287
H         0.87666263    -0.01196725     1.84000747    -0.00104813     0.00098334    -0.00019055
H        -0.88603498    -0.08945995     1.92088627    -0.00117982    -0.00115214     0.00076987
H        -0.94455307     0.27596482    -0.61370797     0.00089209     0.00093124     0.00006325
     6
  Step:    31            Position(A)                                  Velocity(au)
C        -0.04053724    -0.00380628    -0.08817531     0.00002689     0.00001020    -0.00093664
N        -0.05205306    -0.05696525     1.39511099     0.00017205    -0.00000683     0.00073895
H         0.95532283    -0.01172537    -0.59525092    -0.00122457    -0.00083445     0.00016610
H         0.87071729    -0.00637192     1.83899860    -0.00106608     0.00102226    -0.00016308
H        -0.89289175    -0.09593874     1.92536190    -0.00125888    -0.00116948     0.00082283
H        -0.93970654     0.28122202    -0.61333212     0.00083820     0.00095499     0.00006645
     6
  Step:    32            Position(A)                                  Velocity(au)
C        -0.04036501    -0.00374380    -0.09337827     0.00003425     0.00001194    -0.00092407
N        -0.05107899    -0.05700920     1.39919195     0.00017411    -0.00000894     0.00072146
H         0.94836801    -0.01649859    -0.59422323    -0.00125273    -0.00087431     0.00019454
H         0.86476717    -0.00056072     1.83818778    -0.00104753     0.00105868    -0.00011941
H        -0.90008175    -0.10250922     1.93006752    -0.00129646    -0.00118214     0.00085062
H        -0.93520025     0.28662073    -0.61296652     0.00076911     0.00097975     0.00005986
     6
  Step:    33            Position(A)                                  Velocity(au)
C        -0.04015463    -0.00367287    -0.09849814     0.00004036     0.00001322    -0.00090534
N        -0.05010812    -0.05706517     1.40317043     0.00017069    -0.00001115     0.00070102
H         0.94132854    -0.02149228    -0.59307773    -0.00125210    -0.00091179     0.00020772
H         0.85901538     0.00545463     1.83766463    -0.00099391     0.00109356    -0.00006042
H        -0.90737455    -0.10914445     1.93486415    -0.00129411    -0.00119020     0.00085448
H        -0.93111485     0.29216687    -0.61266339     0.00068714     0.00100579     0.00004457
     6
  Step:    34            Position(A)                                  Velocity(au)
C        -0.03991369    -0.00359594    -0.10350171     0.00004501     0.00001411    -0.00088141
N        -0.04917033    -0.05713387     1.40703076     0.00016226    -0.00001351     0.00067833
H         0.93436711    -0.02669417    -0.59190048    -0.00122298    -0.00094766     0.00020558
H         0.85365335     0.01166742     1.83751213    -0.00090824     0.00112797     0.00001239
H        -0.91455238    -0.11581793     1.93962228    -0.00125508    -0.00119404     0.00083669
H        -0.92751664     0.29786744    -0.61246818     0.00059513     0.00103332     0.00002191
     6
  Step:    35            Position(A)                                  Velocity(au)
C        -0.03965093    -0.00351494    -0.10836126     0.00004804     0.00001471    -0.00085332
N        -0.04829247    -0.05721637     1.41076106     0.00014943    -0.00001609     0.00065407
H         0.92764323    -0.03209671    -0.59077728    -0.00116646    -0.00098282     0.00018844
H         0.84885204     0.01807672     1.83780325    -0.00079488     0.00116294     0.00009700
H        -0.92141903    -0.12250591     1.94422685    -0.00118381    -0.00119428     0.00080017
H        -0.92445530     0.30372982    -0.61241826     0.00049609     0.00106243    -0.00000661
     6
  Step:    36            Position(A)                                  Velocity(au)
C        -0.03937589    -0.00343128    -0.11305476     0.00004932     0.00001510    -0.00082204
N        -0.04749740    -0.05731395     1.41435316     0.00013299    -0.00001890     0.00062885
H         0.92130838    -0.03769704    -0.58979090    -0.00108429    -0.00101816     0.00015702
H         0.84475452     0.02468676     1.83859803    -0.00065927     0.00119936     0.00019095
H        -0.92780534    -0.12918812     1.94858034    -0.00108537    -0.00119162     0.00074815
H        -0.92196282     0.30976148    -0.61254213     0.00039312     0.00109311    -0.00003938
     6
  Step:    37            Position(A)                                  Velocity(au)
C        -0.03909866    -0.00334583    -0.11756565     0.00004880     0.00001540    -0.00078846
N        -0.04680343    -0.05742801     1.41780228     0.00011374    -0.00002197     0.00060321
H         0.91550245    -0.04349706    -0.58901909    -0.00097878    -0.00105448     0.00011240
H         0.84147022     0.03150589     1.83994126    -0.00050764     0.00123780     0.00029143
H        -0.93357184    -0.13584840     1.95260392    -0.00096492    -0.00118673     0.00068388
H        -0.92005350     0.31596935    -0.61285918     0.00028922     0.00112519    -0.00007482
     6
  Step:    38            Position(A)                                  Velocity(au)
C        -0.03882951    -0.00325884    -0.12188229     0.00004647     0.00001571    -0.00075330
N        -0.04622398    -0.05755994     1.42110664     0.00009254    -0.00002528     0.00057756
H         0.91035005    -0.04950294    -0.58853248    -0.00085281    -0.00109243     0.00005597
H         0.83907103     0.03854510     1.84186088    -0.00034672     0.00127854     0.00039542
H        -0.93860857    -0.14247465     1.95623697    -0.00082748    -0.00118025     0.00061038
H        -0.91872479     0.32235902    -0.61337983     0.00018716     0.00115831    -0.00011141
     6
  Step:    39            Position(A)                                  Velocity(au)
C        -0.03857850    -0.00317003    -0.12599710     0.00004240     0.00001611    -0.00071716
N        -0.04576761    -0.05771098     1.42426672     0.00007024    -0.00002880     0.00055221
H         0.90595723    -0.05572426    -0.58839269    -0.00070983    -0.00113247    -0.00001056
H         0.83758948     0.04581608     1.84436704    -0.00018343     0.00132146     0.00049974
H        -0.94283347    -0.14905851     1.95943573    -0.00067766    -0.00117271     0.00053045
H        -0.91795865     0.32893384    -0.61410612     0.00008952     0.00119193    -0.00014771
     6
  Step:    40            Position(A)                                  Velocity(au)
C        -0.03835510    -0.00307859    -0.12990574     0.00003673     0.00001670    -0.00068049
N        -0.04543816    -0.05788213     1.42728470     0.00004763    -0.00003246     0.00052737
H         0.90240864    -0.06217278    -0.58865065    -0.00055375    -0.00117480    -0.00008519
H         0.83701883     0.05332933     1.84745192    -0.00002457     0.00136611     0.00060123
H        -0.94619015    -0.15559476     1.96217156    -0.00051976    -0.00116455     0.00044656
H        -0.91772320     0.33569414    -0.61503242    -0.00000141     0.00122540    -0.00018245
     6
  Step:    41            Position(A)                                  Velocity(au)
C        -0.03816782    -0.00298331    -0.13360644     0.00002964     0.00001753    -0.00064364
N        -0.04523505    -0.05807400     1.43016388     0.00002545    -0.00003620     0.00050315
H         0.89976506    -0.06886111    -0.58934528    -0.00038900    -0.00121939    -0.00016566
H         0.83731471     0.06109220     1.85109018     0.00012344     0.00141172     0.00069684
H        -0.94864553    -0.16208078     1.96442932    -0.00035767    -0.00115610     0.00036095
H        -0.91797446     0.34263651    -0.61614627    -0.00008366     0.00125792    -0.00021446
     6
  Step:    42            Position(A)                                  Velocity(au)
C        -0.03802386    -0.00288264    -0.13709943     0.00002139     0.00001866    -0.00060691
N        -0.04515368    -0.05828674     1.43290821     0.00000440    -0.00003992     0.00047962
H         0.89806096    -0.07580129    -0.59050220    -0.00022040    -0.00126596    -0.00024953
H         0.83839844     0.06910746     1.85524013     0.00025485     0.00145730     0.00078374
H        -0.95018764    -0.16851595     1.96620574    -0.00019499    -0.00114764     0.00027561
H        -0.91865820     0.34975335    -0.61742935    -0.00015552     0.00128869    -0.00024279
     6
  Step:    43            Position(A)                                  Velocity(au)
C        -0.03792882    -0.00277483    -0.14038642     0.00001231     0.00002012    -0.00057053
N        -0.04518592    -0.05851998     1.43552183    -0.00001495    -0.00004353     0.00045677
H         0.89730287    -0.08300345    -0.59213285    -0.00005303    -0.00131402    -0.00033421
H         0.84016164     0.07737210     1.85984554     0.00036479     0.00150173     0.00085951
H        -0.95082378    -0.17490136     1.96750825    -0.00003505    -0.00113942     0.00019237
H        -0.91971183     0.35703272    -0.61885850    -0.00021565     0.00131686    -0.00026663
     6
  Step:    44            Position(A)                                  Velocity(au)
C        -0.03788645    -0.00265801    -0.14347038     0.00000271     0.00002190    -0.00053469
N        -0.04532060    -0.05877278     1.43800881    -0.00003208    -0.00004691     0.00043456
H         0.89746878    -0.09047455    -0.59423423     0.00010801    -0.00136287    -0.00041711
H         0.84247200     0.08587682     1.86483803     0.00044953     0.00154381     0.00092217
H        -0.95057908    -0.18123958     1.96835390     0.00011901    -0.00113169     0.00011291
H        -0.92106629     0.36445839    -0.62040675    -0.00026303     0.00134169    -0.00028539
     6