 Fermi distribution function

Calculation with static geometry


********************************************************************************
 iSCC Total electronic   Diff electronic      SCC error    
   13   -0.52674231E+01   -0.10790835E-09    0.51429563E-07
********************************************************************************

 Total charge:     1.00000000

 Atomic gross charges (e)
 Atom           Charge
    1       0.29222580
    2      -0.19667087
    3       0.18294701
    4       0.27104086
    5       0.26706577
    6       0.18339142

Nr. of electrons (up):     12.00000000
Atom populations (up)
 Atom       Population
    1       3.70777420
    2       5.19667087
    3       0.81705299
    4       0.72895914
    5       0.73293423
    6       0.81660858

l-shell populations (up)
 Atom Sh.   l       Population
    1   1   0       1.41657731
    1   2   1       2.29119689
    2   1   0       1.51954781
    2   2   1       3.67712306
    3   1   0       0.81705299
    4   1   0       0.72895914
    5   1   0       0.73293423
    6   1   0       0.81660858

Orbital populations (up)
 Atom Sh.   l   m       Population  Label
    1   1   0   0       1.41657731  s
    1   2   1  -1       0.45637712  p_y
    1   2   1   0       0.85062603  p_z
    1   2   1   1       0.98419373  p_x
    2   1   0   0       1.51954781  s
    2   2   1  -1       1.44657672  p_y
    2   2   1   0       1.04824779  p_z
    2   2   1   1       1.18229854  p_x
    3   1   0   0       0.81705299  s
    4   1   0   0       0.72895914  s
    5   1   0   0       0.73293423  s
    6   1   0   0       0.81660858  s

Fermi level:                        -0.5059980290 H          -13.7689 eV
Band energy:                        -8.6028632847 H         -234.0958 eV
TS:                                  0.0000000000 H            0.0000 eV
Band free energy (E-TS):            -8.6028632847 H         -234.0958 eV
Extrapolated E(0K):                 -8.6028632847 H         -234.0958 eV
Input / Output electrons (q):     12.0000000000     12.0000000000

Energy H0:                          -5.3999520516 H         -146.9402 eV
Energy SCC:                          0.1325289118 H            3.6063 eV
Total Electronic energy:            -5.2674231398 H         -143.3339 eV
Repulsive energy:                    0.1272477440 H            3.4626 eV
Total energy:                       -5.1401753957 H         -139.8713 eV
Extrapolated to 0:                  -5.1401753957 H         -139.8713 eV
Total Mermin free energy:           -5.1401753957 H         -139.8713 eV
Force related energy:               -5.1401753957 H         -139.8713 eV

SCC converged

Excitation Energy:                   0.1105065651 H            3.0070 eV

Total Forces
    1     -0.012270381988     -0.002099137161      0.030181534674
    2      0.028699774156      0.012296200749     -0.026409172158
    3      0.001699574203     -0.006462459388     -0.002742117202
    4     -0.027543166286     -0.004018166561     -0.010511624167
    5     -0.002535519940     -0.004950462135      0.001185670077
    6      0.011949719855      0.005234024496      0.008295708777

Maximal derivative component:        0.301815E-01 au


