|===============================================================================
|
|  DFTB+ release 20.1
|
|  Copyright (C) 2006 - 2020  DFTB+ developers group
|
|===============================================================================
|
|  When publishing results obtained with DFTB+, please cite the following
|  reference:
|
|  * DFTB+, a software package for efficient approximate density functional
|    theory based atomistic simulations, J. Chem. Phys. 152, 124101 (2020).
|    [doi: 10.1063/1.5143190]
|
|  You should also cite additional publications crediting the parametrization
|  data you use. Please consult the documentation of the SK-files for the
|  references.
|
|===============================================================================

Reading input file 'dftb_in.hsd'
Parser version: 8

--------------------------------------------------------------------------------
Reading SK-files:
Done.


Processed input in HSD format written to 'dftb_pin.hsd'

Starting initialization...
--------------------------------------------------------------------------------
OpenMP threads:              1
Chosen random seed:          508927580
Mode:                        Static calculation
Self consistent charges:     Yes
SCC-tolerance:                 0.100000E-05
Max. scc iterations:                   1000
Shell resolved Hubbard:      No
Spin polarisation:           No
Nr. of up electrons:             6.000000
Nr. of down electrons:           6.000000
Periodic boundaries:         No
Electronic solver:           Relatively robust
Maximal SCC-cycles:                    1000
Initial charges:             Set automatically (system chrg:   0.100E+01)
Included shells:             C:  s, p
                             N:  s, p
                             H:  s
Spin coupling constants:     C   1(s)-1(s):  -0.455900E-01
                             C   1(s)-2(p):  -0.293000E-01
                             C   2(p)-1(s):  -0.293000E-01
                             C   2(p)-2(p):  -0.275500E-01
                             N   1(s)-1(s):  -0.468700E-01
                             N   1(s)-2(p):  -0.317000E-01
                             N   2(p)-1(s):  -0.317000E-01
                             N   2(p)-2(p):  -0.307200E-01
                             H   1(s)-1(s):  -0.792500E-01
Range separated hybrid:      Yes
  Screening parameter omega:   0.300000E+00
  Range separated algorithm:   MatrixBased
Extra options:
                             Mulliken analysis
                             Force calculation
Force type                   original
                             Eigenvector printing


REKS Calcuation:             Yes
SSR(2,2) Calcuation:         Yes
Energy Functional:           (PPS+OSS)/2
Number of Core Orbitals:                  5
Number of Active Orbitals:                2
Number of Basis:                         12
Number of States:                         2
State-Averaging Weight:          0.500000
                                 0.500000
State of Interest:                        1
Initial Guess:               Diagonalize H0 matrix
Newton-Raphson for FON opt:  Yes
NR max. Iterations:                      50
Level Shifting:              Yes
Shift Value:                     0.300000
W Scale Factor:              C  =    3.000000
                             N  =    3.000000
                             H  =    3.000000
Transition Dipole:           No
Gradient of Microstate:      No
CP-REKS Solver:              Preconditioned Conjugate-Gradient
CG max. Iterations:                     100
CG Tolerance:                  0.100000E-07
Memory for A and Hxc:        Direct Updating Without Saving
Non-Adiabatic Coupling:      Yes

--------------------------------------------------------------------------------

***  Geometry step: 0

  iSCC       reks energy        Diff energy         x_a       SCC error   
    1       -6.2628682923       0.0000000000     0.999543    1.19154400
    2       -6.2753751471      -0.0125068548     0.999803    0.09075699
    3       -6.2797172111      -0.0043420640     0.999890    0.03794755
    4       -6.2821021462      -0.0023849350     0.999928    0.01749860
    5       -6.2835345410      -0.0014323948     0.999947    0.00911185
    6       -6.2844062562      -0.0008717152     0.999957    0.00820637
    7       -6.2849309019      -0.0005246457     0.999963    0.00695579
    8       -6.2852415293      -0.0003106274     0.999966    0.00565920
    9       -6.2854228710      -0.0001813417     0.999968    0.00447335
   10       -6.2855277376      -0.0001048666     0.999969    0.00346392
   11       -6.2855880912      -0.0000603536     0.999970    0.00272963
   12       -6.2856228015      -0.0000347103     0.999970    0.00218667
   13       -6.2856428140      -0.0000200126     0.999971    0.00174896
   14       -6.2856544093      -0.0000115952     0.999971    0.00139763
   15       -6.2856611718      -0.0000067625     0.999971    0.00111627
   16       -6.2856651458      -0.0000039740     0.999971    0.00089119
   17       -6.2856674999      -0.0000023541     0.999971    0.00071127
   18       -6.2856689056      -0.0000014058     0.999971    0.00056749
   19       -6.2856697516      -0.0000008459     0.999971    0.00045264
   20       -6.2856702643      -0.0000005127     0.999971    0.00036093
   21       -6.2856705771      -0.0000003128     0.999971    0.00028771
   22       -6.2856707690      -0.0000001919     0.999971    0.00022929
   23       -6.2856708873      -0.0000001183     0.999971    0.00018268
   24       -6.2856709605      -0.0000000733     0.999971    0.00014550
   25       -6.2856710061      -0.0000000455     0.999971    0.00011587
   26       -6.2856710344      -0.0000000284     0.999971    0.00009225
   27       -6.2856710522      -0.0000000177     0.999971    0.00007343
   28       -6.2856710633      -0.0000000111     0.999971    0.00005872
   29       -6.2856710702      -0.0000000070     0.999971    0.00004699
   30       -6.2856710746      -0.0000000044     0.999971    0.00003758
   31       -6.2856710773      -0.0000000027     0.999971    0.00003003
   32       -6.2856710791      -0.0000000017     0.999971    0.00002398
   33       -6.2856710802      -0.0000000011     0.999971    0.00001914
   34       -6.2856710809      -0.0000000007     0.999971    0.00001527
   35       -6.2856710813      -0.0000000004     0.999971    0.00001217
   36       -6.2856710816      -0.0000000003     0.999971    0.00000970
   37       -6.2856710817      -0.0000000002     0.999971    0.00000773
   38       -6.2856710818      -0.0000000001     0.999971    0.00000616
   39       -6.2856710819      -0.0000000001     0.999971    0.00000491
   40       -6.2856710819      -0.0000000000     0.999971    0.00000391
   41       -6.2856710820      -0.0000000000     0.999971    0.00000311
   42       -6.2856710820      -0.0000000000     0.999971    0.00000248
   43       -6.2856710820      -0.0000000000     0.999971    0.00000197
   44       -6.2856710820      -0.0000000000     0.999971    0.00000157
   45       -6.2856710820      -0.0000000000     0.999971    0.00000125
   46       -6.2856710820      -0.0000000000     0.999971    0.00000099
  
--------------------------------------------------
 Final SA-REKS(2,2) energy:      -6.28567108
  
 State     Energy      FON(1)    FON(2)   Spin
  PPS   -6.41598966   1.999941  0.000059  0.00
  OSS   -6.15535250   1.000000  1.000000  0.00
 Trip   -6.23406972   1.000000  1.000000  1.00
--------------------------------------------------

 Lagrangian Wab:  -0.00261648 -0.00261638

--------------------------------------------------
 SSR: 2SI-2SA-REKS(2,2) Hamiltonian matrix
               PPS           OSS
   PPS    -6.41598966   -0.00368019
   OSS    -0.00368019   -6.15535250
--------------------------------------------------

----------------------------------------------------------------
 SSR: 2SI-2SA-REKS(2,2) states
                    E_n       C_{PPS}    C_{OSS}
 SSR state  1   -6.41604162  -0.999900  -0.014116
 SSR state  2   -6.15530055   0.014116  -0.999900
----------------------------------------------------------------

 unrelaxed SSR FONs for S0:  1.999742  0.000258

Total Energy:                       -6.4160416176 H         -174.5894 eV
Extrapolated to 0:                  -6.4160416176 H         -174.5894 eV

----------------------------------------------------------------------------------
 Solving CP-REKS equation for  1 state vector...
----------------------------------------------------------------------------------
  CG solver: Constructing Y initial guess
  CG solver: Iteration    1    eps =    0.000052167553
  CG solver: Iteration    2    eps =    0.000007548811
  CG solver: Iteration    3    eps =    0.000000322513
  CG solver: Iteration    4    eps =    0.000000040423
  CG solver: Iteration    5    eps =    0.000000005728
  Convergence reached in CG solver after    5 iterations
  CG solver: Calculating converged R, Z, Q2 matrix
----------------------------------------------------------------------------------

----------------------------------------------------------------------------------
 Solving CP-REKS equation for SI between  1 and  2 state vectors...
----------------------------------------------------------------------------------
  CG solver: Constructing Y initial guess
  CG solver: Iteration    1    eps =    0.000704760456
  CG solver: Iteration    2    eps =    0.000470890942
  CG solver: Iteration    3    eps =    0.000143747554
  CG solver: Iteration    4    eps =    0.000001919598
  CG solver: Iteration    5    eps =    0.000000253875
  CG solver: Iteration    6    eps =    0.000000006970
  Convergence reached in CG solver after    6 iterations
  CG solver: Calculating converged R, Z, Q2 matrix
----------------------------------------------------------------------------------

--------------------------------------------------
 Gradient Information
--------------------------------------------------
           1 st state (SSR)
     0.00897509    -0.00609779     0.02303744
    -0.00323050     0.01470638    -0.01683954
    -0.00060886     0.00688813    -0.00522828
    -0.00202177    -0.01156362    -0.00250470
    -0.00102751     0.00198105     0.00155116
    -0.00208645    -0.00591415    -0.00001609

           2 st state (SSR)
    -0.00002538     0.00371793     0.12731613
    -0.00337708    -0.00812284    -0.14342498
    -0.01156149    -0.00656723     0.01439407
    -0.00600547     0.00974246    -0.00941148
     0.00615078    -0.00223600    -0.00777838
     0.01481864     0.00346569     0.01890463
--------------------------------------------------
 Coupling Information
--------------------------------------------------
 between  1 and  2 states
--------------------------------------------------
 g vector - difference gradient
     0.00442723    -0.00486586    -0.05221573
     0.00020411     0.01144776     0.06334580
     0.00551679     0.00690579    -0.00980726
     0.00190723    -0.01087609     0.00344445
    -0.00359986     0.00230002     0.00470231
    -0.00845549    -0.00491161    -0.00946957

 h vector - derivative coupling
     0.00264883    -0.00155641     0.00196887
    -0.00463120    -0.00101263    -0.00098618
    -0.00135600    -0.00621193    -0.00027693
     0.00302455     0.00774797     0.00036514
     0.00032866    -0.00675106    -0.00126354
    -0.00001485     0.00778406     0.00019264

 G vector - GDV
     0.00450024    -0.00490786    -0.05213934
     0.00007329     0.01141461     0.06329272
     0.00547631     0.00672768    -0.00981117
     0.00199185    -0.01065304     0.00345339
    -0.00358915     0.00210853     0.00466477
    -0.00845254    -0.00468992    -0.00946036

 H vector - DCV - non-adiabatic coupling
     0.00967550    -0.00544001     0.01320110
    -0.01777671    -0.00512148    -0.01063875
    -0.00579575    -0.02456226     0.00000011
     0.01138872     0.03088082     0.00102692
     0.00164973    -0.02613051    -0.00535311
     0.00085851     0.03037344     0.00176374
--------------------------------------------------


--------------------------------------------------------------------------------
DFTB+ running times                          cpu [s]             wall clock [s]
--------------------------------------------------------------------------------
SCC                                    +     0.02  ( 68.4%)      0.02  ( 61.3%)
--------------------------------------------------------------------------------
Missing                                +     0.01  ( 31.6%)      0.01  ( 38.7%)
Total                                  =     0.03  (100.0%)      0.03  (100.0%)
--------------------------------------------------------------------------------
