    14
  Step:     0            Position(A)                                  Velocity(au)
C        -6.01165147    -0.79439210     0.01200859    -0.00038952    -0.00004109     0.00019928
C        -4.65194161    -0.73161488     0.08513494     0.00019282     0.00009766    -0.00019337
H        -6.64006400     0.00740199    -0.40633977    -0.00018271     0.00005018    -0.00053130
H        -6.45162860    -1.76485944     0.27518607    -0.00071037    -0.00112929    -0.00020498
H        -4.19926728    -1.63333082     0.56662714    -0.00020165     0.00023975     0.00007737
C        -3.95113145     0.44388101    -0.19412685     0.00017999     0.00008782     0.00006142
C        -2.60646613     0.58819003     0.10608438     0.00009444    -0.00011338    -0.00006168
H        -4.43747314     1.36320927    -0.63256790    -0.00008977    -0.00019260    -0.00018830
H        -2.08132642    -0.28968182     0.58179026    -0.00015182     0.00000464     0.00047356
C        -1.82285073     1.73387878     0.01324516     0.00030671    -0.00022140     0.00018238
H        -2.28281890     2.73059737    -0.24468969     0.00142153    -0.00021043    -0.00054613
N        -0.50532672     1.72765211     0.29336128    -0.00026497     0.00018858    -0.00010259
H         0.04390165     2.54862253     0.12410581    -0.00024051     0.00027490     0.00079010
H         0.02739104     0.89563229     0.40673162    -0.00074359     0.00061108    -0.00068517
    14
  Step:     1            Position(A)                                  Velocity(au)
C        -6.01613859    -0.79492204     0.01411483    -0.00042907    -0.00005743     0.00018572
C        -4.64974775    -0.73060922     0.08313165     0.00020505     0.00008665    -0.00017295
H        -6.64181843     0.00761475    -0.41177684    -0.00013702    -0.00001651    -0.00045813
H        -6.45994526    -1.77661861     0.27290800    -0.00079343    -0.00098872    -0.00021745
H        -4.20097235    -1.62962924     0.56675572    -0.00010485     0.00042979    -0.00005117
C        -3.94952611     0.44496678    -0.19361449     0.00011190     0.00010951     0.00003208
C        -2.60489733     0.58685540     0.10560635     0.00019328    -0.00012995    -0.00002541
H        -4.43848984     1.35972342    -0.63414743    -0.00009511    -0.00043849    -0.00010090
H        -2.08358609    -0.28891558     0.58620881    -0.00025913     0.00013230     0.00033497
C        -1.81964793     1.73158501     0.01518955     0.00027679    -0.00019802     0.00017211
H        -2.26657759     2.72707780    -0.25052283     0.00153185    -0.00042397    -0.00052111
N        -0.50819067     1.72978024     0.29224584    -0.00025724     0.00020178    -0.00010096
H         0.04162818     2.55227600     0.13269249    -0.00017706     0.00039309     0.00077977
H         0.01961286     0.90112017     0.39942208    -0.00065596     0.00036374    -0.00064550
    14
  Step:     2            Position(A)                                  Velocity(au)
C        -6.02103818    -0.79564859     0.01607160    -0.00046461    -0.00007676     0.00017196
C        -4.64745573    -0.72971921     0.08135142     0.00021097     0.00007736    -0.00015296
H        -6.64306160     0.00704071    -0.41636230    -0.00009149    -0.00009041    -0.00037749
H        -6.46898629    -1.78648963     0.27042893    -0.00084525    -0.00079099    -0.00023975
H        -4.20156118    -1.62392828     0.56550770     0.00000369     0.00060000    -0.00017117
C        -3.94868353     0.44627684    -0.19342501     0.00004098     0.00012783     0.00000293
C        -2.60223771     0.58534702     0.10552849     0.00029310    -0.00014445     0.00001096
H        -4.43955378     1.35361645    -0.63477520    -0.00010176    -0.00066427    -0.00001781
H        -2.08699543    -0.28678758     0.58911834    -0.00035750     0.00024742     0.00020125
C        -1.81679541     1.72954665     0.01701043     0.00024311    -0.00017557     0.00016009
H        -2.24930681     2.72132231    -0.25608991     0.00160594    -0.00061155    -0.00049987
N        -0.51095424     1.73206634     0.29115253    -0.00024578     0.00021677    -0.00009848
H         0.04002820     2.55722220     0.14116486    -0.00012089     0.00050494     0.00077021
H         0.01304063     0.90358975     0.39261008    -0.00053277     0.00007551    -0.00059632
    14
  Step:     3            Position(A)                                  Velocity(au)
C        -6.02630273    -0.79660127     0.01787683    -0.00049558    -0.00009845     0.00015803
C        -4.64513235    -0.72891682     0.07978528     0.00021112     0.00007143    -0.00013415
H        -6.64382002     0.00563692    -0.42003520    -0.00005053    -0.00016497    -0.00029324
H        -6.47843663    -1.79392295     0.26766295    -0.00087105    -0.00055073    -0.00026791
H        -4.20089162    -1.61650306     0.56301112     0.00012624     0.00074025    -0.00027654
C        -3.94862965     0.44776335    -0.19355035    -0.00003170     0.00014083    -0.00002492
C        -2.59848522     0.58369527     0.10584605     0.00039211    -0.00015560     0.00004633
H        -4.44071598     1.34519134    -0.63453700    -0.00011648    -0.00085498     0.00005394
H        -2.09140706    -0.28350279     0.59061157    -0.00043800     0.00033770     0.00007973
C        -1.81432947     1.72774417     0.01869193     0.00020668    -0.00015562     0.00014693
H        -2.23144455     2.71369898    -0.26145850     0.00163670    -0.00075824    -0.00048716
N        -0.51356753     1.73452255     0.29009134    -0.00022894     0.00023193    -0.00009502
H         0.03898340     2.56332260     0.14954239    -0.00007830     0.00059890     0.00076303
H         0.00795745     0.90277218     0.38637640    -0.00039499    -0.00021834    -0.00054190
    14
  Step:     4            Position(A)                                  Velocity(au)
C        -6.03187998    -0.79780237     0.01952875    -0.00052163    -0.00012181     0.00014395
C        -4.64283698    -0.72815661     0.07841671     0.00020624     0.00007028    -0.00011712
H        -6.64416711     0.00343163    -0.42277759    -0.00001825    -0.00023385    -0.00020925
H        -6.48804218    -1.79853783     0.26456794    -0.00087668    -0.00028381    -0.00029798
H        -4.19879949    -1.60773382     0.55945795     0.00026437     0.00084185    -0.00036194
C        -3.94937712     0.44935783    -0.19397024    -0.00010466     0.00014680    -0.00005038
C        -2.59365948     0.58194290     0.10654211     0.00048802    -0.00016250     0.00007959
H        -4.44210211     1.33491220    -0.63359516    -0.00014603    -0.00099642     0.00010751
H        -2.09657752    -0.27939970     0.59086265    -0.00049219     0.00039126    -0.00002215
C        -1.81227392     1.72614208     0.02022479     0.00016880    -0.00013941     0.00013321
H        -2.21350093     2.70473440    -0.26674740     0.00161825    -0.00085047    -0.00048745
N        -0.51596271     1.73714018     0.28907389    -0.00020528     0.00024528    -0.00009043
H         0.03831525     2.57032430     0.15785757    -0.00005370     0.00066615     0.00075896
H         0.00439957     0.89881317     0.38075490    -0.00026454    -0.00048075    -0.00048612
    14
  Step:     5            Position(A)                                  Velocity(au)
C        -6.03771435    -0.79926612     0.02102597    -0.00054243    -0.00014607     0.00012977
C        -4.64062045    -0.72737925     0.07722313     0.00019698     0.00007486    -0.00010230
H        -6.64421935     0.00052101    -0.42461301     0.00000176    -0.00029115    -0.00012919
H        -6.49761579    -1.80013176     0.26114417    -0.00086838    -0.00000665    -0.00032620
H        -4.19510801    -1.59808595     0.55509300     0.00041866     0.00089843    -0.00042342
C        -3.95091920     0.45097480    -0.19465257    -0.00017571     0.00014450    -0.00007242
C        -2.58780882     0.58014031     0.10758727     0.00057784    -0.00016471     0.00010959
H        -4.44391062     1.32339266    -0.63218505    -0.00019670    -0.00107597     0.00013663
H        -2.10217472    -0.27494331     0.59012693    -0.00051258     0.00039720    -0.00009725
C        -1.81063664     1.72469424     0.02160620     0.00013101    -0.00012755     0.00011948
H        -2.19604226     2.69509337    -0.27212244     0.00154668    -0.00087762    -0.00050448
N        -0.51805848     1.73988855     0.28811306    -0.00017391     0.00025499    -0.00008463
H         0.03780866     2.57789590     0.16614609    -0.00004918     0.00070146     0.00075788
H         0.00217013     0.89225479     0.37574166    -0.00016002    -0.00067967    -0.00043178
    14
  Step:     6            Position(A)                                  Velocity(au)
C        -6.04374658    -0.80099798     0.02236766    -0.00055754    -0.00017038     0.00011554
C        -4.63852760    -0.72651899     0.07617870     0.00018369     0.00008530    -0.00008984
H        -6.64412862    -0.00293776    -0.42560381     0.00000671    -0.00033176    -0.00005633
H        -6.50703972    -1.79868337     0.25743162    -0.00085261     0.00026416    -0.00034905
H        -4.18964052    -1.58807904     0.55019475     0.00058822     0.00090700    -0.00045911
C        -3.95322121     0.45251896    -0.19555459    -0.00024206     0.00013349    -0.00009019
C        -2.58101819     0.57833952     0.10893966     0.00065802    -0.00016239     0.00013526
H        -4.44640535     1.31137328    -0.63060615    -0.00027354    -0.00108410     0.00013636
H        -2.10779110    -0.27071025     0.58873520    -0.00049343     0.00034691    -0.00013952
C        -1.80940793     1.72335169     0.02283871     0.00009489    -0.00011990     0.00010616
H        -2.17966443     2.68553471    -0.27778396     0.00142088    -0.00083414    -0.00054055
N        -0.51976730     1.74271865     0.28722238    -0.00013464     0.00025970    -0.00007761
H         0.03723939     2.58567009     0.17443772    -0.00006436     0.00070347     0.00075896
H         0.00089881     0.88394402     0.37130888    -0.00009342    -0.00079339    -0.00038039
    14
  Step:     7            Position(A)                                  Velocity(au)
C        -6.04991156    -0.80299356     0.02355353    -0.00056633    -0.00019378     0.00010128
C        -4.63660179    -0.72551322     0.07525772     0.00016635     0.00010090    -0.00007957
H        -6.64407252    -0.00673681    -0.42584528    -0.00000518    -0.00035171     0.00000672
H        -6.51626817    -1.79435281     0.25350797    -0.00083603     0.00051212    -0.00036315
H        -4.18223947    -1.57824364     0.54504918     0.00077023     0.00086892    -0.00046968
C        -3.95621481     0.45389508    -0.19662557    -0.00030069     0.00011422    -0.00010314
C        -2.57341327     0.57658776     0.11054639     0.00072505    -0.00015621     0.00015575
H        -4.44989485     1.29967600    -0.62920188    -0.00037910    -0.00101636     0.00010411
H        -2.11296942    -0.26735398     0.58707458    -0.00043190     0.00023588    -0.00014533
C        -1.80856084     1.72207128     0.02392856     0.00006190    -0.00011556     0.00009347
H        -2.16495786     2.67684492    -0.28394796     0.00124329    -0.00072155    -0.00059584
N        -0.52100394     1.74557004     0.28641509    -0.00008806     0.00025872    -0.00006943
H         0.03640071     2.59328557     0.18274985    -0.00009659     0.00067440     0.00076093
H         0.00012631     0.87489791     0.36741993    -0.00006902    -0.00081278    -0.00033220
    14
  Step:     8            Position(A)                                  Velocity(au)
C        -6.05613605    -0.80523729     0.02458337    -0.00056805    -0.00021519     0.00008698
C        -4.63488848    -0.72431164     0.07443797     0.00014475     0.00012021    -0.00007104
H        -6.64424205    -0.01063212    -0.42545689    -0.00003448    -0.00034856     0.00005825
H        -6.52532940    -1.78747968     0.24948705    -0.00082544     0.00072118    -0.00036528
H        -4.17279018    -1.56906986     0.53991966     0.00095948     0.00079045    -0.00045865
C        -3.95979946     0.45501780    -0.19781089    -0.00034911     0.00008801    -0.00011117
C        -2.56515631     0.57492221     0.11234697     0.00077614    -0.00014729     0.00017061
H        -4.45469884     1.28913835    -0.62832852    -0.00051212    -0.00087546     0.00004076
H        -2.11723965    -0.26554999     0.58555579    -0.00032901     0.00006565    -0.00011467
C        -1.80805379     1.72082362     0.02488351     0.00003318    -0.00011298     0.00008144
H        -2.15246509     2.66974937    -0.29081906     0.00102032    -0.00055007    -0.00066778
N        -0.52169386     1.74837865     0.28570336    -0.00003548     0.00025204    -0.00006023
H         0.03512631     2.60042379     0.19108442    -0.00014138     0.00061948     0.00076236
H        -0.00061104     0.86616285     0.36404139    -0.00008402    -0.00074072    -0.00028656
    14
  Step:     9            Position(A)                                  Velocity(au)
C        -6.06233865    -0.80770118     0.02545633    -0.00056204    -0.00023343     0.00007253
C        -4.63343515    -0.72288333     0.07370365     0.00011885     0.00014127    -0.00006356
H        -6.64482688    -0.01436221    -0.42457104    -0.00008032    -0.00032171     0.00009768
H        -6.53432624    -1.77857561     0.24551672    -0.00082754     0.00087630    -0.00035253
H        -4.16124902    -1.56095094     0.53501536     0.00114824     0.00068269    -0.00043218
C        -3.96385230     0.45582051    -0.19905756    -0.00038591     0.00005691    -0.00011470
C        -2.55643378     0.57336560     0.11427873     0.00080977    -0.00013716     0.00017993
H        -4.46109855     1.28052355    -0.62831019    -0.00066645    -0.00067268    -0.00004842
H        -2.12016711    -0.26591769     0.58456593    -0.00019039    -0.00015440    -0.00005224
C        -1.80783506     1.71959967     0.02571023     0.00000944    -0.00011009     0.00006986
H        -2.14263636     2.66481106    -0.29855703     0.00076207    -0.00033854    -0.00075077
N        -0.52178021     1.75108389     0.28509741     0.00002126     0.00024022    -0.00005021
H         0.03330778     2.60683786     0.19942798    -0.00019291     0.00054617     0.00076198
H        -0.00171168     0.85869314     0.36115093    -0.00013031    -0.00058966    -0.00024227
    14
  Step:    10            Position(A)                                  Velocity(au)
C        -6.06843186    -0.81034405     0.02617004    -0.00054793    -0.00024734     0.00005776
C        -4.63228844    -0.72122102     0.07304752     0.00008889     0.00016184    -0.00005630
H        -6.64599919    -0.01767010    -0.42331991    -0.00014034    -0.00027263     0.00012563
H        -6.54343342    -1.76830883     0.24177487    -0.00084844     0.00096462    -0.00032244
H        -4.14767023    -1.55413480     0.53046492     0.00132672     0.00056020    -0.00039831
C        -3.96824200     0.45626276    -0.20032012    -0.00041091     0.00002356    -0.00011465
C        -2.54744094     0.57192160     0.11628330     0.00082581    -0.00012775     0.00018438
H        -4.46927871     1.27442221    -0.62938783    -0.00083090    -0.00042760    -0.00015375
H        -2.12140477    -0.26892774     0.58441295    -0.00002605    -0.00040680     0.00003250
C        -1.80784725     1.71841518     0.02641176    -0.00000895    -0.00010457     0.00005830
H        -2.13579332     2.66234321    -0.30724357     0.00048127    -0.00011220    -0.00083650
N        -0.52122869     1.75363399     0.28460485     0.00008000     0.00022424    -0.00003964
H         0.03090606     2.61237233     0.20775419    -0.00024465     0.00046330     0.00075878
H        -0.00346187     0.85326291     0.35874134    -0.00019652    -0.00037851    -0.00019791
    14
  Step:    11            Position(A)                                  Velocity(au)
C        -6.07432576    -0.81311213     0.02671992    -0.00052571    -0.00025588     0.00004246
C        -4.63149060    -0.71934276     0.07247192     0.00005540     0.00017966    -0.00004841
H        -6.64789718    -0.02032654    -0.42182260    -0.00021078    -0.00020488     0.00014389
H        -6.55288749    -1.75747280     0.23846268    -0.00089277     0.00097726    -0.00027347
H        -4.13222447    -1.54869553     0.52630154     0.00148403     0.00043896    -0.00036574
C        -3.97284177     0.45633591    -0.20156573    -0.00042496    -0.00000903    -0.00011231
C        -2.53836757     0.57057078     0.11831244     0.00082522    -0.00012127     0.00018506
H        -4.47927613     1.27116905    -0.63167378    -0.00099047    -0.00016579    -0.00026227
H        -2.12073698    -0.27481732     0.58527698     0.00015091    -0.00066768     0.00012643
C        -1.80803089     1.71731211     0.02698562    -0.00002193    -0.00009411     0.00004623
H        -2.13210770     2.66235646    -0.31685699     0.00019175     0.00010122    -0.00091506
N        -0.52003014     1.75598952     0.28423014     0.00013840     0.00020532    -0.00002883
H         0.02795558     2.61697336     0.21602767    -0.00028998     0.00038018     0.00075212
H        -0.00601101     0.85041241     0.35682137    -0.00026968    -0.00013004    -0.00015203
    14
  Step:    12            Position(A)                                  Velocity(au)
C        -6.07993287    -0.81594188     0.02709902    -0.00049585    -0.00025839     0.00002645
C        -4.63107649    -0.71729054     0.07198841     0.00001913     0.00019271    -0.00003912
H        -6.65061044    -0.02215220    -0.42017202    -0.00028671    -0.00012382     0.00015527
H        -6.56296446    -1.74692948     0.23579223    -0.00096256     0.00091150    -0.00020541
H        -4.11520434    -1.54453171     0.52246361     0.00160947     0.00033384    -0.00034242
C        -3.97753891     0.45606526    -0.20277719    -0.00042960    -0.00003785    -0.00010914
C        -2.52938777     0.56926861     0.12033183     0.00080972    -0.00011990     0.00018329
H        -4.49094724     1.27079532    -0.63512551    -0.00112865     0.00008529    -0.00035990
H        -2.11810339    -0.28353459     0.58717890     0.00032633    -0.00091033     0.00021489
C        -1.80832702     1.71635626     0.02742311    -0.00002959    -0.00007687     0.00003312
H        -2.13159842     2.66455770    -0.32726227    -0.00009319     0.00027629    -0.00097660
N        -0.51820100     1.75812567     0.28397418     0.00019416     0.00018486    -0.00001810
H         0.02456211     2.62068949     0.22420829    -0.00032273     0.00030577     0.00074178
H        -0.00936155     0.85041794     0.35541532    -0.00033637     0.00013110    -0.00010327
    14
  Step:    13            Position(A)                                  Velocity(au)
C        -6.08517343    -0.81876493     0.02729853    -0.00045931    -0.00025478     0.00000961
C        -4.63107210    -0.71512679     0.07161617    -0.00001911     0.00019940    -0.00002785
H        -6.65416947    -0.02303540    -0.41842573    -0.00036250    -0.00003612     0.00016324
H        -6.57394532    -1.73753204     0.23396900    -0.00105601     0.00077274    -0.00011984
H        -4.09701425    -1.54139208     0.51881052     0.00169397     0.00025643    -0.00033431
C        -3.98224001     0.45550781    -0.20395331    -0.00042658    -0.00006033    -0.00010647
C        -2.52065340     0.56794775     0.12232230     0.00078144    -0.00012544     0.00018037
H        -4.50396758     1.27303501    -0.63954731    -0.00123039     0.00030105    -0.00043398
H        -2.11359780    -0.29473253     0.58997800     0.00048736    -0.00110983     0.00028431
C        -1.80867832     1.71563032     0.02771016    -0.00003214    -0.00005175     0.00001857
H        -2.13414646     2.66840078    -0.33822198    -0.00036215     0.00039377    -0.00101290
N        -0.51578254     1.76003376     0.28383410     0.00024513     0.00016441    -0.00000781
H         0.02089515     2.62366277     0.23225551    -0.00033775     0.00024782     0.00072789
H        -0.01336971     0.85328039     0.35456221    -0.00038356     0.00037969    -0.00005030
    14
  Step:    14            Position(A)                                  Velocity(au)
C        -6.08998115    -0.82151572     0.02730916    -0.00041756    -0.00024569    -0.00000803
C        -4.63149461    -0.71292833     0.07137924    -0.00005857     0.00019873    -0.00001430
H        -6.65854075    -0.02294244    -0.41660078    -0.00043237     0.00005103     0.00017149
H        -6.58606679    -1.73002441     0.23317048    -0.00116659     0.00057558    -0.00002036
H        -4.07814544    -1.53892186     0.51514984     0.00173116     0.00021364    -0.00034473
C        -3.98687124     0.45474546    -0.20510637    -0.00041762    -0.00007462    -0.00010534
C        -2.51229219     0.56652445     0.12427782     0.00074260    -0.00013894     0.00017733
H        -4.51786437     1.27738131    -0.64461975    -0.00128458     0.00046344    -0.00047535
H        -2.10744147    -0.30781427     0.59339880     0.00062418    -0.00124708     0.00032450
C        -1.80903024     1.71522414     0.02782938    -0.00002987    -0.00001858     0.00000241
H        -2.13952112     2.67317227    -0.34942133    -0.00060636     0.00044294    -0.00101848
N        -0.51283829     1.76172255     0.28380321     0.00028945     0.00014559     0.00000169
H         0.01717308     2.62611098     0.24013222    -0.00033147     0.00021202     0.00071090
H        -0.01775256     0.85872448     0.35431481    -0.00039920     0.00059116     0.00000807
    14
  Step:    15            Position(A)                                  Velocity(au)
C        -6.09430832    -0.82413994     0.02712291    -0.00037247    -0.00023248    -0.00002624
C        -4.63235335    -0.71077927     0.07130339    -0.00009858     0.00019035     0.00000155
H        -6.66362843    -0.02191904    -0.41467411    -0.00049100     0.00013070     0.00018342
H        -6.59946681    -1.72494005     0.23352359    -0.00128312     0.00034281     0.00008758
H        -4.05914183    -1.53671837     0.51126900     0.00171782     0.00020749    -0.00037418
C        -3.99137628     0.45387530    -0.20625780    -0.00040413    -0.00007983    -0.00010636
C        -2.50440767     0.56490827     0.12620181     0.00069531    -0.00016051     0.00017483
H        -4.53207017     1.28317367    -0.64994651    -0.00128541     0.00056284    -0.00047937
H        -2.09994265    -0.32201480     0.59707711     0.00073089    -0.00131118     0.00032978
C        -1.80933178     1.71522383     0.02776279    -0.00002315     0.00002182    -0.00001531
H        -2.14741171     2.67809096    -0.36050308    -0.00081989     0.00042172    -0.00099106
N        -0.50945032     1.76321888     0.28387110     0.00032564     0.00013004     0.00001009
H         0.01364352     2.62830121     0.24780780    -0.00030227     0.00020139     0.00069150
H        -0.02210293     0.86621311     0.35473880    -0.00037307     0.00074312     0.00007298
    14
  Step:    16            Position(A)                                  Velocity(au)
C        -6.09812959    -0.82660174     0.02673509    -0.00032614    -0.00021702    -0.00004466
C        -4.63365116    -0.70876407     0.07141307    -0.00013861     0.00017453     0.00001945
H        -6.66928230    -0.02008312    -0.41258809    -0.00053398     0.00019695     0.00020178
H        -6.61413751    -1.72252483     0.23508638    -0.00139104     0.00010218     0.00019724
H        -4.04056475    -1.53438258     0.50696394     0.00165393     0.00023567    -0.00042083
C        -3.99571229     0.45299904    -0.20743311    -0.00038718    -0.00007596    -0.00010969
C        -2.49708103     0.56301303     0.12810249     0.00064154    -0.00018931     0.00017310
H        -4.54598522     1.28969461    -0.65510692    -0.00123241     0.00059780    -0.00044588
H        -2.09145191    -0.33649881     0.60061333     0.00080536    -0.00129979     0.00029906
C        -1.80953676     1.71570160     0.02749450    -0.00001248     0.00006786    -0.00003428
H        -2.15745781     2.68239826    -0.37110271    -0.00099935     0.00033520    -0.00093130
N        -0.50571428     1.76456744     0.28402397     0.00035275     0.00011927     0.00001710
H         0.01056026     2.63051680     0.25526008    -0.00025070     0.00021574     0.00067049
H        -0.02591413     0.87498158     0.35591132    -0.00029791     0.00081776     0.00014533
    14
  Step:    17            Position(A)                                  Velocity(au)
C        -6.10144337    -0.82888771     0.02614579    -0.00028069    -0.00020134    -0.00006283
C        -4.63538570    -0.70696119     0.07172888    -0.00017825     0.00015204     0.00003897
H        -6.67531037    -0.01761039    -0.41025978    -0.00055822     0.00024535     0.00022836
H        -6.62989846    -1.72270459     0.23783854    -0.00147476    -0.00011816     0.00030157
H        -4.02295890    -1.53156266     0.50206259     0.00154228     0.00029243    -0.00048102
C        -3.99984654     0.45221347    -0.20865751    -0.00036756    -0.00006380    -0.00011515
C        -2.49037283     0.56076665     0.12998869     0.00058308    -0.00022373     0.00017206
H        -4.55903151     1.29625178    -0.65970096    -0.00112940     0.00057331    -0.00037823
H        -2.08232390    -0.35045030     0.60361968     0.00084846    -0.00121772     0.00023497
C        -1.80960483     1.71670830     0.02701280     0.00000155     0.00011731    -0.00005406
H        -2.16927441     2.68542406    -0.38087698    -0.00114343     0.00019354    -0.00084214
N        -0.50173329     1.76582825     0.28424516     0.00037043     0.00011446     0.00002250
H         0.00815892     2.63302089     0.26247601    -0.00017944     0.00025162     0.00064867
H        -0.02862019     0.88410323     0.35791814    -0.00017098     0.00080508     0.00022565
    14
  Step:    18            Position(A)                                  Velocity(au)
C        -6.10427016    -0.83100648     0.02536065    -0.00023792    -0.00018726    -0.00008023
C        -4.63755062    -0.70543795     0.07226571    -0.00021715     0.00012407     0.00005955
H        -6.68149449    -0.01471558    -0.40759227    -0.00056205     0.00027326     0.00026391
H        -6.64640069    -1.72510976     0.24168376    -0.00152039    -0.00029448     0.00039422
H        -4.00682450    -1.52798522     0.49644066     0.00138782     0.00036982    -0.00055005
C        -4.00375345     0.45160324    -0.20995234    -0.00034586    -0.00004470    -0.00012229
C        -2.48432501     0.55811852     0.13186670     0.00052157    -0.00026157     0.00017139
H        -4.57069298     1.30223686    -0.66338144    -0.00098322     0.00049873    -0.00028217
H        -2.07289024    -0.36313873     0.60575374     0.00086313    -0.00107485     0.00014265
C        -1.80950283     1.71826800     0.02631174     0.00001825     0.00016763    -0.00007409
H        -2.18247260     2.68663241    -0.38952624    -0.00125249     0.00001008    -0.00072822
N        -0.49761051     1.76707139     0.28451609     0.00037904     0.00011613     0.00002616
H         0.00663464     2.63602154     0.26945088    -0.00009299     0.00030273     0.00062670
H        -0.02965467     0.89259426     0.36084788     0.00000439     0.00070609     0.00031379
    14
  Step:    19            Position(A)                                  Velocity(au)
C        -6.10664823    -0.83298438     0.02439059    -0.00019917    -0.00017609    -0.00009643
C        -4.64013633    -0.70424695     0.07303162    -0.00025506     0.00009207     0.00008052
H        -6.68760639    -0.01163229    -0.40448622    -0.00054526     0.00027984     0.00030817
H        -6.66315983    -1.72914699     0.24646288    -0.00151797    -0.00041081     0.00047038
H        -3.99259773    -1.52347224     0.49002915     0.00119708     0.00045870    -0.00062273
C        -4.00741284     0.45123567    -0.21133279    -0.00032250    -0.00002036    -0.00013047
C        -2.47896258     0.55504421     0.13373820     0.00045846    -0.00030038     0.00017062
H        -4.58054134     1.30716242    -0.66587401    -0.00080246     0.00038586    -0.00016475
H        -2.06344129    -0.37396462     0.60674048     0.00085355    -0.00088416     0.00002870
C        -1.80920567     1.72037556     0.02539188     0.00003685     0.00021613    -0.00009376
H        -2.19667512     2.68564467    -0.39680823    -0.00132815    -0.00020039    -0.00059515
N        -0.49344111     1.76836876     0.28481742     0.00037967     0.00012400     0.00002808
H         0.00612460     2.63964370     0.27618634     0.00000289     0.00036071     0.00060505
H        -0.02852407     0.89955021     0.36478279     0.00021794     0.00053492     0.00040857
    14
  Step:    20            Position(A)                                  Velocity(au)
C        -6.10862746    -0.83485882     0.02325101    -0.00016522    -0.00016853    -0.00011108
C        -4.64313063    -0.70342365     0.07402722    -0.00029178     0.00005768     0.00010120
H        -6.69342304    -0.00859347    -0.40085042    -0.00050894     0.00026597     0.00035999
H        -6.67960927    -1.73409707     0.25197425    -0.00146274    -0.00046020     0.00052720
H        -3.98063615    -1.51795029     0.48281729     0.00097771     0.00054939    -0.00069376
C        -4.01080879     0.45115787    -0.21280658    -0.00029785     0.00000729    -0.00013898
C        -2.47429539     0.55154716     0.13559925     0.00039504    -0.00033760     0.00016920
H        -4.58824840     1.31067835    -0.66698564    -0.00059657     0.00024763    -0.00003356
H        -2.05421729    -0.38248132     0.60638153     0.00082454    -0.00066011    -0.00009972
C        -1.80869671     1.72299617     0.02426067     0.00005660     0.00026014    -0.00011242
H        -2.21152847     2.68224851    -0.40254635    -0.00137307    -0.00042259    -0.00044916
N        -0.48930460     1.76978411     0.28513050     0.00037401     0.00013689     0.00002841