     6
  Step:   120            Position(A)                                  Velocity(au)
C        -0.03619220    -0.02064981    -0.16791547    -0.00002945    -0.00002311     0.00032998
N        -0.03958301    -0.12723526     1.46649153     0.00004141    -0.00004573    -0.00025604
H         0.93259460     0.06364757    -0.71406990    -0.00019263    -0.00106282     0.00007370
H         0.64498320     0.62191477     1.79049156    -0.00111801     0.00160239    -0.00103315
H        -0.93134844     0.03869404     1.94617211     0.00017030    -0.00092411    -0.00032393
H        -0.87784988     0.62014458    -0.50854027     0.00091577     0.00129542     0.00090932
