 Fermi distribution function

Calculation with static geometry


********************************************************************************
 iSCC Total electronic   Diff electronic      SCC error    
   10   -0.53999909E+01   -0.83488771E-13    0.13536372E-07
********************************************************************************

 Total charge:     1.00000000

 Atomic gross charges (e)
 Atom           Charge
    1       0.25989798
    2      -0.14808206
    3       0.15242874
    4       0.30132171
    5       0.27365486
    6       0.16077877

Nr. of electrons (up):     12.00000000
Atom populations (up)
 Atom       Population
    1       3.74010202
    2       5.14808206
    3       0.84757126
    4       0.69867829
    5       0.72634514
    6       0.83922123

l-shell populations (up)
 Atom Sh.   l       Population
    1   1   0       1.29477354
    1   2   1       2.44532848
    2   1   0       1.41356867
    2   2   1       3.73451339
    3   1   0       0.84757126
    4   1   0       0.69867829
    5   1   0       0.72634514
    6   1   0       0.83922123

Orbital populations (up)
 Atom Sh.   l   m       Population  Label
    1   1   0   0       1.29477354  s
    1   2   1  -1       0.56725449  p_y
    1   2   1   0       0.89304377  p_z
    1   2   1   1       0.98503023  p_x
    2   1   0   0       1.41356867  s
    2   2   1  -1       1.35278266  p_y
    2   2   1   0       1.09010254  p_z
    2   2   1   1       1.29162819  p_x
    3   1   0   0       0.84757126  s
    4   1   0   0       0.69867829  s
    5   1   0   0       0.72634514  s
    6   1   0   0       0.83922123  s

Fermi level:                        -0.4860592180 H          -13.2263 eV
Band energy:                        -8.8891163409 H         -241.8852 eV
TS:                                  0.0000000000 H            0.0000 eV
Band free energy (E-TS):            -8.8891163409 H         -241.8852 eV
Extrapolated E(0K):                 -8.8891163409 H         -241.8852 eV
Input / Output electrons (q):     12.0000000000     12.0000000000

Energy H0:                          -5.5334987514 H         -150.5742 eV
Energy SCC:                          0.1335078499 H            3.6329 eV
Total Electronic energy:            -5.3999909015 H         -146.9412 eV
Repulsive energy:                    0.1990562562 H            5.4166 eV
Total energy:                       -5.2009346453 H         -141.5246 eV
Extrapolated to 0:                  -5.2009346453 H         -141.5246 eV
Total Mermin free energy:           -5.2009346453 H         -141.5246 eV
Force related energy:               -5.2009346453 H         -141.5246 eV

SCC converged

Excitation Energy:                   0.1050977506 H            2.8599 eV

Total Forces
    1     -0.013141132258      0.005791364372      0.001206464152
    2      0.019611929339      0.014591615946     -0.005014700229
    3     -0.002432421690     -0.014530833115      0.006046010877
    4     -0.013105027237      0.001899749443     -0.001549087128
    5      0.002124282806     -0.015629661909     -0.001244775855
    6      0.006942369040      0.007877765263      0.000556088182

Maximal derivative component:        0.196119E-01 au


