     6
  Step:   120            Position(A)                                  Velocity(au)
C        -0.03888151    -0.02665762    -0.21247689     0.00001330    -0.00008037    -0.00002456
N        -0.04684914    -0.14374334     1.50882562     0.00002985    -0.00008220     0.00001771
H         0.92055692     0.35431024    -0.56050270     0.00031702     0.00034781     0.00037889
H         0.80339005     0.40523413     1.81099488    -0.00023997     0.00049369    -0.00060694
H        -0.86189693     0.41551596     1.80295965    -0.00032569     0.00065319    -0.00010848
H        -0.96064573     0.47033000    -0.59668926    -0.00032468     0.00060521     0.00038304
