     6
  Step:     0            Position(A)                                  Velocity(au)
C        -0.04006817     0.01888853     0.00811738    -0.00000357    -0.00006354    -0.00020973
N        -0.04888676    -0.05697544     1.31803661    -0.00019806    -0.00008989     0.00013410
H         0.94329970    -0.00716767    -0.52741876     0.00033308     0.00063550    -0.00047139
H         0.92141949    -0.11876749     1.81807828     0.00153407     0.00030703     0.00072802
H        -0.91583330    -0.02011492     1.79236977     0.00058195     0.00078274    -0.00038590
H        -1.00502096     0.04294600    -0.60361637     0.00034574     0.00028103     0.00076497
     6
  Step:     1            Position(A)                                  Velocity(au)
C        -0.04009167     0.01856683     0.00662637    -0.00000436    -0.00005475    -0.00033429
N        -0.04989128    -0.05748151     1.31902054    -0.00016750    -0.00009569     0.00022481
H         0.94496101    -0.00372551    -0.52992654     0.00027102     0.00062635    -0.00044395
H         0.92919949    -0.11709062     1.82191436     0.00129758     0.00030999     0.00066862
H        -0.91319792    -0.01585597     1.79072479     0.00037087     0.00077926    -0.00020874
H        -1.00285862     0.04443406    -0.59920554     0.00044015     0.00026656     0.00084352
     6
  Step:     2            Position(A)                                  Velocity(au)
C        -0.04011588     0.01828962     0.00446046    -0.00000382    -0.00004722    -0.00045555
N        -0.05071910    -0.05802223     1.32049587    -0.00013386    -0.00010240     0.00031317
H         0.94626445    -0.00031588    -0.53227521     0.00020338     0.00062284    -0.00041353
H         0.93561402    -0.11537649     1.82539250     0.00103735     0.00031994     0.00059817
H        -0.91177627    -0.01159041     1.79008635     0.00014175     0.00078429    -0.00002034
H        -1.00020604     0.04586198    -0.59438887     0.00052317     0.00025871     0.00091220
     6
  Step:     3            Position(A)                                  Velocity(au)
C        -0.04013343     0.01805012     0.00164193    -0.00000191    -0.00004086    -0.00057175
N        -0.05135593    -0.05860197     1.32244710    -0.00009809    -0.00010972     0.00039810
H         0.94718634     0.00308935    -0.53445117     0.00013253     0.00062352    -0.00038106
H         0.94054970    -0.11358999     1.82845929     0.00075915     0.00033538     0.00051908
H        -0.91164697    -0.00727463     1.79050226    -0.00009734     0.00079606     0.00017387
H        -0.99713431     0.04726471    -0.58922465     0.00059146     0.00025667     0.00096901
     6
  Step:     4            Position(A)                                  Velocity(au)
C        -0.04013679     0.01784241    -0.00179792     0.00000138    -0.00003548    -0.00068110
N        -0.05179277    -0.05922327     1.32485347    -0.00006119    -0.00011728     0.00047856
H         0.94771513     0.00650918    -0.53644629     0.00006060     0.00062663    -0.00034755
H         0.94392371    -0.11170545     1.83107440     0.00046864     0.00035451     0.00043375
H        -0.91284180    -0.00287670     1.79198955    -0.00033720     0.00081217     0.00036792
H        -0.99373190     0.04867145    -0.58378209     0.00064183     0.00025932     0.00101172
     6
  Step:     5            Position(A)                                  Velocity(au)
C        -0.04011834     0.01766148    -0.00581862     0.00000605    -0.00003095    -0.00078171
N        -0.05202618    -0.05988668     1.32768908    -0.00002424    -0.00012470     0.00055344
H         0.94785016     0.00995330    -0.53825812    -0.00001037     0.00063048    -0.00031403
H         0.94568311    -0.10970674     1.83321045     0.00017170     0.00037564     0.00034461
H        -0.91534059     0.00162163     1.79453237    -0.00056782     0.00082997     0.00055547
H        -0.99010382     0.05010523    -0.57814248     0.00067126     0.00026559     0.00103797
     6
  Step:     6            Position(A)                                  Velocity(au)
C        -0.04007046     0.01750304    -0.01037001     0.00001208    -0.00002715    -0.00087160
N        -0.05205859    -0.06059074     1.33092249     0.00001163    -0.00013160     0.00062159
H         0.94760139     0.01342299    -0.53988995    -0.00007832     0.00063359    -0.00028158
H         0.94580656    -0.10758621     1.83485339    -0.00012521     0.00039725     0.00025431
H        -0.91906850     0.00622469     1.79808081    -0.00077898     0.00084687     0.00073008
H        -0.98637097     0.05158384    -0.57239980     0.00067696     0.00027456     0.00104546
     6
  Step:     7            Position(A)                                  Velocity(au)
C        -0.03998567     0.01736331    -0.01539164     0.00001940    -0.00002400    -0.00094878
N        -0.05189846    -0.06133208     1.33451616     0.00004526    -0.00013762     0.00068173
H         0.94698991     0.01691221    -0.54135083    -0.00014107     0.00063469    -0.00025127
H         0.94430793    -0.10534368     1.83600358    -0.00041479     0.00041800     0.00016570
H        -0.92389639     0.01092307     1.80255100    -0.00096093     0.00086036     0.00088550
H        -0.98266863     0.05312076    -0.56665994     0.00065666     0.00028548     0.00103224
     6
  Step:     8            Position(A)                                  Velocity(au)
C        -0.03985698     0.01723884    -0.02081271     0.00002786    -0.00002147    -0.00101139
N        -0.05156041    -0.06210549     1.33842593     0.00007553    -0.00014245     0.00073262
H         0.94604866     0.02040861    -0.54265552    -0.00019640     0.00063273    -0.00022414
H         0.94124118    -0.10298548     1.83667717    -0.00068897     0.00043678     0.00008192
H        -0.92964485     0.01569422     1.80782704    -0.00110517     0.00086817     0.00101622
H        -0.97914347     0.05472594    -0.56103849     0.00060897     0.00029772     0.00099709
     6
  Step:     9            Position(A)                                  Velocity(au)
C        -0.03967824     0.01712641    -0.02655274     0.00003725    -0.00001950    -0.00105794
N        -0.05106497    -0.06290411     1.34260091     0.00010139    -0.00014583     0.00077313
H         0.94482260     0.02389466    -0.54382435    -0.00024215     0.00062698    -0.00020120
H         0.93670490    -0.10052364     1.83690762    -0.00093916     0.00045265     0.00000628
H        -0.93609238     0.02050368     1.81376534    -0.00120536     0.00086843     0.00111789
H        -0.97594843     0.05640621    -0.55565667     0.00053378     0.00031074     0.00093982
     6
  Step:    10            Position(A)                                  Velocity(au)
C        -0.03944465     0.01702300    -0.03252363     0.00008248    -0.00003153    -0.00189754
N        -0.05043802    -0.06371972     1.34698416     0.00021287    -0.00025746     0.00140010
H         0.94336819     0.02734903    -0.54488276    -0.00048238     0.00107655    -0.00031985
H         0.93084503    -0.09797479     1.83674664    -0.00201859     0.00081127    -0.00010109
H        -0.94298769     0.02530733     1.82020164    -0.00219482     0.00150023     0.00207261
H        -0.97323480     0.05816568    -0.55063511     0.00075480     0.00056545     0.00150323
     6
  Step:    11            Position(A)                                  Velocity(au)
C        -0.03896717     0.01684556    -0.04279218     0.00008721    -0.00003181    -0.00173935
N        -0.04921226    -0.06512990     1.35459654     0.00021763    -0.00024210     0.00129659
H         0.94090861     0.03326618    -0.54694347    -0.00038230     0.00102270    -0.00041230
H         0.91918509    -0.09353462     1.83604873    -0.00208771     0.00076165    -0.00013281
H        -0.95521517     0.03356407     1.83183688    -0.00210877     0.00142504     0.00203239
H        -0.96961131     0.06126243    -0.54293514     0.00051524     0.00053397     0.00122109
     6
  Step:    12            Position(A)                                  Velocity(au)
C        -0.03845996     0.01666383    -0.05216235     0.00005070    -0.00001800    -0.00086318
N        -0.04798077    -0.06645322     1.36162376     0.00011751    -0.00012383     0.00065174
H         0.93905169     0.03889617    -0.54953799    -0.00014790     0.00053238    -0.00027734
H         0.90727300    -0.08937512     1.83524709    -0.00115082     0.00038884    -0.00007521
H        -0.96679752     0.04139720     1.84314899    -0.00107645     0.00073732     0.00107098
H        -0.96741730     0.06419468    -0.53684799     0.00013806     0.00027683     0.00051053
     6
  Step:    13            Position(A)                                  Velocity(au)
C        -0.03814126     0.01656188    -0.05697691     0.00006178    -0.00001822    -0.00083701
N        -0.04731967    -0.06714150     1.36528930     0.00011427    -0.00011938     0.00064257
H         0.93822198     0.04182963    -0.55108506    -0.00014218     0.00050526    -0.00027186
H         0.90058277    -0.08717438     1.83480049    -0.00119752     0.00038927    -0.00007546
H        -0.97253993     0.04543375     1.84907348    -0.00094398     0.00068909     0.00101716
H        -0.96713976     0.06580341    -0.53434573    -0.00004045     0.00029243     0.00037465
     6
  Step:    14            Position(A)                                  Velocity(au)
C        -0.03776081     0.01645768    -0.06163416     0.00007283    -0.00001890    -0.00081373
N        -0.04668769    -0.06780418     1.36889526     0.00010817    -0.00011563     0.00063529
H         0.93744272     0.04461388    -0.55261446    -0.00013117     0.00048303    -0.00027285
H         0.89372148    -0.08497003     1.83439316    -0.00122008     0.00039294    -0.00006183
H        -0.97747985     0.04919516     1.85465943    -0.00080108     0.00064482     0.00095958
H        -0.96787502     0.06750395    -0.53260840    -0.00021875     0.00031129     0.00024335
     6
  Step:    15            Position(A)                                  Velocity(au)
C        -0.03732010     0.01634877    -0.06615162     0.00008363    -0.00002002    -0.00079415
N        -0.04610005    -0.06844520     1.37245213     0.00009954    -0.00011264     0.00063033
H         0.93674311     0.04727571    -0.55416146    -0.00011505     0.00046556    -0.00028018
H         0.88682655    -0.08274400     1.83410335    -0.00121963     0.00040024    -0.00003423
H        -0.98157192     0.05270394     1.85989261    -0.00065082     0.00060454     0.00090057
H        -0.96960616     0.06931311    -0.53160195    -0.00039427     0.00033345     0.00011769
     6
  Step:    16            Position(A)                                  Velocity(au)
C        -0.03682179     0.01623292    -0.07055103     0.00009386    -0.00002151    -0.00077775
N        -0.04557006    -0.06906890     1.37597274     0.00008848    -0.00011030     0.00062711
H         0.93615095     0.04984133    -0.55576034    -0.00009381     0.00045211    -0.00029332
H         0.88002719    -0.08047602     1.83400880    -0.00119545     0.00041100     0.00000750
H        -0.98478737     0.05598305     1.86477122    -0.00049467     0.00056744     0.00084070
H        -0.97230196     0.07124798    -0.53128692    -0.00056407     0.00035852    -0.00000169
     6
  Step:    17            Position(A)                                  Velocity(au)
C        -0.03627023     0.01610822    -0.07485125     0.00010312    -0.00002330    -0.00076349
N        -0.04511033    -0.06967902     1.37946677     0.00007506    -0.00010846     0.00062463
H         0.93569374     0.05233286    -0.55744242    -0.00006746     0.00044171    -0.00031158
H         0.87345463    -0.07814668     1.83418720    -0.00114613     0.00042479     0.00006334
H        -0.98710509     0.05905114     1.86929636    -0.00033383     0.00053250     0.00077990
H        -0.97591564     0.07332341    -0.53162088    -0.00072451     0.00038581    -0.00011392
     6
  Step:    18            Position(A)                                  Velocity(au)
C        -0.03567182     0.01597312    -0.07906532     0.00011101    -0.00002532    -0.00075033
N        -0.04473297    -0.07027841     1.38293848     0.00005941    -0.00010695     0.00062188
H         0.93539864     0.05476716    -0.55923499    -0.00003614     0.00043348    -0.00033416
H         0.86724586    -0.07573885     1.83471511    -0.00107074     0.00044114     0.00013283
H        -0.98851016     0.06192132     1.87346843    -0.00016997     0.00049887     0.00071817
H        -0.98038153     0.07555042    -0.53255732    -0.00087151     0.00041449    -0.00021778
     6
  Step:    19            Position(A)                                  Velocity(au)
C        -0.03503503     0.01582647    -0.08320038     0.00011715    -0.00002751    -0.00073743
N        -0.04444925    -0.07086910     1.38638665     0.00004176    -0.00010566     0.00061805
H         0.93529164     0.05715628    -0.56116076    -0.00000023     0.00042672    -0.00036025
H         0.86154015    -0.07323799     1.83566523    -0.00096967     0.00045963     0.00021491
H        -0.98899641     0.06460219     1.87728760    -0.00000538     0.00046607     0.00065586
H        -0.98561319     0.07793555    -0.53404415    -0.00100104     0.00044374    -0.00031191
     6
  Step:    20            Position(A)                                  Velocity(au)
C        -0.03437016     0.01566747    -0.08725894     0.00012127    -0.00002980    -0.00072424
N        -0.04426894    -0.07145246     1.38980569     0.00002250    -0.00010453     0.00061258
H         0.93539607     0.05950845    -0.56323776     0.00003960     0.00042093    -0.00038900
H         0.85647177    -0.07063187     1.83710296    -0.00084483     0.00047993     0.00030785
H        -0.98856998     0.06709979     1.88075578     0.00015711     0.00043393     0.00059374
H        -0.99150416     0.08048088    -0.53602297    -0.00110960     0.00047282    -0.00039506
     6
  Step:    21            Position(A)                                  Velocity(au)
C        -0.03368876     0.01549568    -0.09124037     0.00012319    -0.00003213    -0.00071043
N        -0.04419952    -0.07202948     1.39318703     0.00000211    -0.00010350     0.00060514
H         0.93573128     0.06182916    -0.56547919     0.00008249     0.00041577    -0.00041957
H         0.85216149    -0.06791011     1.83908279    -0.00069966     0.00050178     0.00040931
H        -0.98725225     0.06941934     1.88387885     0.00031436     0.00040256     0.00053284
H        -0.99793118     0.08318447    -0.53842980    -0.00119449     0.00050107    -0.00046623
     6
  Step:    22            Position(A)                                  Velocity(au)
C        -0.03300317     0.01531095    -0.09514214     0.00012284    -0.00003446    -0.00069585
N        -0.04424553    -0.07260096     1.39652051    -0.00001880    -0.00010258     0.00059562
H         0.93631136     0.06412197    -0.56789340     0.00012735     0.00041100    -0.00045108
H         0.84870810    -0.06506395     1.84164477    -0.00053901     0.00052492     0.00051635
H        -0.98508170     0.07156672     1.88666833     0.00046305     0.00037226     0.00047442
H        -1.00475865     0.08604088    -0.54119645    -0.00125398     0.00052793    -0.00052481
     6
  Step:    23            Position(A)                                  Velocity(au)
C        -0.03232588     0.01511339    -0.09896074     0.00012024    -0.00003673    -0.00068045
N        -0.04440805    -0.07316761     1.39979535    -0.00003955    -0.00010177     0.00058404
H         0.93714425     0.06638913    -0.57048388     0.00017301     0.00040646    -0.00048269
H         0.84618126    -0.06208617     1.84481163    -0.00036875     0.00054910     0.00062564
H        -0.98211480     0.07354949     1.88914250     0.00059983     0.00034345     0.00041986
H        -1.01184391     0.08904175    -0.54425252    -0.00128732     0.00055295    -0.00057058
     6
  Step:    24            Position(A)                                  Velocity(au)
C        -0.03166898     0.01490337    -0.10269232     0.00011552    -0.00003892    -0.00066426
N        -0.04468436    -0.07373020     1.40300096    -0.00005945    -0.00010109     0.00057054
H         0.93823103     0.06863198    -0.57324923     0.00021816     0.00040204    -0.00051353
H         0.84461649    -0.05897119     1.84858682    -0.00019540     0.00057402     0.00073361
H        -0.97842603     0.07537761     1.89132700     0.00072149     0.00031665     0.00037054
H        -1.01904263     0.09217638    -0.54752752    -0.00129472     0.00057580    -0.00060370
     6
  Step:    25            Position(A)                                  Velocity(au)
C        -0.03104376     0.01468143    -0.10633311     0.00010886    -0.00004099    -0.00064736
N        -0.04506782    -0.07428953     1.40612758    -0.00007779    -0.00010054     0.00055532
H         0.93956557     0.07085124    -0.57618339     0.00026152     0.00039767    -0.00054281
H         0.84401254    -0.05571527     1.85295373    -0.00002568     0.00059936     0.00083666
H        -0.97410717     0.07706385     1.89325502     0.00082505     0.00029240     0.00032785
H        -1.02621360     0.09543232    -0.55095282    -0.00127717     0.00059621    -0.00062468
     6
  Step:    26            Position(A)                                  Velocity(au)
C        -0.03046030     0.01444827    -0.10987975     0.00010052    -0.00004292    -0.00062988
N        -0.04554801    -0.07484650     1.40916654    -0.00009392    -0.00010016     0.00053865
H         0.94113457     0.07304714    -0.57927583     0.00030180     0.00039329    -0.00056977
H         0.84433140    -0.05231673     1.85787600     0.00013398     0.00062473     0.00093141
H        -0.96926577     0.07862397     1.89496700     0.00090789     0.00027125     0.00029305
H        -1.03322256     0.09879592    -0.55446314    -0.00123633     0.00061406    -0.00063429
     6
  Step:    27            Position(A)                                  Velocity(au)
C        -0.02992724     0.01420472    -0.11332942     0.00009078    -0.00004469    -0.00061197
N        -0.04611105    -0.07540207     1.41211059    -0.00010729    -0.00009996     0.00052082
H         0.94291782     0.07521960    -0.58251200     0.00033785     0.00038886    -0.00059376
H         0.84550074    -0.04877614     1.86329919     0.00027781     0.00064977     0.00101486
H        -0.96402294     0.08007667     1.89651002     0.00096790     0.00025371     0.00026724
H        -1.03994586     0.10225285    -0.55799809    -0.00117441     0.00062928    -0.00063353
     6
  Step:    28            Position(A)                                  Velocity(au)
C        -0.02945156     0.01395169    -0.11668010     0.00007994    -0.00004629    -0.00059378
N        -0.04674020    -0.07595730     1.41495400    -0.00011743    -0.00009996     0.00050211
H         0.94488890     0.07736825    -0.58587389     0.00036864     0.00038436    -0.00061425
H         0.84741849    -0.04509636     1.86915340     0.00040104     0.00067407     0.00108460
H        -0.95851017     0.08144330     1.89793660     0.00100362     0.00024024     0.00025126
H        -1.04627287     0.10578868    -0.56150309    -0.00109396     0.00064194    -0.00062354
     6
  Step:    29            Position(A)                                  Velocity(au)
C        -0.02903857     0.01369013    -0.11993058     0.00006831    -0.00004772    -0.00057551
N        -0.04741655    -0.07651330     1.41769261    -0.00012405    -0.00010016     0.00048283
H         0.94701606     0.07949256    -0.58934070     0.00039333     0.00037977    -0.00063083
H         0.84995909    -0.04128241     1.87535680     0.00050014     0.00069731     0.00113889
H        -0.95286567     0.08274747     1.89930327     0.00101426     0.00023118     0.00024568
H        -1.05210756     0.10938937    -0.56493006    -0.00099778     0.00065217    -0.00060556
     6
  Step:    30            Position(A)                                  Velocity(au)
C        -0.02869188     0.01342102    -0.12308059     0.00005619    -0.00004897    -0.00055732
N        -0.04811986    -0.07707122     1.42032381    -0.00012700    -0.00010058     0.00046327
H         0.94926330     0.08159187    -0.59288964     0.00041128     0.00037509    -0.00064324
H         0.85298073    -0.03734122     1.88181955     0.00057292     0.00071921     0.00117673
H        -0.94723017     0.08401441     1.90066887     0.00099982     0.00022676     0.00025073
H        -1.05736966     0.11304175    -0.56823783    -0.00088875     0.00066019    -0.00058088
     6
  Step:    31            Position(A)                                  Velocity(au)
C        -0.02841346     0.01314532    -0.12613078     0.00004387    -0.00005007    -0.00053938
N        -0.04882942    -0.07763225     1.42284646    -0.00012627    -0.00010122     0.00044366
H         0.95159159     0.08366540    -0.59649671     0.00042209     0.00037029    -0.00065135
H         0.85633284    -0.03328122     1.88844798     0.00061851     0.00073956     0.00119782
H        -0.94174264     0.08527022     1.90209263     0.00096106     0.00022707     0.00026631
H        -1.06199496     0.11673397    -0.57139235    -0.00076974     0.00066629    -0.00055076
     6
  Step:    32            Position(A)                                  Velocity(au)
C        -0.02820376     0.01286390    -0.12908252     0.00003159    -0.00005102    -0.00052180
N        -0.04952488    -0.07819756     1.42526064    -0.00012199    -0.00010208     0.00042421
H         0.95396016     0.08571229    -0.60013759     0.00042556     0.00036537    -0.00065519
H         0.85986327    -0.02911172     1.89514838     0.00063720     0.00075828     0.00120248
H        -0.93653597     0.08654109     1.90363222     0.00089948     0.00023201     0.00029193
H        -1.06593500     0.12045593    -0.57436649    -0.00064349     0.00067083    -0.00051644
     6
  Step:    33            Position(A)                                  Velocity(au)
C        -0.02806191     0.01257755    -0.13193779     0.00001958    -0.00005184    -0.00050468
N        -0.05018700    -0.07876830     1.42756746    -0.00011442    -0.00010315     0.00040510
H         0.95632760     0.08773155    -0.60378825     0.00042168     0.00036030    -0.00065488
H         0.86342417    -0.02484239     1.90183018     0.00063024     0.00077538     0.00119152
H        -0.93173238     0.08785223     1.90534146     0.00081739     0.00024133     0.00032672
H        -1.06915629     0.12419954    -0.57713975    -0.00051256     0.00067420    -0.00047905
     6
  Step:    34            Position(A)                                  Velocity(au)
C        -0.02798584     0.01228696    -0.13469902     0.00000804    -0.00005256    -0.00048808
N        -0.05079830    -0.07934554     1.42976900    -0.00010394    -0.00010442     0.00038648
H         0.95865295     0.08972198    -0.60742574     0.00041060     0.00035501    -0.00065067
H         0.86687714    -0.02048261     1.90840868     0.00059966     0.00079097     0.00116617
H        -0.92743935     0.08922688     1.90726823     0.00071769     0.00025459     0.00036944
H        -1.07163923     0.12795899    -0.57969782    -0.00037929     0.00067683    -0.00043965
     6
  Step:    35            Position(A)                                  Velocity(au)
C        -0.02797249     0.01199268    -0.13736897    -0.00000288    -0.00005320    -0.00047207
N        -0.05134363    -0.07993026     1.43186811    -0.00009099    -0.00010586     0.00036850
H         0.96089659     0.09168201    -0.61102868     0.00039262     0.00034943    -0.00064286
H         0.87009696    -0.01604079     1.91480687     0.00054803     0.00080528     0.00112789
H        -0.92374614     0.09068519     1.90945246     0.00060388     0.00027112     0.00041854
H        -1.07337689     0.13173105    -0.58203197    -0.00024580     0.00067920    -0.00039915
     6
  Step:    36            Position(A)                                  Velocity(au)
C        -0.02801791     0.01169513    -0.13995088    -0.00001303    -0.00005377    -0.00045671
N        -0.05181055    -0.08052328     1.43386864    -0.00007606    -0.00010745     0.00035131
H         0.96302092     0.09360942    -0.61457771     0.00036813     0.00034337    -0.00063186
H         0.87297411    -0.01152377     1.92095662     0.00047826     0.00081865     0.00107827
H        -0.92072108     0.09224311     1.91192454     0.00047983     0.00029006     0.00047219
H        -1.07437378     0.13551525    -0.58413845    -0.00011400     0.00068185    -0.00035839
     6
  Step:    37            Position(A)                                  Velocity(au)
C        -0.02811739     0.01139462    -0.14244830    -0.00002227    -0.00005431    -0.00044199
N        -0.05218956    -0.08112527     1.43577527    -0.00005970    -0.00010914     0.00033503
H         0.96499086     0.09550090    -0.61805603     0.00033760     0.00033657    -0.00061815
H         0.87541596    -0.00693604     1.92679900     0.00039340     0.00083161     0.00101893
H        -0.91840961     0.09391116     1.91470399     0.00034971     0.00031030     0.00052839
H        -1.07464478     0.13931432    -0.58601782     0.00001432     0.00068540    -0.00031807
     6
  Step:    38            Position(A)                                  Velocity(au)
C        -0.02826547     0.01109130    -0.14486463    -0.00003045    -0.00005485    -0.00042782
N        -0.05247431    -0.08173664     1.43759327    -0.00004249    -0.00011089     0.00031970
H         0.96677418     0.09735119    -0.62144992     0.00030154     0.00032850    -0.00060240
H         0.87734769    -0.00227853     1.93228437     0.00029666     0.00084496     0.00095145
H        -0.91683329     0.09569277     1.91779881     0.00021775     0.00033032     0.00058506
H        -1.07421462     0.14313505    -0.58767451     0.00013738     0.00069074    -0.00027884
     6
  Step:    39            Position(A)                                  Velocity(au)
C        -0.02845580     0.01078515    -0.14720237    -0.00003737    -0.00005542    -0.00041384
N        -0.05266172    -0.08235753     1.43932787    -0.00002502    -0.00011263     0.00030518
H         0.96834173     0.09915133    -0.62475010     0.00026052     0.00031808    -0.00058570
H         0.87871256     0.00245352     1.93737188     0.00019130     0.00086021     0.00087725
H        -0.91598984     0.09758181     1.92120549     0.00008814     0.00034787     0.00064028
H        -1.07311821     0.14699016    -0.58911639     0.00025307     0.00069942    -0.00024133
     6
  Step:    40            Position(A)                                  Velocity(au)
C        -0.02868055     0.01047573    -0.14946122    -0.00004687    -0.00006191    -0.00043948
N        -0.05275224    -0.08298766     1.44098292    -0.00000886    -0.00012591     0.00032034
H         0.96966781     0.10088416    -0.62795537     0.00023738     0.00033327    -0.00062933
H         0.87947248     0.00727606     1.94202821     0.00008922     0.00097109     0.00087880
H        -0.91585431     0.09955658     1.92491056    -0.00003893     0.00039477     0.00076355
H        -1.07140373     0.15090364    -0.59035497     0.00039399     0.00078830    -0.00022769
     6
  Step:    41            Position(A)                                  Velocity(au)
C        -0.02895625     0.01012077    -0.15166631    -0.00005438    -0.00006507    -0.00036823
N        -0.05275224    -0.08367354     1.44258965     0.00000973    -0.00012209     0.00026813
H         0.97107114     0.10285829    -0.63163832     0.00025824     0.00038871    -0.00067430
H         0.87969271     0.01245898     1.94672521    -0.00001589     0.00088494     0.00081382
H        -0.91640424     0.10191286     1.92929367    -0.00015191     0.00046980     0.00080622
H        -1.06919221     0.15515135    -0.59180389     0.00042234     0.00072846    -0.00028389
     6
  Step:    42            Position(A)                                  Velocity(au)
C        -0.02928416     0.00975355    -0.15354832    -0.00006329    -0.00006605    -0.00033329
N        -0.05264422    -0.08434273     1.44395897     0.00002853    -0.00012098     0.00024179
H         0.97253403     0.10519856    -0.63543949     0.00024134     0.00043830    -0.00066467
H         0.87929608     0.01709813     1.95106096    -0.00013211     0.00081255     0.00074255
H        -0.91754035     0.10477094     1.93385887    -0.00024889     0.00054712     0.00083194
H        -1.06671610     0.15898892    -0.59350596     0.00049728     0.00067028    -0.00029832
     6
  Step:    43            Position(A)                                  Velocity(au)
C        -0.02965839     0.00938803    -0.15536397    -0.00007022    -0.00006577    -0.00032367
N        -0.05243567    -0.08501578     1.44527219     0.00004543    -0.00012186     0.00023375
H         0.97374863     0.10772098    -0.63901246     0.00019014     0.00046278    -0.00062191
H         0.87822708     0.02147370     1.95496329    -0.00025176     0.00077659     0.00066245
H        -0.91916553     0.10798283     1.93852350    -0.00032820     0.00060020     0.00084591
H        -1.06367519     0.16258765    -0.59511355     0.00059526     0.00063754    -0.00027784
     6
  Step:    44            Position(A)                                  Velocity(au)
C        -0.03006287     0.00902419    -0.15713766    -0.00007479    -0.00006554    -0.00031666
N        -0.05214043    -0.08569407     1.44655113     0.00006000    -0.00012279     0.00022841
H         0.97464264     0.11033057    -0.64233614     0.00012965     0.00047594    -0.00057652
H         0.87650423     0.02571014     1.95840724    -0.00036693     0.00075539     0.00057998
H        -0.92117998     0.11142691     1.94323966    -0.00038884     0.00063740     0.00085009
H        -1.06011497     0.16605899    -0.59658704     0.00068351     0.00061856    -0.00025431
     6