 Fermi distribution function

Calculation with static geometry


********************************************************************************
 iSCC Total electronic   Diff electronic      SCC error    
    9   -0.54463433E+01   -0.87929664E-13    0.29221021E-06
********************************************************************************

 Total charge:     1.00000000

 Atomic gross charges (e)
 Atom           Charge
    1       0.15128162
    2      -0.02433185
    3       0.16045310
    4       0.27363756
    5       0.26901713
    6       0.16994244

Nr. of electrons (up):     12.00000000
Atom populations (up)
 Atom       Population
    1       3.84871838
    2       5.02433185
    3       0.83954690
    4       0.72636244
    5       0.73098287
    6       0.83005756

l-shell populations (up)
 Atom Sh.   l       Population
    1   1   0       1.29711161
    1   2   1       2.55160677
    2   1   0       1.41372864
    2   2   1       3.61060322
    3   1   0       0.83954690
    4   1   0       0.72636244
    5   1   0       0.73098287
    6   1   0       0.83005756

Orbital populations (up)
 Atom Sh.   l   m       Population  Label
    1   1   0   0       1.29711161  s
    1   2   1  -1       0.61755895  p_y
    1   2   1   0       0.88263819  p_z
    1   2   1   1       1.05140963  p_x
    2   1   0   0       1.41372864  s
    2   2   1  -1       1.33125588  p_y
    2   2   1   0       1.12659813  p_z
    2   2   1   1       1.15274921  p_x
    3   1   0   0       0.83954690  s
    4   1   0   0       0.72636244  s
    5   1   0   0       0.73098287  s
    6   1   0   0       0.83005756  s

Fermi level:                        -0.4936962871 H          -13.4342 eV
Band energy:                        -8.9989062403 H         -244.8727 eV
TS:                                  0.0000000000 H            0.0000 eV
Band free energy (E-TS):            -8.9989062403 H         -244.8727 eV
Extrapolated E(0K):                 -8.9989062403 H         -244.8727 eV
Input / Output electrons (q):     12.0000000000     12.0000000000

Energy H0:                          -5.5812782743 H         -151.8743 eV
Energy SCC:                          0.1349349425 H            3.6718 eV
Total Electronic energy:            -5.4463433318 H         -148.2025 eV
Repulsive energy:                    0.2043116506 H            5.5596 eV
Total energy:                       -5.2420316813 H         -142.6429 eV
Extrapolated to 0:                  -5.2420316813 H         -142.6429 eV
Total Mermin free energy:           -5.2420316813 H         -142.6429 eV
Force related energy:               -5.2420316813 H         -142.6429 eV

SCC converged

Excitation Energy:                   0.1707567571 H            4.6465 eV

Total Forces
    1     -0.000174318515      0.011202734685     -0.012958924331
    2      0.010919564021     -0.010555081356     -0.006668727965
    3     -0.002643947311      0.001222486136      0.003300232173
    4     -0.005861982058     -0.000214836310      0.004265447173
    5     -0.004651957521      0.003690683889      0.010284113065
    6      0.002412641385     -0.005345987043      0.001777859885

Maximal derivative component:        0.129589E-01 au


