 Fermi distribution function

Calculation with static geometry


********************************************************************************
 iSCC Total electronic   Diff electronic      SCC error    
   11   -0.53851780E+01   -0.68478556E-12    0.12089870E-06
********************************************************************************

 Total charge:     1.00000000

 Atomic gross charges (e)
 Atom           Charge
    1       0.32048233
    2      -0.21915875
    3       0.15851183
    4       0.29130906
    5       0.30317784
    6       0.14567769

Nr. of electrons (up):     12.00000000
Atom populations (up)
 Atom       Population
    1       3.67951767
    2       5.21915875
    3       0.84148817
    4       0.70869094
    5       0.69682216
    6       0.85432231

l-shell populations (up)
 Atom Sh.   l       Population
    1   1   0       1.30431987
    1   2   1       2.37519780
    2   1   0       1.40901830
    2   2   1       3.81014045
    3   1   0       0.84148817
    4   1   0       0.70869094
    5   1   0       0.69682216
    6   1   0       0.85432231

Orbital populations (up)
 Atom Sh.   l   m       Population  Label
    1   1   0   0       1.30431987  s
    1   2   1  -1       0.52807040  p_y
    1   2   1   0       0.89081664  p_z
    1   2   1   1       0.95631076  p_x
    2   1   0   0       1.40901830  s
    2   2   1  -1       1.34305335  p_y
    2   2   1   0       1.06500678  p_z
    2   2   1   1       1.40208032  p_x
    3   1   0   0       0.84148817  s
    4   1   0   0       0.70869094  s
    5   1   0   0       0.69682216  s
    6   1   0   0       0.85432231  s

Fermi level:                        -0.4838565423 H          -13.1664 eV
Band energy:                        -8.8248911607 H         -240.1375 eV
TS:                                  0.0000000000 H            0.0000 eV
Band free energy (E-TS):            -8.8248911607 H         -240.1375 eV
Extrapolated E(0K):                 -8.8248911607 H         -240.1375 eV
Input / Output electrons (q):     12.0000000000     12.0000000000

Energy H0:                          -5.5173077099 H         -150.1336 eV
Energy SCC:                          0.1321296835 H            3.5954 eV
Total Electronic energy:            -5.3851780264 H         -146.5381 eV
Repulsive energy:                    0.1928963394 H            5.2490 eV
Total energy:                       -5.1922816870 H         -141.2892 eV
Extrapolated to 0:                  -5.1922816870 H         -141.2892 eV
Total Mermin free energy:           -5.1922816870 H         -141.2892 eV
Force related energy:               -5.1922816870 H         -141.2892 eV

SCC converged

Excitation Energy:                   0.0839722631 H            2.2850 eV

Total Forces
    1      0.006531020711      0.007592185178      0.029689316424
    2      0.001047725320     -0.004996607281     -0.029984958200
    3     -0.007997909283      0.012622830216      0.001036763935
    4     -0.015704044660     -0.009946564359     -0.003456061538
    5      0.012445305917      0.012909454500      0.001292075498
    6      0.003677901995     -0.018181298254      0.001422863881

Maximal derivative component:        0.299850E-01 au


