|===============================================================================
|
|  DFTB+ release 20.1
|
|  Copyright (C) 2006 - 2020  DFTB+ developers group
|
|===============================================================================
|
|  When publishing results obtained with DFTB+, please cite the following
|  reference:
|
|  * DFTB+, a software package for efficient approximate density functional
|    theory based atomistic simulations, J. Chem. Phys. 152, 124101 (2020).
|    [doi: 10.1063/1.5143190]
|
|  You should also cite additional publications crediting the parametrization
|  data you use. Please consult the documentation of the SK-files for the
|  references.
|
|===============================================================================

Reading input file 'dftb_in.hsd'
Parser version: 8

--------------------------------------------------------------------------------
Reading SK-files:
Done.


Processed input in HSD format written to 'dftb_pin.hsd'

Starting initialization...
--------------------------------------------------------------------------------
OpenMP threads:              1
Chosen random seed:          500628715
Mode:                        Static calculation
Self consistent charges:     Yes
SCC-tolerance:                 0.100000E-05
Max. scc iterations:                   1000
Shell resolved Hubbard:      No
Spin polarisation:           No
Nr. of up electrons:            16.000000
Nr. of down electrons:          16.000000
Periodic boundaries:         No
Electronic solver:           Relatively robust
Maximal SCC-cycles:                    1000
Initial charges:             Set automatically (system chrg:   0.100E+01)
Included shells:             C:  s, p
                             H:  s
                             N:  s, p
Spin coupling constants:     C   1(s)-1(s):  -0.455900E-01
                             C   1(s)-2(p):  -0.293000E-01
                             C   2(p)-1(s):  -0.293000E-01
                             C   2(p)-2(p):  -0.275500E-01
                             H   1(s)-1(s):  -0.792500E-01
                             N   1(s)-1(s):  -0.468700E-01
                             N   1(s)-2(p):  -0.317000E-01
                             N   2(p)-1(s):  -0.317000E-01
                             N   2(p)-2(p):  -0.307200E-01
Range separated hybrid:      Yes
  Screening parameter omega:   0.300000E+00
  Range separated algorithm:   MatrixBased
Extra options:
                             Mulliken analysis
                             Force calculation
Force type                   original
                             Eigenvector printing


REKS Calcuation:             Yes
SSR(2,2) Calcuation:         Yes
Energy Functional:           (PPS+OSS)/2
Number of Core Orbitals:                 15
Number of Active Orbitals:                2
Number of Basis:                         32
Number of States:                         2
State-Averaging Weight:          0.500000
                                 0.500000
State of Interest:                        1
Initial Guess:               Diagonalize H0 matrix
Newton-Raphson for FON opt:  Yes
NR max. Iterations:                      50
Level Shifting:              Yes
Shift Value:                     0.300000
W Scale Factor:              C  =    3.200000
                             H  =    3.200000
                             N  =    3.200000
Transition Dipole:           No
Gradient of Microstate:      No
CP-REKS Solver:              Preconditioned Conjugate-Gradient
CG max. Iterations:                     100
CG Tolerance:                  0.100000E-07
Memory for A and Hxc:        Direct Updating Without Saving
Non-Adiabatic Coupling:      Yes

--------------------------------------------------------------------------------

***  Geometry step: 0

  iSCC       reks energy        Diff energy         x_a       SCC error   
    1      -16.4003844139       0.0000000000     0.998588    1.21126250
    2      -16.4199587154      -0.0195743015     0.999693    0.05012220
    3      -16.4246201898      -0.0046614744     0.999881    0.01921873
    4      -16.4262995825      -0.0016793927     0.999935    0.01017543
    5      -16.4270762333      -0.0007766508     0.999957    0.00719750
    6      -16.4275062599      -0.0004300266     0.999968    0.00547804
    7      -16.4277790689      -0.0002728090     0.999974    0.00432530
    8      -16.4279710400      -0.0001919711     0.999978    0.00352567
    9      -16.4281172825      -0.0001462425     0.999981    0.00295587
   10      -16.4282355784      -0.0001182958     0.999983    0.00254025
   11      -16.4283355816      -0.0001000032     0.999985    0.00223001
   12      -16.4284228157      -0.0000872341     0.999986    0.00199273
   13      -16.4285005855      -0.0000777699     0.999987    0.00180651
   14      -16.4285709556      -0.0000703701     0.999988    0.00165643
   15      -16.4286352748      -0.0000643192     0.999989    0.00165156
   16      -16.4286944673      -0.0000591925     0.999990    0.00164742
   17      -16.4287491983      -0.0000547310     0.999991    0.00163484
   18      -16.4287999699      -0.0000507717     0.999991    0.00161570
   19      -16.4288471788      -0.0000472088     0.999992    0.00159147
   20      -16.4288911499      -0.0000439711     0.999992    0.00156334
   21      -16.4289321585      -0.0000410086     0.999993    0.00153225
   22      -16.4289704432      -0.0000382847     0.999993    0.00149899
   23      -16.4290062148      -0.0000357716     0.999994    0.00146418
   24      -16.4290396622      -0.0000334474     0.999994    0.00142835
   25      -16.4290709560      -0.0000312938     0.999994    0.00139189
   26      -16.4291002517      -0.0000292957     0.999995    0.00135516
   27      -16.4291276917      -0.0000274400     0.999995    0.00131843
   28      -16.4291534068      -0.0000257151     0.999995    0.00128192
   29      -16.4291775174      -0.0000241106     0.999995    0.00124579
   30      -16.4292001348      -0.0000226174     0.999996    0.00121020
   31      -16.4292213618      -0.0000212270     0.999996    0.00117525
   32      -16.4292412936      -0.0000199318     0.999996    0.00114103
   33      -16.4292600183      -0.0000187247     0.999996    0.00110760
   34      -16.4292776177      -0.0000175993     0.999996    0.00107501
   35      -16.4292941673      -0.0000165497     0.999997    0.00104330
   36      -16.4293097377      -0.0000155703     0.999997    0.00101247
   37      -16.4293243939      -0.0000146562     0.999997    0.00098255
   38      -16.4293381966      -0.0000138027     0.999997    0.00095354
   39      -16.4293512020      -0.0000130054     0.999997    0.00092544
   40      -16.4293634623      -0.0000122604     0.999997    0.00089823
   41      -16.4293750262      -0.0000115639     0.999997    0.00087192
   42      -16.4293859388      -0.0000109126     0.999997    0.00084647
   43      -16.4293962420      -0.0000103032     0.999997    0.00082188
   44      -16.4294059748      -0.0000097328     0.999998    0.00079813
   45      -16.4294151736      -0.0000091988     0.999998    0.00077519
   46      -16.4294238721      -0.0000086985     0.999998    0.00075304
   47      -16.4294321018      -0.0000082297     0.999998    0.00073166
   48      -16.4294398919      -0.0000077901     0.999998    0.00071102
   49      -16.4294472698      -0.0000073779     0.999998    0.00069111
   50      -16.4294542607      -0.0000069910     0.999998    0.00067189
   51      -16.4294608885      -0.0000066277     0.999998    0.00065334
   52      -16.4294671750      -0.0000062866     0.999998    0.00063544
   53      -16.4294731410      -0.0000059660     0.999998    0.00061817
   54      -16.4294788056      -0.0000056646     0.999998    0.00060150
   55      -16.4294841867      -0.0000053811     0.999998    0.00058541
   56      -16.4294893010      -0.0000051143     0.999998    0.00056989
   57      -16.4294941642      -0.0000048632     0.999998    0.00055490
   58      -16.4294987909      -0.0000046266     0.999998    0.00054042
   59      -16.4295031946      -0.0000044037     0.999998    0.00052645
   60      -16.4295073881      -0.0000041935     0.999998    0.00051295
   61      -16.4295113834      -0.0000039953     0.999999    0.00049991
   62      -16.4295151917      -0.0000038082     0.999999    0.00048732
   63      -16.4295188232      -0.0000036316     0.999999    0.00047515
   64      -16.4295222880      -0.0000034647     0.999999    0.00046339
   65      -16.4295255950      -0.0000033070     0.999999    0.00045202
   66      -16.4295287530      -0.0000031580     0.999999    0.00044103
   67      -16.4295317699      -0.0000030169     0.999999    0.00043040
   68      -16.4295346533      -0.0000028835     0.999999    0.00042012
   69      -16.4295374104      -0.0000027571     0.999999    0.00041018
   70      -16.4295400478      -0.0000026374     0.999999    0.00040055
   71      -16.4295425717      -0.0000025239     0.999999    0.00039124
   72      -16.4295449881      -0.0000024164     0.999999    0.00038222
   73      -16.4295473025      -0.0000023144     0.999999    0.00037350
   74      -16.4295495200      -0.0000022175     0.999999    0.00036504
   75      -16.4295516456      -0.0000021256     0.999999    0.00035685
   76      -16.4295536840      -0.0000020383     0.999999    0.00034892
   77      -16.4295556393      -0.0000019554     0.999999    0.00034123
   78      -16.4295575158      -0.0000018765     0.999999    0.00033377
   79      -16.4295593173      -0.0000018015     0.999999    0.00032655
   80      -16.4295610474      -0.0000017301     0.999999    0.00031954
   81      -16.4295627097      -0.0000016622     0.999999    0.00031274
   82      -16.4295643072      -0.0000015975     0.999999    0.00030614
   83      -16.4295658431      -0.0000015359     0.999999    0.00029974
   84      -16.4295673203      -0.0000014772     0.999999    0.00029353
   85      -16.4295687415      -0.0000014212     0.999999    0.00028750
   86      -16.4295701093      -0.0000013678     0.999999    0.00028164
   87      -16.4295714262      -0.0000013169     0.999999    0.00027595
   88      -16.4295726945      -0.0000012682     0.999999    0.00027043
   89      -16.4295739163      -0.0000012218     0.999999    0.00026506
   90      -16.4295750937      -0.0000011775     0.999999    0.00025984
   91      -16.4295762288      -0.0000011351     0.999999    0.00025477
   92      -16.4295773234      -0.0000010946     0.999999    0.00024983
   93      -16.4295783792      -0.0000010558     0.999999    0.00024504
   94      -16.4295793980      -0.0000010188     0.999999    0.00024037
   95      -16.4295803813      -0.0000009833     0.999999    0.00023583
   96      -16.4295813306      -0.0000009493     0.999999    0.00023142
   97      -16.4295822474      -0.0000009168     0.999999    0.00022712
   98      -16.4295831331      -0.0000008857     0.999999    0.00022293
   99      -16.4295839889      -0.0000008558     0.999999    0.00021886
  100      -16.4295848161      -0.0000008272     0.999999    0.00021489
  101      -16.4295856159      -0.0000007998     0.999999    0.00021103
  102      -16.4295863893      -0.0000007735     0.999999    0.00020726
  103      -16.4295871375      -0.0000007482     0.999999    0.00020359
  104      -16.4295878615      -0.0000007240     0.999999    0.00020002
  105      -16.4295885622      -0.0000007007     0.999999    0.00019653
  106      -16.4295892405      -0.0000006783     0.999999    0.00019313
  107      -16.4295898974      -0.0000006569     0.999999    0.00018982
  108      -16.4295905336      -0.0000006362     0.999999    0.00018659
  109      -16.4295911500      -0.0000006164     0.999999    0.00018343
  110      -16.4295917473      -0.0000005973     0.999999    0.00018036
  111      -16.4295923263      -0.0000005790     0.999999    0.00017736
  112      -16.4295928877      -0.0000005613     0.999999    0.00017443
  113      -16.4295934320      -0.0000005443     0.999999    0.00017157
  114      -16.4295939600      -0.0000005280     0.999999    0.00016878
  115      -16.4295944722      -0.0000005122     0.999999    0.00016605
  116      -16.4295949693      -0.0000004971     0.999999    0.00016339
  117      -16.4295954518      -0.0000004825     0.999999    0.00016079
  118      -16.4295959202      -0.0000004684     0.999999    0.00015825
  119      -16.4295963750      -0.0000004548     0.999999    0.00015577
  120      -16.4295968167      -0.0000004417     0.999999    0.00015335
  121      -16.4295972458      -0.0000004291     0.999999    0.00015098
  122      -16.4295976628      -0.0000004169     0.999999    0.00014866
  123      -16.4295980679      -0.0000004052     0.999999    0.00014639
  124      -16.4295984618      -0.0000003939     0.999999    0.00014418
  125      -16.4295988447      -0.0000003829     0.999999    0.00014201
  126      -16.4295992170      -0.0000003723     0.999999    0.00013989
  127      -16.4295995792      -0.0000003621     0.999999    0.00013782
  128      -16.4295999314      -0.0000003523     0.999999    0.00013579
  129      -16.4296002742      -0.0000003427     0.999999    0.00013381
  130      -16.4296006077      -0.0000003335     0.999999    0.00013186
  131      -16.4296009323      -0.0000003246     0.999999    0.00012996
  132      -16.4296012484      -0.0000003160     0.999999    0.00012810
  133      -16.4296015560      -0.0000003077     0.999999    0.00012628
  134      -16.4296018557      -0.0000002996     0.999999    0.00012450
  135      -16.4296021475      -0.0000002918     0.999999    0.00012275
  136      -16.4296024318      -0.0000002843     0.999999    0.00012104
  137      -16.4296027089      -0.0000002770     0.999999    0.00011936
  138      -16.4296029788      -0.0000002699     0.999999    0.00011772
  139      -16.4296032419      -0.0000002631     0.999999    0.00011611
  140      -16.4296034984      -0.0000002565     1.000000    0.00011453
  141      -16.4296037484      -0.0000002501     1.000000    0.00011299
  142      -16.4296039922      -0.0000002438     1.000000    0.00011147
  143      -16.4296042300      -0.0000002378     1.000000    0.00010998
  144      -16.4296044620      -0.0000002320     1.000000    0.00010853
  145      -16.4296046883      -0.0000002263     1.000000    0.00010710
  146      -16.4296049091      -0.0000002208     1.000000    0.00010570
  147      -16.4296051246      -0.0000002155     1.000000    0.00010433
  148      -16.4296053349      -0.0000002103     1.000000    0.00010298
  149      -16.4296055401      -0.0000002053     1.000000    0.00010166
  150      -16.4296057406      -0.0000002004     1.000000    0.00010036
  151      -16.4296059363      -0.0000001957     1.000000    0.00009909
  152      -16.4296061274      -0.0000001911     1.000000    0.00009784
  153      -16.4296063140      -0.0000001867     1.000000    0.00009661
  154      -16.4296064964      -0.0000001823     1.000000    0.00009541
  155      -16.4296066745      -0.0000001781     1.000000    0.00009423
  156      -16.4296068486      -0.0000001741     1.000000    0.00009307
  157      -16.4296070187      -0.0000001701     1.000000    0.00009193
  158      -16.4296071849      -0.0000001663     1.000000    0.00009081
  159      -16.4296073474      -0.0000001625     1.000000    0.00008971
  160      -16.4296075063      -0.0000001589     1.000000    0.00008864
  161      -16.4296076617      -0.0000001553     1.000000    0.00008758
  162      -16.4296078136      -0.0000001519     1.000000    0.00008654
  163      -16.4296079621      -0.0000001486     1.000000    0.00008551
  164      -16.4296081074      -0.0000001453     1.000000    0.00008451
  165      -16.4296082496      -0.0000001421     1.000000    0.00008352
  166      -16.4296083887      -0.0000001391     1.000000    0.00008255
  167      -16.4296085247      -0.0000001361     1.000000    0.00008160
  168      -16.4296086579      -0.0000001332     1.000000    0.00008066
  169      -16.4296087882      -0.0000001303     1.000000    0.00007974
  170      -16.4296089158      -0.0000001276     1.000000    0.00007883
  171      -16.4296090407      -0.0000001249     1.000000    0.00007794
  172      -16.4296091629      -0.0000001223     1.000000    0.00007707
  173      -16.4296092826      -0.0000001197     1.000000    0.00007621
  174      -16.4296093999      -0.0000001172     1.000000    0.00007536
  175      -16.4296095147      -0.0000001148     1.000000    0.00007453
  176      -16.4296096271      -0.0000001125     1.000000    0.00007371
  177      -16.4296097373      -0.0000001102     1.000000    0.00007290
  178      -16.4296098452      -0.0000001079     1.000000    0.00007211
  179      -16.4296099509      -0.0000001057     1.000000    0.00007133
  180      -16.4296100545      -0.0000001036     1.000000    0.00007056
  181      -16.4296101561      -0.0000001015     1.000000    0.00006980
  182      -16.4296102556      -0.0000000995     1.000000    0.00006906
  183      -16.4296103531      -0.0000000975     1.000000    0.00006833
  184      -16.4296104487      -0.0000000956     1.000000    0.00006761
  185      -16.4296105425      -0.0000000937     1.000000    0.00006690
  186      -16.4296106344      -0.0000000919     1.000000    0.00006620
  187      -16.4296107245      -0.0000000901     1.000000    0.00006551
  188      -16.4296108129      -0.0000000884     1.000000    0.00006484
  189      -16.4296108996      -0.0000000867     1.000000    0.00006417
  190      -16.4296109846      -0.0000000850     1.000000    0.00006351
  191      -16.4296110680      -0.0000000834     1.000000    0.00006287
  192      -16.4296111498      -0.0000000818     1.000000    0.00006223
  193      -16.4296112301      -0.0000000803     1.000000    0.00006160
  194      -16.4296113089      -0.0000000788     1.000000    0.00006099
  195      -16.4296113862      -0.0000000773     1.000000    0.00006038
  196      -16.4296114620      -0.0000000759     1.000000    0.00005978
  197      -16.4296115365      -0.0000000745     1.000000    0.00005919
  198      -16.4296116096      -0.0000000731     1.000000    0.00005861
  199      -16.4296116813      -0.0000000717     1.000000    0.00005803
  200      -16.4296117518      -0.0000000704     1.000000    0.00005747
  201      -16.4296118209      -0.0000000692     1.000000    0.00005691
  202      -16.4296118888      -0.0000000679     1.000000    0.00005636
  203      -16.4296119555      -0.0000000667     1.000000    0.00005582
  204      -16.4296120210      -0.0000000655     1.000000    0.00005529
  205      -16.4296120853      -0.0000000643     1.000000    0.00005476
  206      -16.4296121485      -0.0000000632     1.000000    0.00005424
  207      -16.4296122105      -0.0000000621     1.000000    0.00005373
  208      -16.4296122715      -0.0000000610     1.000000    0.00005323
  209      -16.4296123314      -0.0000000599     1.000000    0.00005273
  210      -16.4296123902      -0.0000000588     1.000000    0.00005224
  211      -16.4296124480      -0.0000000578     1.000000    0.00005176
  212      -16.4296125049      -0.0000000568     1.000000    0.00005128
  213      -16.4296125607      -0.0000000558     1.000000    0.00005081
  214      -16.4296126156      -0.0000000549     1.000000    0.00005035
  215      -16.4296126696      -0.0000000540     1.000000    0.00004989
  216      -16.4296127226      -0.0000000530     1.000000    0.00004944
  217      -16.4296127747      -0.0000000521     1.000000    0.00004899
  218      -16.4296128260      -0.0000000513     1.000000    0.00004856
  219      -16.4296128764      -0.0000000504     1.000000    0.00004812
  220      -16.4296129259      -0.0000000496     1.000000    0.00004769
  221      -16.4296129747      -0.0000000487     1.000000    0.00004727
  222      -16.4296130226      -0.0000000479     1.000000    0.00004686
  223      -16.4296130697      -0.0000000471     1.000000    0.00004645
  224      -16.4296131161      -0.0000000464     1.000000    0.00004604
  225      -16.4296131617      -0.0000000456     1.000000    0.00004564
  226      -16.4296132065      -0.0000000449     1.000000    0.00004524
  227      -16.4296132506      -0.0000000441     1.000000    0.00004485
  228      -16.4296132940      -0.0000000434     1.000000    0.00004447
  229      -16.4296133368      -0.0000000427     1.000000    0.00004409
  230      -16.4296133788      -0.0000000420     1.000000    0.00004371
  231      -16.4296134201      -0.0000000414     1.000000    0.00004334
  232      -16.4296134608      -0.0000000407     1.000000    0.00004298
  233      -16.4296135009      -0.0000000401     1.000000    0.00004262
  234      -16.4296135403      -0.0000000394     1.000000    0.00004226
  235      -16.4296135791      -0.0000000388     1.000000    0.00004191
  236      -16.4296136173      -0.0000000382     1.000000    0.00004156
  237      -16.4296136549      -0.0000000376     1.000000    0.00004122
  238      -16.4296136919      -0.0000000370     1.000000    0.00004088
  239      -16.4296137283      -0.0000000364     1.000000    0.00004054
  240      -16.4296137642      -0.0000000359     1.000000    0.00004021
  241      -16.4296137995      -0.0000000353     1.000000    0.00003988
  242      -16.4296138343      -0.0000000348     1.000000    0.00003956
  243      -16.4296138686      -0.0000000343     1.000000    0.00003924
  244      -16.4296139023      -0.0000000337     1.000000    0.00003892
  245      -16.4296139356      -0.0000000332     1.000000    0.00003861
  246      -16.4296139683      -0.0000000327     1.000000    0.00003831
  247      -16.4296140005      -0.0000000322     1.000000    0.00003800
  248      -16.4296140323      -0.0000000318     1.000000    0.00003770
  249      -16.4296140636      -0.0000000313     1.000000    0.00003740
  250      -16.4296140944      -0.0000000308     1.000000    0.00003711
  251      -16.4296141247      -0.0000000304     1.000000    0.00003682
  252      -16.4296141546      -0.0000000299     1.000000    0.00003653
  253      -16.4296141841      -0.0000000295     1.000000    0.00003625
  254      -16.4296142132      -0.0000000290     1.000000    0.00003597
  255      -16.4296142418      -0.0000000286     1.000000    0.00003569
  256      -16.4296142700      -0.0000000282     1.000000    0.00003542
  257      -16.4296142978      -0.0000000278     1.000000    0.00003515
  258      -16.4296143252      -0.0000000274     1.000000    0.00003488
  259      -16.4296143522      -0.0000000270     1.000000    0.00003462
  260      -16.4296143788      -0.0000000266     1.000000    0.00003435
  261      -16.4296144051      -0.0000000262     1.000000    0.00003410
  262      -16.4296144309      -0.0000000259     1.000000    0.00003384
  263      -16.4296144564      -0.0000000255     1.000000    0.00003359
  264      -16.4296144816      -0.0000000251     1.000000    0.00003334
  265      -16.4296145064      -0.0000000248     1.000000    0.00003309
  266      -16.4296145308      -0.0000000244     1.000000    0.00003285
  267      -16.4296145549      -0.0000000241     1.000000    0.00003260
  268      -16.4296145787      -0.0000000238     1.000000    0.00003236
  269      -16.4296146021      -0.0000000234     1.000000    0.00003213
  270      -16.4296146252      -0.0000000231     1.000000    0.00003189
  271      -16.4296146480      -0.0000000228     1.000000    0.00003166
  272      -16.4296146705      -0.0000000225     1.000000    0.00003143
  273      -16.4296146927      -0.0000000222     1.000000    0.00003121
  274      -16.4296147145      -0.0000000219     1.000000    0.00003098
  275      -16.4296147361      -0.0000000216     1.000000    0.00003076
  276      -16.4296147574      -0.0000000213     1.000000    0.00003054
  277      -16.4296147784      -0.0000000210     1.000000    0.00003033
  278      -16.4296147991      -0.0000000207     1.000000    0.00003011
  279      -16.4296148196      -0.0000000204     1.000000    0.00002990
  280      -16.4296148397      -0.0000000202     1.000000    0.00002969
  281      -16.4296148596      -0.0000000199     1.000000    0.00002948
  282      -16.4296148793      -0.0000000196     1.000000    0.00002927
  283      -16.4296148986      -0.0000000194     1.000000    0.00002907
  284      -16.4296149178      -0.0000000191     1.000000    0.00002887
  285      -16.4296149366      -0.0000000189     1.000000    0.00002867
  286      -16.4296149553      -0.0000000186     1.000000    0.00002847
  287      -16.4296149736      -0.0000000184     1.000000    0.00002828
  288      -16.4296149918      -0.0000000181     1.000000    0.00002808
  289      -16.4296150097      -0.0000000179     1.000000    0.00002789
  290      -16.4296150274      -0.0000000177     1.000000    0.00002770
  291      -16.4296150448      -0.0000000175     1.000000    0.00002752
  292      -16.4296150621      -0.0000000172     1.000000    0.00002733
  293      -16.4296150791      -0.0000000170     1.000000    0.00002715
  294      -16.4296150958      -0.0000000168     1.000000    0.00002696
  295      -16.4296151124      -0.0000000166     1.000000    0.00002678
  296      -16.4296151288      -0.0000000164     1.000000    0.00002661
  297      -16.4296151450      -0.0000000162     1.000000    0.00002643
  298      -16.4296151609      -0.0000000160     1.000000    0.00002625
  299      -16.4296151767      -0.0000000158     1.000000    0.00002608
  300      -16.4296151922      -0.0000000156     1.000000    0.00002591
  301      -16.4296152076      -0.0000000154     1.000000    0.00002574
  302      -16.4296152228      -0.0000000152     1.000000    0.00002557
  303      -16.4296152378      -0.0000000150     1.000000    0.00002541
  304      -16.4296152526      -0.0000000148     1.000000    0.00002524
  305      -16.4296152672      -0.0000000146     1.000000    0.00002508
  306      -16.4296152816      -0.0000000144     1.000000    0.00002492
  307      -16.4296152959      -0.0000000143     1.000000    0.00002476
  308      -16.4296153100      -0.0000000141     1.000000    0.00002460
  309      -16.4296153239      -0.0000000139     1.000000    0.00002444
  310      -16.4296153377      -0.0000000138     1.000000    0.00002429
  311      -16.4296153512      -0.0000000136     1.000000    0.00002413
  312      -16.4296153647      -0.0000000134     1.000000    0.00002398
  313      -16.4296153779      -0.0000000133     1.000000    0.00002383
  314      -16.4296153910      -0.0000000131     1.000000    0.00002368
  315      -16.4296154040      -0.0000000129     1.000000    0.00002353
  316      -16.4296154168      -0.0000000128     1.000000    0.00002338
  317      -16.4296154294      -0.0000000126     1.000000    0.00002324
  318      -16.4296154419      -0.0000000125     1.000000    0.00002309
  319      -16.4296154542      -0.0000000123     1.000000    0.00002295
  320      -16.4296154664      -0.0000000122     1.000000    0.00002281
  321      -16.4296154785      -0.0000000121     1.000000    0.00002267
  322      -16.4296154904      -0.0000000119     1.000000    0.00002253
  323      -16.4296155022      -0.0000000118     1.000000    0.00002239
  324      -16.4296155138      -0.0000000116     1.000000    0.00002226
  325      -16.4296155253      -0.0000000115     1.000000    0.00002212
  326      -16.4296155367      -0.0000000114     1.000000    0.00002199
  327      -16.4296155479      -0.0000000112     1.000000    0.00002185
  328      -16.4296155591      -0.0000000111     1.000000    0.00002172
  329      -16.4296155700      -0.0000000110     1.000000    0.00002159
  330      -16.4296155809      -0.0000000109     1.000000    0.00002146
  331      -16.4296155916      -0.0000000107     1.000000    0.00002134
  332      -16.4296156023      -0.0000000106     1.000000    0.00002121
  333      -16.4296156127      -0.0000000105     1.000000    0.00002108
  334      -16.4296156231      -0.0000000104     1.000000    0.00002096
  335      -16.4296156334      -0.0000000103     1.000000    0.00002083
  336      -16.4296156435      -0.0000000101     1.000000    0.00002071
  337      -16.4296156536      -0.0000000100     1.000000    0.00002059
  338      -16.4296156635      -0.0000000099     1.000000    0.00002047
  339      -16.4296156733      -0.0000000098     1.000000    0.00002035
  340      -16.4296156830      -0.0000000097     1.000000    0.00002023
  341      -16.4296156926      -0.0000000096     1.000000    0.00002012
  342      -16.4296157021      -0.0000000095     1.000000    0.00002000
  343      -16.4296157114      -0.0000000094     1.000000    0.00001988
  344      -16.4296157207      -0.0000000093     1.000000    0.00001977
  345      -16.4296157299      -0.0000000092     1.000000    0.00001966
  346      -16.4296157390      -0.0000000091     1.000000    0.00001954
  347      -16.4296157479      -0.0000000090     1.000000    0.00001943
  348      -16.4296157568      -0.0000000089     1.000000    0.00001932
  349      -16.4296157656      -0.0000000088     1.000000    0.00001921
  350      -16.4296157743      -0.0000000087     1.000000    0.00001911
  351      -16.4296157829      -0.0000000086     1.000000    0.00001900
  352      -16.4296157914      -0.0000000085     1.000000    0.00001889
  353      -16.4296157998      -0.0000000084     1.000000    0.00001879
  354      -16.4296158081      -0.0000000083     1.000000    0.00001868
  355      -16.4296158164      -0.0000000082     1.000000    0.00001858
  356      -16.4296158245      -0.0000000081     1.000000    0.00001847
  357      -16.4296158326      -0.0000000081     1.000000    0.00001837
  358      -16.4296158406      -0.0000000080     1.000000    0.00001827
  359      -16.4296158484      -0.0000000079     1.000000    0.00001817
  360      -16.4296158563      -0.0000000078     1.000000    0.00001807
  361      -16.4296158640      -0.0000000077     1.000000    0.00001797
  362      -16.4296158716      -0.0000000076     1.000000    0.00001787
  363      -16.4296158792      -0.0000000076     1.000000    0.00001777
  364      -16.4296158867      -0.0000000075     1.000000    0.00001768
  365      -16.4296158941      -0.0000000074     1.000000    0.00001759
  366      -16.4296159014      -0.0000000073     1.000000    0.00001750
  367      -16.4296159087      -0.0000000073     1.000000    0.00001741
  368      -16.4296159159      -0.0000000072     1.000000    0.00001733
  369      -16.4296159230      -0.0000000071     1.000000    0.00001724
  370      -16.4296159300      -0.0000000070     1.000000    0.00001715
  371      -16.4296159370      -0.0000000070     1.000000    0.00001707
  372      -16.4296159439      -0.0000000069     1.000000    0.00001698
  373      -16.4296159507      -0.0000000068     1.000000    0.00001690
  374      -16.4296159574      -0.0000000068     1.000000    0.00001682
  375      -16.4296159641      -0.0000000067     1.000000    0.00001673
  376      -16.4296159708      -0.0000000066     1.000000    0.00001665
  377      -16.4296159773      -0.0000000066     1.000000    0.00001657
  378      -16.4296159838      -0.0000000065     1.000000    0.00001649
  379      -16.4296159902      -0.0000000064     1.000000    0.00001641
  380      -16.4296159966      -0.0000000064     1.000000    0.00001633
  381      -16.4296160029      -0.0000000063     1.000000    0.00001625
  382      -16.4296160091      -0.0000000062     1.000000    0.00001617
  383      -16.4296160153      -0.0000000062     1.000000    0.00001609
  384      -16.4296160214      -0.0000000061     1.000000    0.00001602
  385      -16.4296160274      -0.0000000060     1.000000    0.00001594
  386      -16.4296160334      -0.0000000060     1.000000    0.00001586
  387      -16.4296160393      -0.0000000059     1.000000    0.00001579
  388      -16.4296160452      -0.0000000059     1.000000    0.00001571
  389      -16.4296160510      -0.0000000058     1.000000    0.00001564
  390      -16.4296160568      -0.0000000058     1.000000    0.00001556
  391      -16.4296160625      -0.0000000057     1.000000    0.00001549
  392      -16.4296160681      -0.0000000056     1.000000    0.00001542
  393      -16.4296160737      -0.0000000056     1.000000    0.00001534
  394      -16.4296160793      -0.0000000055     1.000000    0.00001527
  395      -16.4296160848      -0.0000000055     1.000000    0.00001520
  396      -16.4296160902      -0.0000000054     1.000000    0.00001513
  397      -16.4296160956      -0.0000000054     1.000000    0.00001506
  398      -16.4296161009      -0.0000000053     1.000000    0.00001499
  399      -16.4296161062      -0.0000000053     1.000000    0.00001492
  400      -16.4296161114      -0.0000000052     1.000000    0.00001485
  401      -16.4296161166      -0.0000000052     1.000000    0.00001478
  402      -16.4296161217      -0.0000000051     1.000000    0.00001471
  403      -16.4296161268      -0.0000000051     1.000000    0.00001464
  404      -16.4296161318      -0.0000000050     1.000000    0.00001458
  405      -16.4296161368      -0.0000000050     1.000000    0.00001451
  406      -16.4296161418      -0.0000000049     1.000000    0.00001444
  407      -16.4296161467      -0.0000000049     1.000000    0.00001438
  408      -16.4296161515      -0.0000000048     1.000000    0.00001431
  409      -16.4296161563      -0.0000000048     1.000000    0.00001425
  410      -16.4296161611      -0.0000000048     1.000000    0.00001418
  411      -16.4296161658      -0.0000000047     1.000000    0.00001412
  412      -16.4296161704      -0.0000000047     1.000000    0.00001405
  413      -16.4296161751      -0.0000000046     1.000000    0.00001399
  414      -16.4296161797      -0.0000000046     1.000000    0.00001393
  415      -16.4296161842      -0.0000000045     1.000000    0.00001387
  416      -16.4296161887      -0.0000000045     1.000000    0.00001380
  417      -16.4296161932      -0.0000000045     1.000000    0.00001374
  418      -16.4296161976      -0.0000000044     1.000000    0.00001368
  419      -16.4296162020      -0.0000000044     1.000000    0.00001362
  420      -16.4296162063      -0.0000000043     1.000000    0.00001356
  421      -16.4296162106      -0.0000000043     1.000000    0.00001350
  422      -16.4296162149      -0.0000000043     1.000000    0.00001344
  423      -16.4296162191      -0.0000000042     1.000000    0.00001338
  424      -16.4296162233      -0.0000000042     1.000000    0.00001332
  425      -16.4296162274      -0.0000000041     1.000000    0.00001326
  426      -16.4296162315      -0.0000000041     1.000000    0.00001321
  427      -16.4296162356      -0.0000000041     1.000000    0.00001315
  428      -16.4296162396      -0.0000000040     1.000000    0.00001309
  429      -16.4296162436      -0.0000000040     1.000000    0.00001303
  430      -16.4296162476      -0.0000000040     1.000000    0.00001298
  431      -16.4296162515      -0.0000000039     1.000000    0.00001292
  432      -16.4296162554      -0.0000000039     1.000000    0.00001287
  433      -16.4296162593      -0.0000000039     1.000000    0.00001281
  434      -16.4296162631      -0.0000000038     1.000000    0.00001275
  435      -16.4296162669      -0.0000000038     1.000000    0.00001270
  436      -16.4296162707      -0.0000000038     1.000000    0.00001265
  437      -16.4296162744      -0.0000000037     1.000000    0.00001259
  438      -16.4296162781      -0.0000000037     1.000000    0.00001254
  439      -16.4296162818      -0.0000000037     1.000000    0.00001248
  440      -16.4296162854      -0.0000000036     1.000000    0.00001243
  441      -16.4296162890      -0.0000000036     1.000000    0.00001238
  442      -16.4296162926      -0.0000000036     1.000000    0.00001233
  443      -16.4296162961      -0.0000000035     1.000000    0.00001227
  444      -16.4296162996      -0.0000000035     1.000000    0.00001222
  445      -16.4296163031      -0.0000000035     1.000000    0.00001217
  446      -16.4296163065      -0.0000000034     1.000000    0.00001212
  447      -16.4296163100      -0.0000000034     1.000000    0.00001207
  448      -16.4296163133      -0.0000000034     1.000000    0.00001202
  449      -16.4296163167      -0.0000000034     1.000000    0.00001197
  450      -16.4296163200      -0.0000000033     1.000000    0.00001192
  451      -16.4296163233      -0.0000000033     1.000000    0.00001187
  452      -16.4296163266      -0.0000000033     1.000000    0.00001182
  453      -16.4296163299      -0.0000000032     1.000000    0.00001177
  454      -16.4296163331      -0.0000000032     1.000000    0.00001172
  455      -16.4296163363      -0.0000000032     1.000000    0.00001168
  456      -16.4296163394      -0.0000000032     1.000000    0.00001163
  457      -16.4296163426      -0.0000000031     1.000000    0.00001158
  458      -16.4296163457      -0.0000000031     1.000000    0.00001153
  459      -16.4296163488      -0.0000000031     1.000000    0.00001149
  460      -16.4296163519      -0.0000000031     1.000000    0.00001144
  461      -16.4296163549      -0.0000000030     1.000000    0.00001139
  462      -16.4296163579      -0.0000000030     1.000000    0.00001135
  463      -16.4296163609      -0.0000000030     1.000000    0.00001130
  464      -16.4296163638      -0.0000000030     1.000000    0.00001125
  465      -16.4296163668      -0.0000000029     1.000000    0.00001121
  466      -16.4296163697      -0.0000000029     1.000000    0.00001116
  467      -16.4296163726      -0.0000000029     1.000000    0.00001112
  468      -16.4296163755      -0.0000000029     1.000000    0.00001107
  469      -16.4296163783      -0.0000000028     1.000000    0.00001103
  470      -16.4296163811      -0.0000000028     1.000000    0.00001099
  471      -16.4296163839      -0.0000000028     1.000000    0.00001094
  472      -16.4296163867      -0.0000000028     1.000000    0.00001090
  473      -16.4296163894      -0.0000000028     1.000000    0.00001085
  474      -16.4296163922      -0.0000000027     1.000000    0.00001081
  475      -16.4296163949      -0.0000000027     1.000000    0.00001077
  476      -16.4296163976      -0.0000000027     1.000000    0.00001073
  477      -16.4296164002      -0.0000000027     1.000000    0.00001068
  478      -16.4296164029      -0.0000000026     1.000000    0.00001064
  479      -16.4296164055      -0.0000000026     1.000000    0.00001060
  480      -16.4296164081      -0.0000000026     1.000000    0.00001056
  481      -16.4296164107      -0.0000000026     1.000000    0.00001052
  482      -16.4296164132      -0.0000000026     1.000000    0.00001048
  483      -16.4296164158      -0.0000000025     1.000000    0.00001044
  484      -16.4296164183      -0.0000000025     1.000000    0.00001040
  485      -16.4296164208      -0.0000000025     1.000000    0.00001036
  486      -16.4296164233      -0.0000000025     1.000000    0.00001031
  487      -16.4296164257      -0.0000000025     1.000000    0.00001028
  488      -16.4296164282      -0.0000000024     1.000000    0.00001024
  489      -16.4296164306      -0.0000000024     1.000000    0.00001020
  490      -16.4296164330      -0.0000000024     1.000000    0.00001016
  491      -16.4296164354      -0.0000000024     1.000000    0.00001012
  492      -16.4296164377      -0.0000000024     1.000000    0.00001008
  493      -16.4296164401      -0.0000000023     1.000000    0.00001004
  494      -16.4296164424      -0.0000000023     1.000000    0.00001000
  495      -16.4296164447      -0.0000000023     1.000000    0.00000996
  496      -16.4296164470      -0.0000000023     1.000000    0.00000993
  497      -16.4296164493      -0.0000000023     1.000000    0.00000989
  498      -16.4296164515      -0.0000000023     1.000000    0.00000985
  499      -16.4296164538      -0.0000000022     1.000000    0.00000981
  500      -16.4296164560      -0.0000000022     1.000000    0.00000978
  501      -16.4296164582      -0.0000000022     1.000000    0.00000974
  502      -16.4296164604      -0.0000000022     1.000000    0.00000970
  503      -16.4296164626      -0.0000000022     1.000000    0.00000967
  504      -16.4296164647      -0.0000000022     1.000000    0.00000963
  505      -16.4296164669      -0.0000000021     1.000000    0.00000960
  506      -16.4296164690      -0.0000000021     1.000000    0.00000956
  507      -16.4296164711      -0.0000000021     1.000000    0.00000952
  508      -16.4296164732      -0.0000000021     1.000000    0.00000949
  509      -16.4296164752      -0.0000000021     1.000000    0.00000945
  510      -16.4296164773      -0.0000000021     1.000000    0.00000942
  511      -16.4296164793      -0.0000000020     1.000000    0.00000938
  512      -16.4296164814      -0.0000000020     1.000000    0.00000935
  513      -16.4296164834      -0.0000000020     1.000000    0.00000931
  514      -16.4296164854      -0.0000000020     1.000000    0.00000928
  515      -16.4296164874      -0.0000000020     1.000000    0.00000925
  516      -16.4296164893      -0.0000000020     1.000000    0.00000921
  517      -16.4296164913      -0.0000000020     1.000000    0.00000918
  518      -16.4296164932      -0.0000000019     1.000000    0.00000914
  519      -16.4296164952      -0.0000000019     1.000000    0.00000911
  520      -16.4296164971      -0.0000000019     1.000000    0.00000908
  521      -16.4296164990      -0.0000000019     1.000000    0.00000905
  522      -16.4296165008      -0.0000000019     1.000000    0.00000901
  523      -16.4296165027      -0.0000000019     1.000000    0.00000898
  524      -16.4296165046      -0.0000000019     1.000000    0.00000895
  525      -16.4296165064      -0.0000000018     1.000000    0.00000892
  526      -16.4296165082      -0.0000000018     1.000000    0.00000888
  527      -16.4296165100      -0.0000000018     1.000000    0.00000885
  528      -16.4296165118      -0.0000000018     1.000000    0.00000882
  529      -16.4296165136      -0.0000000018     1.000000    0.00000879
  530      -16.4296165154      -0.0000000018     1.000000    0.00000876
  531      -16.4296165172      -0.0000000018     1.000000    0.00000873
  532      -16.4296165189      -0.0000000017     1.000000    0.00000869
  533      -16.4296165207      -0.0000000017     1.000000    0.00000866
  534      -16.4296165224      -0.0000000017     1.000000    0.00000863
  535      -16.4296165241      -0.0000000017     1.000000    0.00000860
  536      -16.4296165258      -0.0000000017     1.000000    0.00000857
  537      -16.4296165275      -0.0000000017     1.000000    0.00000854
  538      -16.4296165292      -0.0000000017     1.000000    0.00000851
  539      -16.4296165308      -0.0000000017     1.000000    0.00000848
  540      -16.4296165325      -0.0000000017     1.000000    0.00000845
  541      -16.4296165341      -0.0000000016     1.000000    0.00000842
  542      -16.4296165357      -0.0000000016     1.000000    0.00000839
  543      -16.4296165373      -0.0000000016     1.000000    0.00000836
  544      -16.4296165390      -0.0000000016     1.000000    0.00000833
  545      -16.4296165405      -0.0000000016     1.000000    0.00000831
  546      -16.4296165421      -0.0000000016     1.000000    0.00000828
  547      -16.4296165437      -0.0000000016     1.000000    0.00000825
  548      -16.4296165453      -0.0000000016     1.000000    0.00000822
  549      -16.4296165468      -0.0000000015     1.000000    0.00000819
  550      -16.4296165483      -0.0000000015     1.000000    0.00000816
  551      -16.4296165499      -0.0000000015     1.000000    0.00000813
  552      -16.4296165514      -0.0000000015     1.000000    0.00000811
  553      -16.4296165529      -0.0000000015     1.000000    0.00000808
  554      -16.4296165544      -0.0000000015     1.000000    0.00000805
  555      -16.4296165559      -0.0000000015     1.000000    0.00000802
  556      -16.4296165573      -0.0000000015     1.000000    0.00000800
  557      -16.4296165588      -0.0000000015     1.000000    0.00000797
  558      -16.4296165603      -0.0000000015     1.000000    0.00000794
  559      -16.4296165617      -0.0000000014     1.000000    0.00000791
  560      -16.4296165631      -0.0000000014     1.000000    0.00000789
  561      -16.4296165646      -0.0000000014     1.000000    0.00000786
  562      -16.4296165660      -0.0000000014     1.000000    0.00000783
  563      -16.4296165674      -0.0000000014     1.000000    0.00000781
  564      -16.4296165688      -0.0000000014     1.000000    0.00000778
  565      -16.4296165702      -0.0000000014     1.000000    0.00000776
  566      -16.4296165715      -0.0000000014     1.000000    0.00000773
  567      -16.4296165729      -0.0000000014     1.000000    0.00000770
  568      -16.4296165743      -0.0000000014     1.000000    0.00000768
  569      -16.4296165756      -0.0000000013     1.000000    0.00000765
  570      -16.4296165770      -0.0000000013     1.000000    0.00000763
  571      -16.4296165783      -0.0000000013     1.000000    0.00000760
  572      -16.4296165796      -0.0000000013     1.000000    0.00000758
  573      -16.4296165809      -0.0000000013     1.000000    0.00000755
  574      -16.4296165822      -0.0000000013     1.000000    0.00000753
  575      -16.4296165835      -0.0000000013     1.000000    0.00000750
  576      -16.4296165848      -0.0000000013     1.000000    0.00000748
  577      -16.4296165861      -0.0000000013     1.000000    0.00000745
  578      -16.4296165873      -0.0000000013     1.000000    0.00000743
  579      -16.4296165886      -0.0000000013     1.000000    0.00000740
  580      -16.4296165899      -0.0000000013     1.000000    0.00000738
  581      -16.4296165911      -0.0000000012     1.000000    0.00000735
  582      -16.4296165923      -0.0000000012     1.000000    0.00000733
  583      -16.4296165936      -0.0000000012     1.000000    0.00000731
  584      -16.4296165948      -0.0000000012     1.000000    0.00000728
  585      -16.4296165960      -0.0000000012     1.000000    0.00000726
  586      -16.4296165972      -0.0000000012     1.000000    0.00000723
  587      -16.4296165984      -0.0000000012     1.000000    0.00000721
  588      -16.4296165996      -0.0000000012     1.000000    0.00000719
  589      -16.4296166008      -0.0000000012     1.000000    0.00000716
  590      -16.4296166019      -0.0000000012     1.000000    0.00000714
  591      -16.4296166031      -0.0000000012     1.000000    0.00000712
  592      -16.4296166042      -0.0000000012     1.000000    0.00000709
  593      -16.4296166054      -0.0000000011     1.000000    0.00000707
  594      -16.4296166065      -0.0000000011     1.000000    0.00000705
  595      -16.4296166077      -0.0000000011     1.000000    0.00000703
  596      -16.4296166088      -0.0000000011     1.000000    0.00000700
  597      -16.4296166099      -0.0000000011     1.000000    0.00000698
  598      -16.4296166110      -0.0000000011     1.000000    0.00000696
  599      -16.4296166121      -0.0000000011     1.000000    0.00000694
  600      -16.4296166132      -0.0000000011     1.000000    0.00000692
  601      -16.4296166143      -0.0000000011     1.000000    0.00000689
  602      -16.4296166154      -0.0000000011     1.000000    0.00000687
  603      -16.4296166165      -0.0000000011     1.000000    0.00000685
  604      -16.4296166175      -0.0000000011     1.000000    0.00000683
  605      -16.4296166186      -0.0000000011     1.000000    0.00000681
  606      -16.4296166197      -0.0000000011     1.000000    0.00000679
  607      -16.4296166207      -0.0000000010     1.000000    0.00000676
  608      -16.4296166218      -0.0000000010     1.000000    0.00000674
  609      -16.4296166228      -0.0000000010     1.000000    0.00000672
  610      -16.4296166238      -0.0000000010     1.000000    0.00000670
  611      -16.4296166248      -0.0000000010     1.000000    0.00000668
  612      -16.4296166259      -0.0000000010     1.000000    0.00000666
  613      -16.4296166269      -0.0000000010     1.000000    0.00000664
  614      -16.4296166279      -0.0000000010     1.000000    0.00000662
  615      -16.4296166289      -0.0000000010     1.000000    0.00000660
  616      -16.4296166299      -0.0000000010     1.000000    0.00000658
  617      -16.4296166308      -0.0000000010     1.000000    0.00000656
  618      -16.4296166318      -0.0000000010     1.000000    0.00000654
  619      -16.4296166328      -0.0000000010     1.000000    0.00000651
  620      -16.4296166338      -0.0000000010     1.000000    0.00000649
  621      -16.4296166347      -0.0000000010     1.000000    0.00000647
  622      -16.4296166357      -0.0000000010     1.000000    0.00000645
  623      -16.4296166366      -0.0000000009     1.000000    0.00000643
  624      -16.4296166376      -0.0000000009     1.000000    0.00000642
  625      -16.4296166385      -0.0000000009     1.000000    0.00000640
  626      -16.4296166394      -0.0000000009     1.000000    0.00000638
  627      -16.4296166403      -0.0000000009     1.000000    0.00000636
  628      -16.4296166413      -0.0000000009     1.000000    0.00000634
  629      -16.4296166422      -0.0000000009     1.000000    0.00000632
  630      -16.4296166431      -0.0000000009     1.000000    0.00000630
  631      -16.4296166440      -0.0000000009     1.000000    0.00000628
  632      -16.4296166449      -0.0000000009     1.000000    0.00000626
  633      -16.4296166458      -0.0000000009     1.000000    0.00000624
  634      -16.4296166467      -0.0000000009     1.000000    0.00000622
  635      -16.4296166475      -0.0000000009     1.000000    0.00000620
  636      -16.4296166484      -0.0000000009     1.000000    0.00000619
  637      -16.4296166493      -0.0000000009     1.000000    0.00000617
  638      -16.4296166501      -0.0000000009     1.000000    0.00000615
  639      -16.4296166510      -0.0000000009     1.000000    0.00000613
  640      -16.4296166519      -0.0000000009     1.000000    0.00000611
  641      -16.4296166527      -0.0000000008     1.000000    0.00000609
  642      -16.4296166535      -0.0000000008     1.000000    0.00000607
  643      -16.4296166544      -0.0000000008     1.000000    0.00000606
  644      -16.4296166552      -0.0000000008     1.000000    0.00000604
  645      -16.4296166560      -0.0000000008     1.000000    0.00000602
  646      -16.4296166569      -0.0000000008     1.000000    0.00000600
  647      -16.4296166577      -0.0000000008     1.000000    0.00000598
  648      -16.4296166585      -0.0000000008     1.000000    0.00000597
  649      -16.4296166593      -0.0000000008     1.000000    0.00000595
  650      -16.4296166601      -0.0000000008     1.000000    0.00000593
  651      -16.4296166609      -0.0000000008     1.000000    0.00000591
  652      -16.4296166617      -0.0000000008     1.000000    0.00000590
  653      -16.4296166625      -0.0000000008     1.000000    0.00000588
  654      -16.4296166633      -0.0000000008     1.000000    0.00000586
  655      -16.4296166641      -0.0000000008     1.000000    0.00000584
  656      -16.4296166648      -0.0000000008     1.000000    0.00000583
  657      -16.4296166656      -0.0000000008     1.000000    0.00000581
  658      -16.4296166664      -0.0000000008     1.000000    0.00000579
  659      -16.4296166671      -0.0000000008     1.000000    0.00000578
  660      -16.4296166679      -0.0000000008     1.000000    0.00000576
  661      -16.4296166686      -0.0000000008     1.000000    0.00000574
  662      -16.4296166694      -0.0000000007     1.000000    0.00000573
  663      -16.4296166701      -0.0000000007     1.000000    0.00000571
  664      -16.4296166709      -0.0000000007     1.000000    0.00000569
  665      -16.4296166716      -0.0000000007     1.000000    0.00000568
  666      -16.4296166723      -0.0000000007     1.000000    0.00000566
  667      -16.4296166731      -0.0000000007     1.000000    0.00000564
  668      -16.4296166738      -0.0000000007     1.000000    0.00000563
  669      -16.4296166745      -0.0000000007     1.000000    0.00000561
  670      -16.4296166752      -0.0000000007     1.000000    0.00000560
  671      -16.4296166759      -0.0000000007     1.000000    0.00000558
  672      -16.4296166766      -0.0000000007     1.000000    0.00000556
  673      -16.4296166773      -0.0000000007     1.000000    0.00000555
  674      -16.4296166780      -0.0000000007     1.000000    0.00000553
  675      -16.4296166787      -0.0000000007     1.000000    0.00000552
  676      -16.4296166794      -0.0000000007     1.000000    0.00000550
  677      -16.4296166801      -0.0000000007     1.000000    0.00000548
  678      -16.4296166808      -0.0000000007     1.000000    0.00000547
  679      -16.4296166815      -0.0000000007     1.000000    0.00000545
  680      -16.4296166821      -0.0000000007     1.000000    0.00000544
  681      -16.4296166828      -0.0000000007     1.000000    0.00000542
  682      -16.4296166835      -0.0000000007     1.000000    0.00000541
  683      -16.4296166841      -0.0000000007     1.000000    0.00000539
  684      -16.4296166848      -0.0000000007     1.000000    0.00000538
  685      -16.4296166854      -0.0000000007     1.000000    0.00000536
  686      -16.4296166861      -0.0000000007     1.000000    0.00000535
  687      -16.4296166867      -0.0000000006     1.000000    0.00000533
  688      -16.4296166874      -0.0000000006     1.000000    0.00000532
  689      -16.4296166880      -0.0000000006     1.000000    0.00000530
  690      -16.4296166887      -0.0000000006     1.000000    0.00000529
  691      -16.4296166893      -0.0000000006     1.000000    0.00000527
  692      -16.4296166899      -0.0000000006     1.000000    0.00000526
  693      -16.4296166905      -0.0000000006     1.000000    0.00000524
  694      -16.4296166912      -0.0000000006     1.000000    0.00000523
  695      -16.4296166918      -0.0000000006     1.000000    0.00000521
  696      -16.4296166924      -0.0000000006     1.000000    0.00000520
  697      -16.4296166930      -0.0000000006     1.000000    0.00000519
  698      -16.4296166936      -0.0000000006     1.000000    0.00000517
  699      -16.4296166942      -0.0000000006     1.000000    0.00000516
  700      -16.4296166948      -0.0000000006     1.000000    0.00000514
  701      -16.4296166954      -0.0000000006     1.000000    0.00000513
  702      -16.4296166960      -0.0000000006     1.000000    0.00000511
  703      -16.4296166966      -0.0000000006     1.000000    0.00000510
  704      -16.4296166972      -0.0000000006     1.000000    0.00000509
  705      -16.4296166978      -0.0000000006     1.000000    0.00000507
  706      -16.4296166984      -0.0000000006     1.000000    0.00000506
  707      -16.4296166989      -0.0000000006     1.000000    0.00000504
  708      -16.4296166995      -0.0000000006     1.000000    0.00000503
  709      -16.4296167001      -0.0000000006     1.000000    0.00000502
  710      -16.4296167006      -0.0000000006     1.000000    0.00000500
  711      -16.4296167012      -0.0000000006     1.000000    0.00000499
  712      -16.4296167018      -0.0000000006     1.000000    0.00000498
  713      -16.4296167023      -0.0000000006     1.000000    0.00000496
  714      -16.4296167029      -0.0000000006     1.000000    0.00000495
  715      -16.4296167034      -0.0000000006     1.000000    0.00000494
  716      -16.4296167040      -0.0000000006     1.000000    0.00000492
  717      -16.4296167045      -0.0000000005     1.000000    0.00000491
  718      -16.4296167051      -0.0000000005     1.000000    0.00000490
  719      -16.4296167056      -0.0000000005     1.000000    0.00000488
  720      -16.4296167062      -0.0000000005     1.000000    0.00000487
  721      -16.4296167067      -0.0000000005     1.000000    0.00000486
  722      -16.4296167072      -0.0000000005     1.000000    0.00000484
  723      -16.4296167078      -0.0000000005     1.000000    0.00000483
  724      -16.4296167083      -0.0000000005     1.000000    0.00000482
  725      -16.4296167088      -0.0000000005     1.000000    0.00000480
  726      -16.4296167093      -0.0000000005     1.000000    0.00000479
  727      -16.4296167099      -0.0000000005     1.000000    0.00000478
  728      -16.4296167104      -0.0000000005     1.000000    0.00000477
  729      -16.4296167109      -0.0000000005     1.000000    0.00000475
  730      -16.4296167114      -0.0000000005     1.000000    0.00000474
  731      -16.4296167119      -0.0000000005     1.000000    0.00000473
  732      -16.4296167124      -0.0000000005     1.000000    0.00000472
  733      -16.4296167129      -0.0000000005     1.000000    0.00000470
  734      -16.4296167134      -0.0000000005     1.000000    0.00000469
  735      -16.4296167139      -0.0000000005     1.000000    0.00000468
  736      -16.4296167144      -0.0000000005     1.000000    0.00000467
  737      -16.4296167149      -0.0000000005     1.000000    0.00000465
  738      -16.4296167154      -0.0000000005     1.000000    0.00000464
  739      -16.4296167159      -0.0000000005     1.000000    0.00000463
  740      -16.4296167163      -0.0000000005     1.000000    0.00000462
  741      -16.4296167168      -0.0000000005     1.000000    0.00000461
  742      -16.4296167173      -0.0000000005     1.000000    0.00000459
  743      -16.4296167178      -0.0000000005     1.000000    0.00000458
  744      -16.4296167182      -0.0000000005     1.000000    0.00000457
  745      -16.4296167187      -0.0000000005     1.000000    0.00000456
  746      -16.4296167192      -0.0000000005     1.000000    0.00000455
  747      -16.4296167197      -0.0000000005     1.000000    0.00000453
  748      -16.4296167201      -0.0000000005     1.000000    0.00000452
  749      -16.4296167206      -0.0000000005     1.000000    0.00000451
  750      -16.4296167210      -0.0000000005     1.000000    0.00000450
  751      -16.4296167215      -0.0000000005     1.000000    0.00000449
  752      -16.4296167219      -0.0000000005     1.000000    0.00000448
  753      -16.4296167224      -0.0000000005     1.000000    0.00000446
  754      -16.4296167228      -0.0000000004     1.000000    0.00000445
  755      -16.4296167233      -0.0000000004     1.000000    0.00000444
  756      -16.4296167237      -0.0000000004     1.000000    0.00000443
  757      -16.4296167242      -0.0000000004     1.000000    0.00000442
  758      -16.4296167246      -0.0000000004     1.000000    0.00000441
  759      -16.4296167251      -0.0000000004     1.000000    0.00000440
  760      -16.4296167255      -0.0000000004     1.000000    0.00000438
  761      -16.4296167259      -0.0000000004     1.000000    0.00000437
  762      -16.4296167264      -0.0000000004     1.000000    0.00000436
  763      -16.4296167268      -0.0000000004     1.000000    0.00000435
  764      -16.4296167272      -0.0000000004     1.000000    0.00000434
  765      -16.4296167276      -0.0000000004     1.000000    0.00000433
  766      -16.4296167281      -0.0000000004     1.000000    0.00000432
  767      -16.4296167285      -0.0000000004     1.000000    0.00000431
  768      -16.4296167289      -0.0000000004     1.000000    0.00000430
  769      -16.4296167293      -0.0000000004     1.000000    0.00000429
  770      -16.4296167297      -0.0000000004     1.000000    0.00000427
  771      -16.4296167301      -0.0000000004     1.000000    0.00000426
  772      -16.4296167305      -0.0000000004     1.000000    0.00000425
  773      -16.4296167309      -0.0000000004     1.000000    0.00000424
  774      -16.4296167314      -0.0000000004     1.000000    0.00000423
  775      -16.4296167318      -0.0000000004     1.000000    0.00000422
  776      -16.4296167322      -0.0000000004     1.000000    0.00000421
  777      -16.4296167326      -0.0000000004     1.000000    0.00000420
  778      -16.4296167330      -0.0000000004     1.000000    0.00000419
  779      -16.4296167333      -0.0000000004     1.000000    0.00000418
  780      -16.4296167337      -0.0000000004     1.000000    0.00000417
  781      -16.4296167341      -0.0000000004     1.000000    0.00000416
  782      -16.4296167345      -0.0000000004     1.000000    0.00000415
  783      -16.4296167349      -0.0000000004     1.000000    0.00000414
  784      -16.4296167353      -0.0000000004     1.000000    0.00000413
  785      -16.4296167357      -0.0000000004     1.000000    0.00000412
  786      -16.4296167361      -0.0000000004     1.000000    0.00000411
  787      -16.4296167364      -0.0000000004     1.000000    0.00000410
  788      -16.4296167368      -0.0000000004     1.000000    0.00000409
  789      -16.4296167372      -0.0000000004     1.000000    0.00000408
  790      -16.4296167376      -0.0000000004     1.000000    0.00000407
  791      -16.4296167379      -0.0000000004     1.000000    0.00000406
  792      -16.4296167383      -0.0000000004     1.000000    0.00000405
  793      -16.4296167387      -0.0000000004     1.000000    0.00000404
  794      -16.4296167390      -0.0000000004     1.000000    0.00000403
  795      -16.4296167394      -0.0000000004     1.000000    0.00000402
  796      -16.4296167398      -0.0000000004     1.000000    0.00000401
  797      -16.4296167401      -0.0000000004     1.000000    0.00000400
  798      -16.4296167405      -0.0000000004     1.000000    0.00000399
  799      -16.4296167408      -0.0000000004     1.000000    0.00000398
  800      -16.4296167412      -0.0000000004     1.000000    0.00000397
  801      -16.4296167415      -0.0000000004     1.000000    0.00000396
  802      -16.4296167419      -0.0000000004     1.000000    0.00000395
  803      -16.4296167423      -0.0000000004     1.000000    0.00000394
  804      -16.4296167426      -0.0000000003     1.000000    0.00000393
  805      -16.4296167429      -0.0000000003     1.000000    0.00000392
  806      -16.4296167433      -0.0000000003     1.000000    0.00000391
  807      -16.4296167436      -0.0000000003     1.000000    0.00000390
  808      -16.4296167440      -0.0000000003     1.000000    0.00000389
  809      -16.4296167443      -0.0000000003     1.000000    0.00000388
  810      -16.4296167447      -0.0000000003     1.000000    0.00000387
  811      -16.4296167450      -0.0000000003     1.000000    0.00000386
  812      -16.4296167453      -0.0000000003     1.000000    0.00000385
  813      -16.4296167457      -0.0000000003     1.000000    0.00000384
  814      -16.4296167460      -0.0000000003     1.000000    0.00000384
  815      -16.4296167463      -0.0000000003     1.000000    0.00000383
  816      -16.4296167467      -0.0000000003     1.000000    0.00000382
  817      -16.4296167470      -0.0000000003     1.000000    0.00000381
  818      -16.4296167473      -0.0000000003     1.000000    0.00000380
  819      -16.4296167476      -0.0000000003     1.000000    0.00000379
  820      -16.4296167479      -0.0000000003     1.000000    0.00000378
  821      -16.4296167483      -0.0000000003     1.000000    0.00000377
  822      -16.4296167486      -0.0000000003     1.000000    0.00000376
  823      -16.4296167489      -0.0000000003     1.000000    0.00000375
  824      -16.4296167492      -0.0000000003     1.000000    0.00000374
  825      -16.4296167495      -0.0000000003     1.000000    0.00000374
  826      -16.4296167499      -0.0000000003     1.000000    0.00000373
  827      -16.4296167502      -0.0000000003     1.000000    0.00000372
  828      -16.4296167505      -0.0000000003     1.000000    0.00000371
  829      -16.4296167508      -0.0000000003     1.000000    0.00000370
  830      -16.4296167511      -0.0000000003     1.000000    0.00000369
  831      -16.4296167514      -0.0000000003     1.000000    0.00000368
  832      -16.4296167517      -0.0000000003     1.000000    0.00000367
  833      -16.4296167520      -0.0000000003     1.000000    0.00000367
  834      -16.4296167523      -0.0000000003     1.000000    0.00000366
  835      -16.4296167526      -0.0000000003     1.000000    0.00000365
  836      -16.4296167529      -0.0000000003     1.000000    0.00000364
  837      -16.4296167532      -0.0000000003     1.000000    0.00000363
  838      -16.4296167535      -0.0000000003     1.000000    0.00000362
  839      -16.4296167538      -0.0000000003     1.000000    0.00000361
  840      -16.4296167541      -0.0000000003     1.000000    0.00000361
  841      -16.4296167544      -0.0000000003     1.000000    0.00000360
  842      -16.4296167547      -0.0000000003     1.000000    0.00000359
  843      -16.4296167550      -0.0000000003     1.000000    0.00000358
  844      -16.4296167552      -0.0000000003     1.000000    0.00000357
  845      -16.4296167555      -0.0000000003     1.000000    0.00000356
  846      -16.4296167558      -0.0000000003     1.000000    0.00000356
  847      -16.4296167561      -0.0000000003     1.000000    0.00000355
  848      -16.4296167564      -0.0000000003     1.000000    0.00000354
  849      -16.4296167567      -0.0000000003     1.000000    0.00000353
  850      -16.4296167569      -0.0000000003     1.000000    0.00000352
  851      -16.4296167572      -0.0000000003     1.000000    0.00000352
  852      -16.4296167575      -0.0000000003     1.000000    0.00000351
  853      -16.4296167578      -0.0000000003     1.000000    0.00000350
  854      -16.4296167580      -0.0000000003     1.000000    0.00000349
  855      -16.4296167583      -0.0000000003     1.000000    0.00000348
  856      -16.4296167586      -0.0000000003     1.000000    0.00000348
  857      -16.4296167589      -0.0000000003     1.000000    0.00000347
  858      -16.4296167591      -0.0000000003     1.000000    0.00000346
  859      -16.4296167594      -0.0000000003     1.000000    0.00000345
  860      -16.4296167597      -0.0000000003     1.000000    0.00000344
  861      -16.4296167599      -0.0000000003     1.000000    0.00000344
  862      -16.4296167602      -0.0000000003     1.000000    0.00000343
  863      -16.4296167605      -0.0000000003     1.000000    0.00000342
  864      -16.4296167607      -0.0000000003     1.000000    0.00000341
  865      -16.4296167610      -0.0000000003     1.000000    0.00000340
  866      -16.4296167612      -0.0000000003     1.000000    0.00000340
  867      -16.4296167615      -0.0000000003     1.000000    0.00000339
  868      -16.4296167618      -0.0000000003     1.000000    0.00000338
  869      -16.4296167620      -0.0000000003     1.000000    0.00000337
  870      -16.4296167623      -0.0000000003     1.000000    0.00000337
  871      -16.4296167625      -0.0000000003     1.000000    0.00000336
  872      -16.4296167628      -0.0000000003     1.000000    0.00000335
  873      -16.4296167630      -0.0000000003     1.000000    0.00000334
  874      -16.4296167633      -0.0000000003     1.000000    0.00000334
  875      -16.4296167635      -0.0000000002     1.000000    0.00000333
  876      -16.4296167638      -0.0000000002     1.000000    0.00000332
  877      -16.4296167640      -0.0000000002     1.000000    0.00000331
  878      -16.4296167643      -0.0000000002     1.000000    0.00000331
  879      -16.4296167645      -0.0000000002     1.000000    0.00000330
  880      -16.4296167648      -0.0000000002     1.000000    0.00000329
  881      -16.4296167650      -0.0000000002     1.000000    0.00000328
  882      -16.4296167652      -0.0000000002     1.000000    0.00000328
  883      -16.4296167655      -0.0000000002     1.000000    0.00000327
  884      -16.4296167657      -0.0000000002     1.000000    0.00000326
  885      -16.4296167660      -0.0000000002     1.000000    0.00000326
  886      -16.4296167662      -0.0000000002     1.000000    0.00000325
  887      -16.4296167664      -0.0000000002     1.000000    0.00000324
  888      -16.4296167667      -0.0000000002     1.000000    0.00000323
  889      -16.4296167669      -0.0000000002     1.000000    0.00000323
  890      -16.4296167671      -0.0000000002     1.000000    0.00000322
  891      -16.4296167674      -0.0000000002     1.000000    0.00000321
  892      -16.4296167676      -0.0000000002     1.000000    0.00000321
  893      -16.4296167678      -0.0000000002     1.000000    0.00000320
  894      -16.4296167681      -0.0000000002     1.000000    0.00000319
  895      -16.4296167683      -0.0000000002     1.000000    0.00000318
  896      -16.4296167685      -0.0000000002     1.000000    0.00000318
  897      -16.4296167687      -0.0000000002     1.000000    0.00000317
  898      -16.4296167690      -0.0000000002     1.000000    0.00000316
  899      -16.4296167692      -0.0000000002     1.000000    0.00000316
  900      -16.4296167694      -0.0000000002     1.000000    0.00000315
  901      -16.4296167696      -0.0000000002     1.000000    0.00000314
  902      -16.4296167698      -0.0000000002     1.000000    0.00000314
  903      -16.4296167701      -0.0000000002     1.000000    0.00000313
  904      -16.4296167703      -0.0000000002     1.000000    0.00000312
  905      -16.4296167705      -0.0000000002     1.000000    0.00000312
  906      -16.4296167707      -0.0000000002     1.000000    0.00000311
  907      -16.4296167709      -0.0000000002     1.000000    0.00000310
  908      -16.4296167711      -0.0000000002     1.000000    0.00000309
  909      -16.4296167714      -0.0000000002     1.000000    0.00000309
  910      -16.4296167716      -0.0000000002     1.000000    0.00000308
  911      -16.4296167718      -0.0000000002     1.000000    0.00000307
  912      -16.4296167720      -0.0000000002     1.000000    0.00000307
  913      -16.4296167722      -0.0000000002     1.000000    0.00000306
  914      -16.4296167724      -0.0000000002     1.000000    0.00000305
  915      -16.4296167726      -0.0000000002     1.000000    0.00000305
  916      -16.4296167728      -0.0000000002     1.000000    0.00000304
  917      -16.4296167730      -0.0000000002     1.000000    0.00000304
  918      -16.4296167732      -0.0000000002     1.000000    0.00000303
  919      -16.4296167735      -0.0000000002     1.000000    0.00000302
  920      -16.4296167737      -0.0000000002     1.000000    0.00000302
  921      -16.4296167739      -0.0000000002     1.000000    0.00000301
  922      -16.4296167741      -0.0000000002     1.000000    0.00000300
  923      -16.4296167743      -0.0000000002     1.000000    0.00000300
  924      -16.4296167745      -0.0000000002     1.000000    0.00000299
  925      -16.4296167747      -0.0000000002     1.000000    0.00000298
  926      -16.4296167749      -0.0000000002     1.000000    0.00000298
  927      -16.4296167751      -0.0000000002     1.000000    0.00000297
  928      -16.4296167753      -0.0000000002     1.000000    0.00000296
  929      -16.4296167755      -0.0000000002     1.000000    0.00000296
  930      -16.4296167756      -0.0000000002     1.000000    0.00000295
  931      -16.4296167758      -0.0000000002     1.000000    0.00000295
  932      -16.4296167760      -0.0000000002     1.000000    0.00000294
  933      -16.4296167762      -0.0000000002     1.000000    0.00000293
  934      -16.4296167764      -0.0000000002     1.000000    0.00000293
  935      -16.4296167766      -0.0000000002     1.000000    0.00000292
  936      -16.4296167768      -0.0000000002     1.000000    0.00000291
  937      -16.4296167770      -0.0000000002     1.000000    0.00000291
  938      -16.4296167772      -0.0000000002     1.000000    0.00000290
  939      -16.4296167774      -0.0000000002     1.000000    0.00000290
  940      -16.4296167776      -0.0000000002     1.000000    0.00000289
  941      -16.4296167777      -0.0000000002     1.000000    0.00000288
  942      -16.4296167779      -0.0000000002     1.000000    0.00000288
  943      -16.4296167781      -0.0000000002     1.000000    0.00000287
  944      -16.4296167783      -0.0000000002     1.000000    0.00000287
  945      -16.4296167785      -0.0000000002     1.000000    0.00000286
  946      -16.4296167787      -0.0000000002     1.000000    0.00000285
  947      -16.4296167788      -0.0000000002     1.000000    0.00000285
  948      -16.4296167790      -0.0000000002     1.000000    0.00000284
  949      -16.4296167792      -0.0000000002     1.000000    0.00000284
  950      -16.4296167794      -0.0000000002     1.000000    0.00000283
  951      -16.4296167796      -0.0000000002     1.000000    0.00000282
  952      -16.4296167797      -0.0000000002     1.000000    0.00000282
  953      -16.4296167799      -0.0000000002     1.000000    0.00000281
  954      -16.4296167801      -0.0000000002     1.000000    0.00000281
  955      -16.4296167803      -0.0000000002     1.000000    0.00000280
  956      -16.4296167804      -0.0000000002     1.000000    0.00000280
  957      -16.4296167806      -0.0000000002     1.000000    0.00000279
  958      -16.4296167808      -0.0000000002     1.000000    0.00000278
  959      -16.4296167810      -0.0000000002     1.000000    0.00000278
  960      -16.4296167811      -0.0000000002     1.000000    0.00000277
  961      -16.4296167813      -0.0000000002     1.000000    0.00000277
  962      -16.4296167815      -0.0000000002     1.000000    0.00000276
  963      -16.4296167817      -0.0000000002     1.000000    0.00000275
  964      -16.4296167818      -0.0000000002     1.000000    0.00000275
  965      -16.4296167820      -0.0000000002     1.000000    0.00000274
  966      -16.4296167822      -0.0000000002     1.000000    0.00000274
  967      -16.4296167823      -0.0000000002     1.000000    0.00000273
  968      -16.4296167825      -0.0000000002     1.000000    0.00000273
  969      -16.4296167827      -0.0000000002     1.000000    0.00000272
  970      -16.4296167828      -0.0000000002     1.000000    0.00000272
  971      -16.4296167830      -0.0000000002     1.000000    0.00000271
  972      -16.4296167832      -0.0000000002     1.000000    0.00000270
  973      -16.4296167833      -0.0000000002     1.000000    0.00000270
  974      -16.4296167835      -0.0000000002     1.000000    0.00000269
  975      -16.4296167836      -0.0000000002     1.000000    0.00000269
  976      -16.4296167838      -0.0000000002     1.000000    0.00000268
  977      -16.4296167840      -0.0000000002     1.000000    0.00000268
  978      -16.4296167841      -0.0000000002     1.000000    0.00000267
  979      -16.4296167843      -0.0000000002     1.000000    0.00000267
  980      -16.4296167844      -0.0000000002     1.000000    0.00000266
  981      -16.4296167846      -0.0000000002     1.000000    0.00000266
  982      -16.4296167848      -0.0000000002     1.000000    0.00000265
  983      -16.4296167849      -0.0000000002     1.000000    0.00000264
  984      -16.4296167851      -0.0000000002     1.000000    0.00000264
  985      -16.4296167852      -0.0000000002     1.000000    0.00000263
  986      -16.4296167854      -0.0000000002     1.000000    0.00000263
  987      -16.4296167855      -0.0000000002     1.000000    0.00000262
  988      -16.4296167857      -0.0000000002     1.000000    0.00000262
  989      -16.4296167858      -0.0000000002     1.000000    0.00000261
  990      -16.4296167860      -0.0000000002     1.000000    0.00000261
  991      -16.4296167861      -0.0000000002     1.000000    0.00000260
  992      -16.4296167863      -0.0000000002     1.000000    0.00000260
  993      -16.4296167864      -0.0000000002     1.000000    0.00000259
  994      -16.4296167866      -0.0000000001     1.000000    0.00000259
  995      -16.4296167867      -0.0000000001     1.000000    0.00000258
  996      -16.4296167869      -0.0000000001     1.000000    0.00000258
  997      -16.4296167870      -0.0000000001     1.000000    0.00000257
  998      -16.4296167872      -0.0000000001     1.000000    0.00000257
  999      -16.4296167873      -0.0000000001     1.000000    0.00000256
 1000      -16.4296167875      -0.0000000001     1.000000    0.00000256

Total Energy:                      -16.4296167875 H         -447.0726 eV
Extrapolated to 0:                 -16.3820321517 H         -445.7778 eV

----------------------------------------------------------------------------------
 Solving CP-REKS equation for  1 state vector...
----------------------------------------------------------------------------------
  CG solver: Constructing Y initial guess
  CG solver: Iteration    1    eps =    0.042373584651
  CG solver: Iteration    2    eps =    0.009743416829
  CG solver: Iteration    3    eps =    0.001958865552
  CG solver: Iteration    4    eps =    0.000363528850
  CG solver: Iteration    5    eps =    0.000069940270
  CG solver: Iteration    6    eps =    0.000011908695
  CG solver: Iteration    7    eps =    0.000008303495
  CG solver: Iteration    8    eps =    0.000001838589
  CG solver: Iteration    9    eps =    0.000001259844
  CG solver: Iteration   10    eps =    0.000002631371
  CG solver: Iteration   11    eps =    0.000007591161
  CG solver: Iteration   12    eps =    0.000018496657
  CG solver: Iteration   13    eps =    0.000005542294
  CG solver: Iteration   14    eps =    0.000002153441
  CG solver: Iteration   15    eps =    0.000000359315
  CG solver: Iteration   16    eps =    0.000000013427
  CG solver: Iteration   17    eps =    0.000000001162
  Convergence reached in CG solver after   17 iterations
  CG solver: Calculating converged R, Z, Q2 matrix
----------------------------------------------------------------------------------

----------------------------------------------------------------------------------
 Solving CP-REKS equation for SI between  1 and  2 state vectors...
----------------------------------------------------------------------------------
  CG solver: Constructing Y initial guess
  CG solver: Iteration    1    eps =    0.043362124317
  CG solver: Iteration    2    eps =    0.002884369613
  CG solver: Iteration    3    eps =    0.002921996394
  CG solver: Iteration    4    eps =    0.035819648973
  CG solver: Iteration    5    eps =    0.019394077955
  CG solver: Iteration    6    eps =    0.055399536399
  CG solver: Iteration    7    eps =    0.090858755160
  CG solver: Iteration    8    eps =    0.024734825019
  CG solver: Iteration    9    eps =    0.007080096893
  CG solver: Iteration   10    eps =    0.000828546825
  CG solver: Iteration   11    eps =    0.000049153919
  CG solver: Iteration   12    eps =    0.000004295386
  CG solver: Iteration   13    eps =    0.000000855795
  CG solver: Iteration   14    eps =    0.000000146815
  CG solver: Iteration   15    eps =    0.000000009422
  Convergence reached in CG solver after   15 iterations
  CG solver: Calculating converged R, Z, Q2 matrix
----------------------------------------------------------------------------------

--------------------------------------------------
 Gradient Information
--------------------------------------------------
           1 st state (SSR)
     0.00000000     0.00000000     0.00000000
     0.00000000     0.00000000     0.00000000
     0.00000000     0.00000000     0.00000000
     0.00000000     0.00000000     0.00000000
     0.00000000     0.00000000     0.00000000
     0.00000000     0.00000000     0.00000000
     0.00000000     0.00000000     0.00000000
     0.00000000     0.00000000     0.00000000
     0.00000000     0.00000000     0.00000000
     0.00000000     0.00000000     0.00000000
     0.00000000     0.00000000     0.00000000
     0.00000000     0.00000000     0.00000000
     0.00000000     0.00000000     0.00000000
     0.00000000     0.00000000     0.00000000

           2 st state (SSR)
     0.00000000     0.00000000     0.00000000
     0.00000000     0.00000000     0.00000000
     0.00000000     0.00000000     0.00000000
     0.00000000     0.00000000     0.00000000
     0.00000000     0.00000000     0.00000000
     0.00000000     0.00000000     0.00000000
     0.00000000     0.00000000     0.00000000
     0.00000000     0.00000000     0.00000000
     0.00000000     0.00000000     0.00000000
     0.00000000     0.00000000     0.00000000
     0.00000000     0.00000000     0.00000000
     0.00000000     0.00000000     0.00000000
     0.00000000     0.00000000     0.00000000
     0.00000000     0.00000000     0.00000000
--------------------------------------------------
 Coupling Information
--------------------------------------------------
 between  1 and  2 states
--------------------------------------------------
 g vector - difference gradient
    -0.01587124    -0.09968820    -0.10890191
     0.31504164    -0.39720270     0.20769653
    -0.06329055     0.10884488    -0.03490606
    -0.02812223     0.05894871     0.04399544
    -0.07549408     0.14443147    -0.05407266
    -0.00886586     0.28856157    -0.04884198
    -0.23327968     0.07041860    -0.18589774
    -0.06233521    -0.07949091    -0.14034087
     0.10782060    -0.06088591     0.05681053
     0.20267923     0.11104068     0.24521620
     0.06056097    -0.10230876     0.02437422
    -0.22994958    -0.04680902    -0.04701179
     0.12322902    -0.06596315    -0.01788928
    -0.09212304     0.07010273     0.05976937

 h vector - derivative coupling
     0.36685381    -0.23128886    -1.17308993
     0.18139205    -0.59736850     1.12973160
     0.08186098    -0.10942561    -0.02004952
    -0.25935046     0.24267676    -0.00678494
    -0.03561230     0.13653131    -0.01196610
    -1.08957185     0.56275921    -0.18720819
     0.29573717    -0.15751828     0.01290744
     0.13267638     0.00186431     0.04581745
     0.17935188    -0.17555557    -0.17632006
    -0.04930897     0.21447033     0.30376422
     0.06181948    -0.03252654    -0.08825863
     0.14412177     0.12829294     0.12189349
     0.05409801    -0.01990470     0.00481510
    -0.06406795     0.03699320     0.04474806

 G vector - GDV
     0.00000000     0.00000000     0.00000000
     0.00000000     0.00000000     0.00000000
     0.00000000     0.00000000     0.00000000
     0.00000000     0.00000000     0.00000000
     0.00000000     0.00000000     0.00000000
     0.00000000     0.00000000     0.00000000
     0.00000000     0.00000000     0.00000000
     0.00000000     0.00000000     0.00000000
     0.00000000     0.00000000     0.00000000
     0.00000000     0.00000000     0.00000000
     0.00000000     0.00000000     0.00000000
     0.00000000     0.00000000     0.00000000
     0.00000000     0.00000000     0.00000000
     0.00000000     0.00000000     0.00000000

 H vector - DCV - non-adiabatic coupling
     0.00000000     0.00000000     0.00000000
     0.00000000     0.00000000     0.00000000
     0.00000000     0.00000000     0.00000000
     0.00000000     0.00000000     0.00000000
     0.00000000     0.00000000     0.00000000
     0.00000000     0.00000000     0.00000000
     0.00000000     0.00000000     0.00000000
     0.00000000     0.00000000     0.00000000
     0.00000000     0.00000000     0.00000000
     0.00000000     0.00000000     0.00000000
     0.00000000     0.00000000     0.00000000
     0.00000000     0.00000000     0.00000000
     0.00000000     0.00000000     0.00000000
     0.00000000     0.00000000     0.00000000
--------------------------------------------------

WARNING!
-> SCC is NOT converged, maximal SCC iterations exceeded

--------------------------------------------------------------------------------
DFTB+ running times                          cpu [s]             wall clock [s]
--------------------------------------------------------------------------------
SCC                                    +     1.45  ( 77.5%)      1.46  ( 77.4%)
      Sparse to dense                        0.08  (  4.1%)      0.08  (  4.0%)
      Dense to sparse                        0.27  ( 14.3%)      0.29  ( 15.3%)
      Range separated Hamiltonian            0.13  (  6.8%)      0.13  (  7.0%)
  Density matrix creation                    0.16  (  8.5%)      0.16  (  8.7%)
  Force calculation                          0.42  ( 22.4%)      0.42  ( 22.3%)
--------------------------------------------------------------------------------
Missing                                +     0.42  ( 22.5%)      0.43  ( 22.6%)
Total                                  =     1.87  (100.0%)      1.89  (100.0%)
--------------------------------------------------------------------------------
