     6
  Step:     0            Position(A)                                  Velocity(au)
C        -0.04081475     0.01589750     0.00750328     0.00003202    -0.00011102     0.00029598
N        -0.03902744    -0.04543792     1.30233273    -0.00025031     0.00000019    -0.00033568
H         0.92300305    -0.02175077    -0.54204883    -0.00052249     0.00066590     0.00007456
H         0.83458264    -0.16666214     1.94770488     0.00082478    -0.00006329     0.00061535
H        -0.93706926    -0.08838591     1.82566205     0.00180601     0.00047503    -0.00046085
H        -1.00476417     0.04900621    -0.52636010     0.00098864     0.00024264     0.00090881
     6
  Step:     1            Position(A)                                  Velocity(au)
C        -0.04062967     0.01529386     0.00902419     0.00003627    -0.00010965     0.00025910
N        -0.04037019    -0.04544324     1.30063239    -0.00023866    -0.00000221    -0.00028499
H         0.92015801    -0.01810400    -0.54180849    -0.00051447     0.00066750     0.00001199
H         0.83859869    -0.16695689     1.95068399     0.00063624    -0.00004350     0.00046722
H        -0.92712466    -0.08580340     1.82317356     0.00180963     0.00046838    -0.00043728
H        -0.99942531     0.05033863    -0.52158539     0.00095304     0.00024490     0.00083093
     6
  Step:     2            Position(A)                                  Velocity(au)
C        -0.04041789     0.01469779     0.01033815     0.00004173    -0.00010819     0.00022035
N        -0.04163868    -0.04546206     1.29921465    -0.00022308    -0.00000471    -0.00023255
H         0.91737426    -0.01444767    -0.54191763    -0.00049982     0.00066894    -0.00005305
H         0.84154374    -0.16713807     1.95281678     0.00043513    -0.00002207     0.00030744
H        -0.91727000    -0.08326132     1.82087774     0.00177090     0.00045999    -0.00038943
H        -0.99433693     0.05168569    -0.51726890     0.00089664     0.00024785     0.00074092
     6
  Step:     3            Position(A)                                  Velocity(au)
C        -0.04017297     0.01410971     0.01143597     0.00004833    -0.00010671     0.00018025
N        -0.04281180    -0.04549484     1.29808713    -0.00020387    -0.00000729    -0.00017921
H         0.91468749    -0.01078239    -0.54238908    -0.00047902     0.00067058    -0.00012024
H         0.84336123    -0.16719843     1.95404892     0.00022616     0.00000037     0.00013966
H        -0.90774208    -0.08076875     1.81891123     0.00168940     0.00045025    -0.00031655
H        -0.98961152     0.05305132    -0.51347594     0.00082066     0.00025162     0.00063975
     6
  Step:     4            Position(A)                                  Velocity(au)
C        -0.03988885     0.01352964     0.01231127     0.00005598    -0.00010529     0.00013925
N        -0.04387037    -0.04554182     1.29725286    -0.00018139    -0.00000988    -0.00012571
H         0.91213048    -0.00710690    -0.54323383    -0.00045263     0.00067274    -0.00018929
H         0.84401947    -0.16713406     1.95434561     0.00001348     0.00002324    -0.00003283
H        -0.89877635    -0.07833247     1.81741250     0.00156609     0.00043960    -0.00021875
H        -0.98535331     0.05444015    -0.51026570     0.00072680     0.00025634     0.00052854
     6
  Step:     5            Position(A)                                  Velocity(au)
C        -0.03956017     0.01295720     0.01296029     0.00006455    -0.00010398     0.00009778
N        -0.04479745    -0.04560302     1.29671101    -0.00015610    -0.00001247    -0.00007266
H         0.90973270    -0.00341818    -0.54446112    -0.00042126     0.00067571    -0.00025993
H         0.84350880    -0.16694407     1.95368958    -0.00019919     0.00004603    -0.00020706
H        -0.89059870    -0.07595663     1.81651663     0.00140335     0.00042851    -0.00009710
H        -0.98165555     0.05585736    -0.50769021     0.00061721     0.00026207     0.00040864
     6
  Step:     6            Position(A)                                  Velocity(au)
C        -0.03918238     0.01239168     0.01338145     0.00007386    -0.00010283     0.00005619
N        -0.04557878    -0.04567833     1.29645765    -0.00012849    -0.00001503    -0.00002052
H         0.90751997     0.00028837    -0.54607859    -0.00038555     0.00067972    -0.00033188
H         0.84183941    -0.16663032     1.95207945    -0.00040845     0.00006826    -0.00038030
H        -0.88341739    -0.07364265     1.81634976     0.00120503     0.00041746     0.00004628
H        -0.97859829     0.05730840    -0.50579336     0.00049441     0.00026883     0.00028152
     6
  Step:     7            Position(A)                                  Velocity(au)
C        -0.03875202     0.01183212     0.01357504     0.00008371    -0.00010188     0.00001476
N        -0.04620323    -0.04576751     1.29648653    -0.00009916    -0.00001755     0.00003036
H         0.90551435     0.00401863    -0.54809225    -0.00034617     0.00068495    -0.00040486
H         0.83903994    -0.16619726     1.94952876    -0.00061098     0.00008945    -0.00054986
H        -0.87741453    -0.07138921     1.81702301     0.00097647     0.00040691     0.00020817
H        -0.97624623     0.05879866    -0.50461008     0.00036129     0.00027657     0.00014884
     6
  Step:     8            Position(A)                                  Velocity(au)
C        -0.03826687     0.01127740     0.01354288     0.00009385    -0.00010115    -0.00002625
N        -0.04666331    -0.04587022     1.29678967    -0.00006883    -0.00001998     0.00007971
H         0.90373402     0.00777940    -0.55050637    -0.00030380     0.00069147    -0.00047849
H         0.83515733    -0.16565200     1.94606582    -0.00080334     0.00010911    -0.00071298
H        -0.87273804    -0.06919242     1.81862642     0.00072445     0.00039728     0.00038422
H        -0.97464697     0.06033317    -0.50416556     0.00022104     0.00028517     0.00001240
     6
  Step:     9            Position(A)                                  Velocity(au)
C        -0.03772610     0.01072632     0.01328804     0.00010399    -0.00010063    -0.00006663
N        -0.04695573    -0.04598597     1.29735796    -0.00003830    -0.00002232     0.00012734
H         0.90219317     0.01157786    -0.55332311    -0.00025917     0.00069928    -0.00055231
H         0.83025776    -0.16500445     1.94173443    -0.00098175     0.00012668    -0.00086661
H        -0.86949474    -0.06704612     1.82122335     0.00045692     0.00038891     0.00056912
H        -0.97382976     0.06191616    -0.50447455     0.00007709     0.00029443    -0.00012584
     6
  Step:    10            Position(A)                                  Velocity(au)
C        -0.03713043     0.01017768     0.01281476     0.00011385    -0.00010031    -0.00010614
N        -0.04708183    -0.04611411     1.29818130    -0.00000845    -0.00002451     0.00017306
H         0.90090186     0.01542110    -0.55654204    -0.00021302     0.00070824    -0.00062573
H         0.82442875    -0.16426763     1.93659554    -0.00114193     0.00014154    -0.00100731
H        -0.86774486    -0.06494244     1.82484575     0.00018272     0.00038203     0.00075672
H        -0.97380449     0.06355069    -0.50554072    -0.00006694     0.00030408    -0.00026375
     6
  Step:    11            Position(A)                                  Velocity(au)
C        -0.03648222     0.00963041     0.01212844     0.00012312    -0.00010015    -0.00014454
N        -0.04704806    -0.04625374     1.29924867     0.00001974    -0.00002651     0.00021663
H         0.89986584     0.01931551    -0.56015933    -0.00016620     0.00071813    -0.00069797
H         0.81778198    -0.16345808     1.93072935    -0.00127899     0.00015299    -0.00113120
H        -0.86749844    -0.06287236     1.82949064    -0.00008871     0.00037677     0.00094034
H        -0.97456111     0.06523826    -0.50735609    -0.00020734     0.00031377    -0.00039909
     6
  Step:    12            Position(A)                                  Velocity(au)
C        -0.03578548     0.00908366     0.01123573     0.00013146    -0.00010009    -0.00018155
N        -0.04686622    -0.04640367     1.30054782     0.00004526    -0.00002824     0.00025776
H         0.89908626     0.02326620    -0.56416690    -0.00011958     0.00072863    -0.00076810
H         0.81045665    -0.16259635     1.92423795    -0.00138748     0.00016024    -0.00123393
H        -0.86871399    -0.06082645     1.83511825    -0.00034792     0.00037313     0.00111311
H        -0.97606951     0.06697844    -0.50990050    -0.00034036     0.00032311    -0.00052950
     6
  Step:    13            Position(A)                                  Velocity(au)
C        -0.03504587     0.00853684     0.01014480     0.00013860    -0.00010009    -0.00021684
N        -0.04655360    -0.04656228     1.30206487     0.00006710    -0.00002963     0.00029605
H         0.89855930     0.02727646    -0.56855149    -0.00007414     0.00073934    -0.00083501
H         0.80262266    -0.16170738     1.91724768    -0.00146150     0.00016245    -0.00131083
H        -0.87129981    -0.05879561     1.84165226    -0.00058589     0.00037096     0.00126839
H        -0.97827987     0.06876854    -0.51314128    -0.00046241     0.00033166    -0.00065258
     6
  Step:    14            Position(A)                                  Velocity(au)
C        -0.03427057     0.00798969     0.00886557     0.00014425    -0.00010007    -0.00025005
N        -0.04613277    -0.04672754     1.30378370     0.00008434    -0.00003059     0.00033103
H         0.89827590     0.03134732    -0.57329376    -0.00003089     0.00074979    -0.00089748
H         0.79448210    -0.16082070     1.90991024    -0.00149519     0.00015881    -0.00135728
H        -0.87511789    -0.05677174     1.84898207    -0.00079457     0.00037003     0.00140024
H        -0.98112379     0.07060351    -0.51703332    -0.00057018     0.00033895    -0.00076602
     6
  Step:    15            Position(A)                                  Velocity(au)
C        -0.03346809     0.00744231     0.00740991     0.00014822    -0.00009998    -0.00028078
N        -0.04563117    -0.04689690     1.30568556     0.00009615    -0.00003104     0.00036218
H         0.89822143     0.03547729    -0.57836777     0.00000911     0.00075952    -0.00095426
H         0.78626898    -0.15997039     1.90240234    -0.00148314     0.00014854    -0.00136905
H        -0.87999044    -0.05474838     1.85696743    -0.00096741     0.00037000     0.00150378
H        -0.98451620     0.07247582    -0.52151961    -0.00066080     0.00034456    -0.00086767
     6
  Step:    16            Position(A)                                  Velocity(au)
C        -0.03264791     0.00689517     0.00579173     0.00015035    -0.00009975    -0.00030865
N        -0.04508017    -0.04706732     1.30774873     0.00010194    -0.00003088     0.00038896
H         0.89837564     0.03966232    -0.58374074     0.00004484     0.00076811    -0.00100414
H         0.77824520    -0.15919450     1.89492235    -0.00142114     0.00013105    -0.00134285
H        -0.88570878    -0.05272105     1.86544501    -0.00109974     0.00037051     0.00157561
H        -0.98835799     0.07437569    -0.52653233    -0.00073203     0.00034812    -0.00095573
     6
  Step:    17            Position(A)                                  Velocity(au)
C        -0.03182018     0.00634900     0.00402699     0.00015059    -0.00009935    -0.00033334
N        -0.04451393    -0.04723536     1.30994861     0.00010136    -0.00003007     0.00041090
H         0.89871286     0.04389594    -0.58937339     0.00007534     0.00077518    -0.00104605
H         0.77069297    -0.15853401     1.88768436    -0.00130685     0.00010599    -0.00127690
H        -0.89204388    -0.05068747     1.87423655    -0.00118896     0.00037118     0.00161394
H        -0.99253945     0.07629131    -0.53199467    -0.00078239     0.00034932    -0.00102882
     6
  Step:    18            Position(A)                                  Velocity(au)
C        -0.03099524     0.00580482     0.00213342     0.00014896    -0.00009875    -0.00035458
N        -0.04396781    -0.04739727     1.31225820     0.00009438    -0.00002855     0.00042768
H         0.89920248     0.04816966    -0.59522080     0.00009980     0.00078048    -0.00107917
H         0.76390297    -0.15803125     1.88090879    -0.00114046     0.00007336    -0.00117138
H        -0.89875721    -0.04864752     1.88315749    -0.00123455     0.00037165     0.00161863
H        -0.99694450     0.07820940    -0.53782329    -0.00081126     0.00034799    -0.00108612
     6
  Step:    19            Position(A)                                  Velocity(au)
C        -0.03018313     0.00526377     0.00013011     0.00014556    -0.00009792    -0.00037220
N        -0.04347665    -0.04754918     1.31464894     0.00008131    -0.00002635     0.00043919
H         0.89980973     0.05247355    -0.60123369     0.00011760     0.00078385    -0.00110295
H         0.75815910    -0.15772781     1.87481072    -0.00092510     0.00003354    -0.00102870
H        -0.90561178    -0.04660300     1.89202561    -0.00123793     0.00037164     0.00159107
H        -1.00145531     0.08011574    -0.54393128    -0.00081884     0.00034403    -0.00112737
     6
  Step:    20            Position(A)                                  Velocity(au)
C        -0.02939321     0.00472707    -0.00196300     0.00014057    -0.00009689    -0.00038613
N        -0.04307294    -0.04768731     1.31709193     0.00006275    -0.00002350     0.00044551
H         0.90049678     0.05679681    -0.60735999     0.00012831     0.00078526    -0.00111715
H         0.75372121    -0.15766216     1.86958678    -0.00066705    -0.00001265    -0.00085367
H        -0.91238200    -0.04455724     1.90066894    -0.00120212     0.00037093     0.00153389
H        -1.00595668     0.08199582    -0.55023122    -0.00080606     0.00033748    -0.00115286
     6
  Step:    21            Position(A)                                  Velocity(au)
C        -0.02863384     0.00419592    -0.00412574     0.00013420    -0.00009565    -0.00039643
N        -0.04278503    -0.04780816     1.31955926     0.00003961    -0.00002007     0.00044700
H         0.90122388     0.06112846    -0.61354656     0.00013174     0.00078472    -0.00112180
H         0.75080704    -0.15786723     1.86540184    -0.00037558    -0.00006397    -0.00065320
H        -0.91886121    -0.04251470     1.90893169    -0.00113124     0.00036940     0.00145058
H        -1.01033953     0.08383533    -0.55663776    -0.00077448     0.00032847    -0.00116331
     6
  Step:    22            Position(A)                                  Velocity(au)
C        -0.02791211     0.00367145    -0.00633817     0.00012670    -0.00009423    -0.00040319
N        -0.04263573    -0.04790880     1.32202522     0.00001302    -0.00001618     0.00044416
H         0.90195071     0.06545740    -0.61974083     0.00012791     0.00078234    -0.00111719
H         0.74957613    -0.15836818     1.86237770    -0.00006232    -0.00011885    -0.00043591
H        -0.92486696    -0.04048036     1.91667830    -0.00103022     0.00036697     0.00134521
H        -1.01450427     0.08562101    -0.56307015    -0.00072608     0.00031719    -0.00115982
     6
  Step:    23            Position(A)                                  Velocity(au)
C        -0.02723373     0.00315467    -0.00858112     0.00011834    -0.00009266    -0.00040662
N        -0.04264114    -0.04798694     1.32446734    -0.00001576    -0.00001196     0.00043768
H         0.90263733     0.06977350    -0.62589176     0.00011702     0.00077830    -0.00110374
H         0.75011839    -0.15918056     1.86058496     0.00025949    -0.00017546    -0.00021142
H        -0.93024535    -0.03845956     1.92379653    -0.00090437     0.00036364     0.00122208
H        -1.01836283     0.08734035    -0.56945398    -0.00066311     0.00030382    -0.00114369
     6
  Step:    24            Position(A)                                  Velocity(au)
C        -0.02660301     0.00264644    -0.01083646     0.00010934    -0.00009095    -0.00040692
N        -0.04281012    -0.04804112     1.32686707    -0.00004543    -0.00000757     0.00042828
H         0.90324530     0.07406745    -0.63195098     0.00009945     0.00077277    -0.00108200
H         0.75244673    -0.16030918     1.86003881     0.00057594    -0.00023183     0.00001033
H        -0.93487159    -0.03645759     1.93019768    -0.00075898     0.00035942     0.00108543
H        -1.02183997     0.08898208    -0.57572231    -0.00058795     0.00028861    -0.00111635
     6
  Step:    25            Position(A)                                  Velocity(au)
C        -0.02602294     0.00214748    -0.01308727     0.00009994    -0.00008915    -0.00040434
N        -0.04314420    -0.04807073     1.32921000    -0.00007470    -0.00000315     0.00041672
H         0.90373866     0.07833085    -0.63787346     0.00007573     0.00076589    -0.00105264
H         0.75649619    -0.16174781     1.86069931     0.00087360    -0.00028605     0.00021991
H        -0.93865008    -0.03447944     1.93581625    -0.00059924     0.00035440     0.00093933
H        -1.02487354     0.09053627    -0.58181608    -0.00050295     0.00027178    -0.00107925
     6
  Step:    26            Position(A)                                  Velocity(au)
C        -0.02549528     0.00165839    -0.01531799     0.00009035    -0.00008725    -0.00039912
N        -0.04363801    -0.04807601     1.33148576    -0.00010241     0.00000115     0.00040367
H         0.90408468     0.08255620    -0.64361795     0.00004651     0.00075783    -0.00101637
H         0.76212937    -0.16347967     1.86247623     0.00114051    -0.00033635     0.00040911
H        -0.94151335    -0.03252958     1.94060881    -0.00043006     0.00034867     0.00078759
H        -1.02741447     0.09199432    -0.58768428    -0.00041045     0.00025357    -0.00103386
     6
  Step:    27            Position(A)                                  Velocity(au)
C        -0.02502070     0.00117963    -0.01751443     0.00008075    -0.00008530    -0.00039152
N        -0.04428014    -0.04805795     1.33368759    -0.00012759     0.00000521     0.00038973
H         0.90425452     0.08673695    -0.64914740     0.00001252     0.00074878    -0.00097400
H         0.76914706    -0.16547873     1.86523726     0.00136701    -0.00038126     0.00057142
H        -0.94342047    -0.03061186     1.94455247    -0.00025603     0.00034237     0.00063374
H        -1.02942637     0.09334897    -0.59328393    -0.00031265     0.00023423    -0.00098159
     6
  Step:    28            Position(A)                                  Velocity(au)
C        -0.02459893     0.00071152    -0.01966379     0.00007129    -0.00008332    -0.00038179
N        -0.04505425    -0.04801819     1.33581170    -0.00014949     0.00000892     0.00037537
H         0.90422369     0.09086757    -0.65442925    -0.00002540     0.00073893    -0.00092636
H         0.77730309    -0.16771165     1.86881889     0.00154635    -0.00041970     0.00070240
H        -0.94435527    -0.02872935     1.94764327    -0.00008139     0.00033564     0.00048100
H        -1.03088485     0.09459426    -0.59857985    -0.00021162     0.00021398    -0.00092386
     6
  Step:    29            Position(A)                                  Velocity(au)
C        -0.02422889     0.00025424    -0.02175467     0.00006211    -0.00008133    -0.00037021
N        -0.04594043    -0.04795884     1.33785654    -0.00016761     0.00001223     0.00036094
H         0.90397241     0.09494367    -0.65943575    -0.00006642     0.00072853    -0.00087436
H         0.78632107    -0.17014004     1.87303820     0.00167478    -0.00045103     0.00079971
H        -0.94432443    -0.02688414     1.94989454     0.00008997     0.00032870     0.00033230
H        -1.03177668     0.09572551    -0.60354449    -0.00010924     0.00019305    -0.00086201
     6
  Step:    30            Position(A)                                  Velocity(au)
C        -0.02390885    -0.00019216    -0.02377711     0.00005330    -0.00007937    -0.00035703
N        -0.04691651    -0.04788234     1.33982210    -0.00018165     0.00001508     0.00034666
H         0.90348573     0.09896226    -0.66414423    -0.00010967     0.00071787    -0.00081894
H         0.79591148    -0.17272296     1.87770445     0.00175157    -0.00047502     0.00086303
H        -0.94335559    -0.02507721     1.95133539     0.00025456     0.00032176     0.00019026
H        -1.03209863     0.09673924    -0.60815756    -0.00000717     0.00017164    -0.00079732
     6
  Step:    31            Position(A)                                  Velocity(au)
C        -0.02363656    -0.00062785    -0.02572262     0.00004494    -0.00007747    -0.00034253
N        -0.04795928    -0.04779128     1.34170929    -0.00019156     0.00001746     0.00033266
H         0.90275354     0.10292193    -0.66853724    -0.00015434     0.00070727    -0.00076102
H         0.80578764    -0.17541927     1.88262976     0.00177850    -0.00049186     0.00089369
H        -0.94149535    -0.02330822     1.95200908     0.00040923     0.00031507     0.00005722
H        -1.03185631     0.09763311    -0.61240571     0.00009319     0.00014995    -0.00073100
     6
  Step:    32            Position(A)                                  Velocity(au)
C        -0.02340938    -0.00105315    -0.02758410     0.00003709    -0.00007566    -0.00032695
N        -0.04904560    -0.04768826     1.34351937    -0.00019742     0.00001939     0.00031894
H         0.90177038     0.10682314    -0.67260253    -0.00019964     0.00069708    -0.00070151
H         0.81567843    -0.17818972     1.88763729     0.00175928    -0.00050206     0.00089425
H        -0.93880722    -0.02157543     1.95197140     0.00055123     0.00030890    -0.00006479
H        -1.03106292     0.09840583    -0.61628213     0.00019063     0.00012813    -0.00066413
     6
  Step:    33            Position(A)                                  Velocity(au)
C        -0.02322443    -0.00146859    -0.02935582     0.00002977    -0.00007398    -0.00031050
N        -0.05015309    -0.04757578     1.34525354    -0.00019941     0.00002089     0.00030547
H         0.90053503     0.11066826    -0.67633284    -0.00024488     0.00068765    -0.00064123
H         0.82533773    -0.18099848     1.89256721     0.00169889    -0.00050634     0.00086809
H        -0.93536973    -0.01987553     1.95128909     0.00067812     0.00030354    -0.00017402
H        -1.02973790     0.09905694    -0.61978590     0.00028422     0.00010630    -0.00059768
     6
  Step:    34            Position(A)                                  Velocity(au)
C        -0.02307867    -0.00187489    -0.03103324     0.00002301    -0.00007246    -0.00029338
N        -0.05126067    -0.04745617     1.34691255    -0.00019779     0.00002200     0.00029212
H         0.89905017     0.11446166    -0.67972541    -0.00028943     0.00067931    -0.00058088
H         0.83455004    -0.18381421     1.89728017     0.00160292    -0.00050553     0.00081891
H        -0.93127450    -0.01820364     1.95003831     0.00078775     0.00029926    -0.00026897
H        -1.02790571     0.09958667    -0.62292133     0.00037321     0.00008456    -0.00053248
     6
  Step:    35            Position(A)                                  Velocity(au)
C        -0.02296903    -0.00227294    -0.03261275     0.00001678    -0.00007112    -0.00027571
N        -0.05234880    -0.04733151     1.34849645    -0.00019281     0.00002276     0.00027874
H         0.89732193     0.11820960    -0.68278139    -0.00033273     0.00067238    -0.00052105
H         0.84313235    -0.18661057     1.90165826     0.00147703    -0.00050055     0.00075046
H        -0.92662464    -0.01655328     1.94830319     0.00087818     0.00029637    -0.00034830
H        -1.02559471     0.09999569    -0.62569712     0.00045702     0.00006295    -0.00046918
     6
  Step:    36            Position(A)                                  Velocity(au)
C        -0.02289251    -0.00266378    -0.03409149     0.00001109    -0.00006999    -0.00025756
N        -0.05339945    -0.04720367     1.35000441    -0.00018474     0.00002321     0.00026513
H         0.89535945     0.12191997    -0.68550508    -0.00037424     0.00066711    -0.00046221
H         0.85093386    -0.18936655     1.90560461     0.00132662    -0.00049227     0.00066629
H        -0.92153342    -0.01491615     1.94617478     0.00094768     0.00029513    -0.00041091
H        -1.02283627     0.10028490    -0.62812561     0.00053516     0.00004146    -0.00040832
     6
  Step:    37            Position(A)                                  Velocity(au)
C        -0.02284618    -0.00304854    -0.03546699     0.00000589    -0.00006908    -0.00023898
N        -0.05439606    -0.04707428     1.35143452    -0.00017380     0.00002339     0.00025108
H         0.89317475     0.12560223    -0.68790340    -0.00041347     0.00066371    -0.00040472
H         0.85783345    -0.19206575     1.90904181     0.00115656    -0.00048147     0.00056959
H        -0.91612279    -0.01328270     1.94374961     0.00099471     0.00029578    -0.00045583
H        -1.01966426     0.10045514    -0.63022203     0.00060720     0.00002008    -0.00035036
     6
  Step:    38            Position(A)                                  Velocity(au)
C        -0.02282728    -0.00342845    -0.03673696     0.00000117    -0.00006840    -0.00021996
N        -0.05532334    -0.04694476     1.35278378    -0.00016017     0.00002333     0.00023637
H         0.89078253     0.12926703    -0.68998521    -0.00044991     0.00066237    -0.00034887
H         0.86373654    -0.19469620     1.91190974     0.00097119    -0.00046886     0.00046320
H        -0.91052234    -0.01164195     1.94112892     0.00101792     0.00029856    -0.00048226
H        -1.01611475     0.10050713    -0.63200395     0.00067273    -0.00000125    -0.00029564
     6
  Step:    39            Position(A)                                  Velocity(au)
C        -0.02283321    -0.00380478    -0.03789909    -0.00000310    -0.00006795    -0.00020047
N        -0.05616710    -0.04681633     1.35404804    -0.00014405     0.00002306     0.00022080
H         0.88820010     0.13292597    -0.69176083    -0.00048309     0.00066321    -0.00029487
H         0.86857183    -0.19724988     1.91416337     0.00077432    -0.00045510     0.00034960
H        -0.90486771    -0.00998160     1.93841729     0.00101631     0.00030368    -0.00048968
H        -1.01222600     0.10044127    -0.63349087     0.00073127    -0.00002259    -0.00024449
     6
  Step:    40            Position(A)                                  Velocity(au)
C        -0.02286154    -0.00417884    -0.03895091    -0.00000968    -0.00006459    -0.00021606
N        -0.05691422    -0.04669008     1.35522222    -0.00012388     0.00002146     0.00023066
H         0.88544730     0.13659143    -0.69324173    -0.00052052     0.00071183    -0.00020133
H         0.87228802    -0.19972233     1.91577066     0.00054695    -0.00049872     0.00022217
H        -0.89929834    -0.00828817     1.93572099     0.00099781     0.00037161    -0.00048290
H        -1.00803863     0.10025768    -0.63470406     0.00081269    -0.00011325    -0.00016874
     6
  Step:    41            Position(A)                                  Velocity(au)
C        -0.02294004    -0.00451727    -0.04028250    -0.00001878    -0.00005805    -0.00027089
N        -0.05753368    -0.04657964     1.35659257    -0.00009966     0.00001820     0.00026960
H         0.88245808     0.14077844    -0.69398176    -0.00056160     0.00080077    -0.00006644
H         0.87460546    -0.20275151     1.91661420     0.00029007    -0.00059124     0.00008054
H        -0.89386044    -0.00588221     1.93309021     0.00096235     0.00049608    -0.00046671
H        -1.00326084     0.09919201    -0.63535235     0.00091788    -0.00026689    -0.00006586
     6
  Step:    42            Position(A)                                  Velocity(au)
C        -0.02306845    -0.00481855    -0.04193632    -0.00002771    -0.00005134    -0.00033061
N        -0.05801255    -0.04648947     1.35819338    -0.00007320     0.00001429     0.00031227
H         0.87925806     0.14541643    -0.69397392    -0.00059698     0.00087994     0.00006803
H         0.87548476    -0.20623820     1.91665830     0.00002831    -0.00066958    -0.00006524
H        -0.88869256    -0.00282099     1.93057756     0.00090107     0.00061297    -0.00043855
H        -0.99792293     0.09731643    -0.63542988     0.00101515    -0.00041013     0.00003589
     6
  Step:    43            Position(A)                                  Velocity(au)
C        -0.02324521    -0.00508270    -0.04392333    -0.00003629    -0.00004467    -0.00039107
N        -0.05833984    -0.04642225     1.36003148    -0.00004489     0.00000995     0.00035511
H         0.87588375     0.15046879    -0.69323253    -0.00062475     0.00095340     0.00019893
H         0.87491721    -0.21012533     1.91589572    -0.00023302    -0.00073901    -0.00021073
H        -0.88393739     0.00086816     1.92826069     0.00081380     0.00072585    -0.00039561
H        -0.99208148     0.09467547    -0.63495711     0.00110021    -0.00054620     0.00013264
     6
  Step:    44            Position(A)                                  Velocity(au)
C        -0.02346790    -0.00531028    -0.04624102    -0.00004435    -0.00003812    -0.00045015
N        -0.05850665    -0.04637995     1.36210230    -0.00001515     0.00000529     0.00039638
H         0.87238110     0.15591099    -0.69178417    -0.00064318     0.00102273     0.00032406
H         0.87291975    -0.21437283     1.91433870    -0.00048901    -0.00080192    -0.00035238
H        -0.87973461     0.00516879     1.92622292     0.00070175     0.00083607    -0.00033758
H        -0.98581230     0.09130417    -0.63396985     0.00116955    -0.00067616     0.00022168
     6