     6
  Step:     0            Position(A)                                  Velocity(au)
C        -0.04024469     0.00204984    -0.00003899     0.00006612    -0.00000601     0.00011291
N        -0.03808549    -0.05395219     1.31358752    -0.00027093     0.00013824    -0.00016599
H         0.95383461     0.08893220    -0.55641341     0.00053071    -0.00022593    -0.00074733
H         0.82980786    -0.10343164     1.88068428     0.00165102    -0.00070257     0.00126097
H        -0.98051228    -0.01959404     1.83484354     0.00104722    -0.00078058     0.00001306
H        -1.00726057     0.08962833    -0.52068317    -0.00025192    -0.00014039     0.00043453
     6
  Step:     1            Position(A)                                  Velocity(au)
C        -0.03985250     0.00201226     0.00027086     0.00007742    -0.00000768    -0.00000027
N        -0.03960263    -0.05321992     1.31294464    -0.00028112     0.00012938    -0.00006789
H         0.95644701     0.08777430    -0.56033202     0.00042027    -0.00019779    -0.00068245
H         0.83885467    -0.10715958     1.88756329     0.00163256    -0.00065956     0.00123824
H        -0.97436966    -0.02378822     1.83475455     0.00118703    -0.00075211    -0.00004084
H        -1.00865317     0.08897998    -0.51831293    -0.00025593    -0.00009695     0.00043169
     6
  Step:     2            Position(A)                                  Velocity(au)
C        -0.03939768     0.00196581    -0.00004197     0.00008886    -0.00000922    -0.00011415
N        -0.04116107    -0.05253671     1.31284479    -0.00028584     0.00012027     0.00003194
H         0.95843264     0.08676827    -0.56387979     0.00030228    -0.00017049    -0.00061210
H         0.84766912    -0.11064765     1.89423138     0.00156733    -0.00061468     0.00118481
H        -0.96752541    -0.02782254     1.83439672     0.00130079    -0.00072194    -0.00008381
H        -1.01006061     0.08856759    -0.51596022    -0.00025704    -0.00005441     0.00042752
     6
  Step:     3            Position(A)                                  Velocity(au)
C        -0.03888000     0.00191139    -0.00097853     0.00010023    -0.00001055    -0.00022755
N        -0.04273112    -0.05190362     1.31329422    -0.00028520     0.00011105     0.00013216
H         0.95975536     0.08590836    -0.56703132     0.00017879    -0.00014453    -0.00053803
H         0.85600873    -0.11388708     1.90053081     0.00146071    -0.00056864     0.00110476
H        -0.96013277    -0.03168968     1.83383723     0.00138453    -0.00069090    -0.00011313
H        -1.01146637     0.08838448    -0.51363382    -0.00025506    -0.00001352     0.00042146
     6
  Step:     4            Position(A)                                  Velocity(au)
C        -0.03830031     0.00185034    -0.00253344     0.00011133    -0.00001159    -0.00033924
N        -0.04428374    -0.05132083     1.31429177    -0.00027931     0.00010187     0.00023138
H         0.96039017     0.08518587    -0.56977066     0.00005189    -0.00012043    -0.00046191
H         0.86366228    -0.11687362     1.90632729     0.00131836    -0.00052224     0.00100229
H        -0.95236625    -0.03538711     1.83315805     0.00143450    -0.00065982    -0.00012625
H        -1.01285328     0.08841956    -0.51134564    -0.00024998     0.00002492     0.00041293
     6
  Step:     5            Position(A)                                  Velocity(au)
C        -0.03766055     0.00178441    -0.00469450     0.00012195    -0.00001229    -0.00044789
N        -0.04579058    -0.05078775     1.31582873    -0.00026828     0.00009287     0.00032820
H         0.96032377     0.08458925    -0.57209088    -0.00007612    -0.00009865    -0.00038532
H         0.87044958    -0.11960751     1.91150949     0.00114575    -0.00047620     0.00088136
H        -0.94441978    -0.03891705     1.83245435     0.00144734    -0.00062946    -0.00012100
H        -1.01420455     0.08865745    -0.50911069    -0.00024199     0.00006020     0.00040137
     6
  Step:     6            Position(A)                                  Velocity(au)
C        -0.03696378     0.00171566    -0.00744215     0.00013187    -0.00001260    -0.00055205
N        -0.04722401    -0.05030307     1.31788864    -0.00025227     0.00008414     0.00042110
H         0.95955589     0.08410473    -0.57399357    -0.00020266    -0.00007948    -0.00030980
H         0.87621911    -0.12209252     1.91598662     0.00094814    -0.00043102     0.00074567
H        -0.93650413    -0.04228574     1.83183199     0.00142026    -0.00060044    -0.00009573
H        -1.01550538     0.08907933    -0.50694686    -0.00023158     0.00009181     0.00038627
     6
  Step:     7            Position(A)                                  Velocity(au)
C        -0.03621426     0.00164619    -0.01074890     0.00014085    -0.00001254    -0.00065013
N        -0.04855725    -0.04986496     1.32044705    -0.00023147     0.00007577     0.00050857
H         0.95810114     0.08371755    -0.57548852    -0.00032478    -0.00006299    -0.00023688
H         0.88084806    -0.12433458     1.91968743     0.00073095    -0.00038697     0.00059883
H        -0.92884346    -0.04550216     1.83140443     0.00135139    -0.00057307    -0.00004952
H        -1.01674435     0.08966440    -0.50487436    -0.00021943     0.00011952     0.00036728
     6
  Step:     8            Position(A)                                  Velocity(au)
C        -0.03541762     0.00157798    -0.01457878     0.00014862    -0.00001215    -0.00074051
N        -0.04976489    -0.04947133     1.32347134    -0.00020620     0.00006779     0.00058907
H         0.95599067     0.08341326    -0.57659386    -0.00043927    -0.00004902    -0.00016813
H         0.88424298    -0.12634037     1.92256011     0.00049976    -0.00034410     0.00044448
H        -0.92166950    -0.04857653     1.83128841     0.00124024    -0.00054747     0.00001764
H        -1.01791412     0.09039138    -0.50291514    -0.00020629     0.00014334     0.00034412
     6
  Step:     9            Position(A)                                  Velocity(au)
C        -0.03458091     0.00151263    -0.01888729     0.00015489    -0.00001151    -0.00082159
N        -0.05082344    -0.04911995     1.32692102    -0.00017693     0.00006021     0.00066116
H         0.95327350     0.08317887    -0.57733627    -0.00054271    -0.00003722    -0.00010516
H         0.88634056    -0.12811633     1.92457236     0.00026038    -0.00030236     0.00028636
H        -0.91521294    -0.05151900     1.83159831     0.00108815    -0.00052353     0.00010460
H        -1.01901150     0.09123972    -0.50109235    -0.00019287     0.00016343     0.00031666
     6
  Step:    10            Position(A)                                  Velocity(au)
C        -0.03371280     0.00145133    -0.02362159     0.00015938    -0.00001068    -0.00089187
N        -0.05171226    -0.04880860     1.33074834    -0.00014431     0.00005305     0.00072357
H         0.95001734     0.08300356    -0.57775126    -0.00063165    -0.00002720    -0.00004962
H         0.88710885    -0.12966833     1.92571192     0.00001892    -0.00026171     0.00012835
H        -0.90969283    -0.05433872     1.83243969     0.00089874    -0.00050102     0.00020889
H        -1.02003691     0.09219021    -0.49942979    -0.00017978     0.00018007     0.00028487
     6
  Step:    11            Position(A)                                  Velocity(au)
C        -0.03282358     0.00139482    -0.02872118     0.00016179    -0.00000977    -0.00095002
N        -0.05241465    -0.04853507     1.33489928    -0.00010921     0.00004628     0.00077528
H         0.94630885     0.08287901    -0.57788337    -0.00070273    -0.00001848    -0.00000313
H         0.88654916    -0.13100197     1.92598760    -0.00021818    -0.00022218    -0.00002547
H        -0.90530330    -0.05704334     1.83390158     0.00067813    -0.00047967     0.00032663
H        -1.02099373     0.09322516    -0.49795130    -0.00016749     0.00019350     0.00024886
     6
  Step:    12            Position(A)                                  Velocity(au)
C        -0.03192508     0.00134341    -0.03411880     0.00016190    -0.00000883    -0.00099504
N        -0.05291902    -0.04829718     1.33931479    -0.00007272     0.00003994     0.00081557
H         0.94225259     0.08279932    -0.57778588    -0.00075299    -0.00001067     0.00003283
H         0.88469809    -0.13212334     1.92543046    -0.00044420    -0.00018400    -0.00017091
H        -0.90219982    -0.05963877     1.83604880     0.00043488    -0.00045918     0.00045267
H        -1.02188762     0.09432824    -0.49668002    -0.00015638     0.00020397     0.00020891
     6
  Step:    13            Position(A)                                  Velocity(au)
C        -0.03103040     0.00129705    -0.03974212     0.00015954    -0.00000793    -0.00102635
N        -0.05322009    -0.04809270     1.34393244    -0.00003608     0.00003403     0.00084413
H         0.93796886     0.08276086    -0.57751980    -0.00078009    -0.00000337     0.00005705
H         0.88162927    -0.13303991     1.92409460    -0.00065237    -0.00014751    -0.00030378
H        -0.90048662    -0.06212914     1.83891537     0.00017944    -0.00043929     0.00058096
H        -1.02272581     0.09548434    -0.49563747    -0.00014669     0.00021173     0.00016547
     6
  Step:    14            Position(A)                                  Velocity(au)
C        -0.03015343     0.00125540    -0.04551617     0.00027834    -0.00001280    -0.00187886
N        -0.05331971    -0.04791933     1.34868867    -0.00000115     0.00005141     0.00154987
H         0.93358991     0.08276193    -0.57715230    -0.00140848     0.00000671     0.00012375
H         0.87745370    -0.13376142     1.92205706    -0.00150500    -0.00020376    -0.00075614
H        -0.90020715    -0.06451700     1.84250021    -0.00013788    -0.00075554     0.00126893
H        -1.02351656     0.09667948    -0.49484249    -0.00024936     0.00039059     0.00021453
     6
  Step:    15            Position(A)                                  Velocity(au)
C        -0.02861802     0.00116922    -0.05567006     0.00026454    -0.00001792    -0.00171663
N        -0.05323580    -0.04763617     1.35710070     0.00002842     0.00004920     0.00142847
H         0.92603822     0.08287694    -0.57678322    -0.00125212     0.00003509    -0.00000078
H         0.86871010    -0.13484951     1.91760744    -0.00157004    -0.00018379    -0.00080511
H        -0.90168749    -0.06866199     1.84991391    -0.00037589    -0.00071429     0.00135101
H        -1.02520323     0.09888918    -0.49407798    -0.00034919     0.00039272     0.00005978
     6
  Step:    16            Position(A)                                  Velocity(au)
C        -0.02716515     0.00105297    -0.06490745     0.00024607    -0.00002310    -0.00153641
N        -0.05299870    -0.04736354     1.36482488     0.00005211     0.00004707     0.00129125
H         0.91944586     0.08315835    -0.57716114    -0.00105771     0.00006475    -0.00013766
H         0.85971831    -0.13583756     1.91296246    -0.00157279    -0.00016648    -0.00081532
H        -0.90445323    -0.07258568     1.85776142    -0.00058191    -0.00066858     0.00140298
H        -1.02746107     0.10111571    -0.49416722    -0.00044392     0.00039144    -0.00008575
     6
  Step:    17            Position(A)                                  Velocity(au)
C        -0.02582074     0.00090661    -0.07313577     0.00022574    -0.00002837    -0.00135808
N        -0.05264346    -0.04710110     1.37177948     0.00006960     0.00004543     0.00115470
H         0.91401434     0.08361304    -0.57834809    -0.00084382     0.00009559    -0.00028276
H         0.85083082    -0.13674207     1.90833896    -0.00152867    -0.00015401    -0.00079559
H        -0.90830261    -0.07626226     1.86586282    -0.00075223    -0.00062498     0.00143436
H        -1.03024964     0.10333897    -0.49505272    -0.00053236     0.00039008    -0.00021915
     6
  Step:    18            Position(A)                                  Velocity(au)
C        -0.02459489     0.00072998    -0.08037057     0.00020557    -0.00003385    -0.00119383
N        -0.05220628    -0.04684628     1.37797228     0.00008128     0.00004458     0.00102915
H         0.90983805     0.08424676    -0.58038071    -0.00062310     0.00012804    -0.00043491
H         0.84231284    -0.13759117     1.90390388    -0.00145121    -0.00014774    -0.00075388
H        -0.91301818    -0.07970178     1.87409316    -0.00088924    -0.00058783     0.00145469
H        -1.03352254     0.10555714    -0.49666245    -0.00061555     0.00039134    -0.00034155
     6
  Step:    19            Position(A)                                  Velocity(au)
C        -0.02348624     0.00052224    -0.08669339     0.00018636    -0.00003964    -0.00104696
N        -0.05172040    -0.04659488     1.38346690     0.00008765     0.00004460     0.00091758
H         0.90693818     0.08506706    -0.58328710    -0.00040149     0.00016253    -0.00059394
H         0.83435037    -0.13841986     1.89977755    -0.00134705    -0.00014812    -0.00069454
H        -0.91840115    -0.08293788     1.88238281    -0.00099602    -0.00055819     0.00146853
H        -1.03724003     0.10778319    -0.49893153    -0.00069411     0.00039632    -0.00045541
     6
  Step:    20            Position(A)                                  Velocity(au)
C        -0.02248876     0.00028196    -0.09220302     0.00016804    -0.00004575    -0.00091515
N        -0.05121569    -0.04634221     1.38834249     0.00008896     0.00004543     0.00081814
H         0.90530054     0.08608361    -0.58709324    -0.00018172     0.00019908    -0.00075852
H         0.82708887    -0.13926520     1.89605442    -0.00121669    -0.00015500    -0.00061850
H        -0.92427494    -0.08601030     1.89069011    -0.00107335    -0.00053479     0.00147511
H        -1.04136715     0.11003618    -0.50180939    -0.00076683     0.00040457    -0.00056227
     6
  Step:    21            Position(A)                                  Velocity(au)
C        -0.02159654     0.00000769    -0.09698495     0.00015030    -0.00005209    -0.00079461
N        -0.05071998    -0.04608399     1.39266750     0.00008533     0.00004691     0.00072760
H         0.90489458     0.08730582    -0.59181724     0.00003326     0.00023718    -0.00092549
H         0.82066771    -0.14016294     1.89282210    -0.00105877    -0.00016787    -0.00052564
H        -0.93047176    -0.08895201     1.89897158    -0.00112020    -0.00051552     0.00147107
H        -1.04586365     0.11233293    -0.50525471    -0.00083109     0.00041496    -0.00066227
     6
  Step:    22            Position(A)                                  Velocity(au)
C        -0.02080528    -0.00030146    -0.10110347     0.00013294    -0.00005850    -0.00068230
N        -0.05025986    -0.04581677     1.39649233     0.00007698     0.00004888     0.00064327
H         0.90567304     0.08874022    -0.59745966     0.00023912     0.00027602    -0.00109051
H         0.81522953    -0.14114557     1.89016666    -0.00087346    -0.00018608    -0.00041665
H        -0.93682239    -0.09178470     1.90716764    -0.00113557    -0.00049851     0.00145319
H        -1.05067622     0.11468411    -0.50922751    -0.00088395     0.00042625    -0.00075474
     6
  Step:    23            Position(A)                                  Velocity(au)
C        -0.02011165    -0.00064567    -0.10460589     0.00011598    -0.00006484    -0.00057637
N        -0.04986021    -0.04553797     1.39985244     0.00006429     0.00005121     0.00056346
H         0.90756542     0.09038877    -0.60399760     0.00043065     0.00031469    -0.00124898
H         0.81091165    -0.14224140     1.88816835    -0.00066369    -0.00020883    -0.00029361
H        -0.94315545    -0.09452004     1.91520292    -0.00111948    -0.00048240     0.00141955
H        -1.05573690     0.11709389    -0.51368475    -0.00092298     0.00043749    -0.00083886
     6
  Step:    24            Position(A)                                  Velocity(au)
C        -0.01951227    -0.00102434    -0.10752901     0.00009957    -0.00007100    -0.00047583
N        -0.04954313    -0.04524582     1.40277388     0.00004790     0.00005378     0.00048726
H         0.91047401     0.09224845    -0.61138365     0.00060258     0.00035231    -0.00139666
H         0.80783059    -0.14347368     1.88689346    -0.00043502    -0.00023517    -0.00015998
H        -0.94930267    -0.09716267     1.92299314    -0.00107330    -0.00046638     0.00136961
H        -1.06096581     0.11956131    -0.51857939    -0.00094649     0.00044799    -0.00091399
     6
  Step:    25            Position(A)                                  Velocity(au)
C        -0.01900300    -0.00143623    -0.10990394     0.00008392    -0.00007688    -0.00038023
N        -0.04932683    -0.04493922     1.40527766     0.00002862     0.00005646     0.00041427
H         0.91427472     0.09431151    -0.61954832     0.00075033     0.00038811    -0.00152992
H         0.80606809    -0.14485982     1.88638711    -0.00019499    -0.00026401    -0.00002024
H        -0.95510580    -0.09971288     1.93045246    -0.00099946    -0.00044998     0.00130391
H        -1.06627536     0.12208190    -0.52386131    -0.00095358     0.00045732    -0.00097972
     6
  Step:    26            Position(A)                                  Velocity(au)
C        -0.01857866    -0.00187960    -0.11175901     0.00006924    -0.00008239    -0.00028936
N        -0.04922477    -0.04461769     1.40738255     0.00000734     0.00005917     0.00034438
H         0.91882129     0.09656606    -0.62840383     0.00087034     0.00042140    -0.00164594
H         0.80566132    -0.14641072     1.88666829     0.00004763    -0.00029415     0.00012055
H        -0.96042155    -0.10216865     1.93749891    -0.00090117    -0.00043298     0.00122370
H        -1.07157422     0.12464891    -0.52947863    -0.00094397     0.00046520    -0.00103590
     6
  Step:    27            Position(A)                                  Velocity(au)
C        -0.01823310    -0.00235230    -0.11312115     0.00005571    -0.00008748    -0.00020312
N        -0.04924521    -0.04428133     1.40910661    -0.00001496     0.00006181     0.00027761
H         0.92395165     0.09899686    -0.63784875     0.00096038     0.00045168    -0.00174269
H         0.80659770    -0.14813029     1.88772747     0.00028368    -0.00032432     0.00025716
H        -0.96512544    -0.10452693     1.94405812    -0.00078212    -0.00041531     0.00113069
H        -1.07677087     0.12725426    -0.53537892    -0.00091793     0.00047149    -0.00108254
     6
  Step:    28            Position(A)                                  Velocity(au)
C        -0.01795945    -0.00285192    -0.11401651     0.00004344    -0.00009212    -0.00012146
N        -0.04939106    -0.04393075     1.41046796    -0.00003734     0.00006429     0.00021405
H         0.92949507     0.10158607    -0.64777243     0.00101938     0.00047853    -0.00181887
H         0.80881422    -0.15001528     1.88952638     0.00050426    -0.00035326     0.00038452
H        -0.96911414    -0.10678448     1.95006562    -0.00064632    -0.00039702     0.00102689
H        -1.08177629     0.12988915    -0.54151014    -0.00087610     0.00047610    -0.00111978
     6
  Step:    29            Position(A)                                  Velocity(au)
C        -0.01775043    -0.00337588    -0.11447072     0.00003248    -0.00009627    -0.00004432
N        -0.04966011    -0.04356703     1.41148503    -0.00005891     0.00006653     0.00015380
H         0.93527834     0.10431402    -0.65805888     0.00104745     0.00050171    -0.00187387
H         0.81220075    -0.15205552     1.89199999     0.00070137    -0.00037979     0.00049809
H        -0.97230687    -0.10893840     1.95546824    -0.00049787    -0.00037823     0.00091442
H        -1.08650547     0.13254436    -0.54782112    -0.00081935     0.00047899    -0.00114782
     6
  Step:    30            Position(A)                                  Velocity(au)
C        -0.01759865    -0.00392149    -0.11450886     0.00002282    -0.00009993     0.00002837
N        -0.05004552    -0.04319167     1.41217663    -0.00007889     0.00006846     0.00009693
H         0.94113186     0.10715991    -0.66859047     0.00104563     0.00052106    -0.00190764
H         0.81660623    -0.15423456     1.89506000     0.00086836    -0.00040283     0.00059409
H        -0.97464529    -0.11098644     1.96022450    -0.00034080    -0.00035906     0.00079543
H        -1.09087904     0.13521058    -0.55426200    -0.00074886     0.00048017    -0.00116695
     6
  Step:    31            Position(A)                                  Velocity(au)
C        -0.01749689    -0.00448600    -0.11415551     0.00001443    -0.00010309     0.00009670
N        -0.05053652    -0.04280647     1.41256180    -0.00009665     0.00007005     0.00004347
H         0.94689419     0.11010242    -0.67925080     0.00101575     0.00053654    -0.00192068
H         0.82184731    -0.15653058     1.89859971     0.00100029    -0.00042156     0.00066969
H        -0.97609275    -0.11292716     1.96430465    -0.00017897    -0.00033970     0.00067206
H        -1.09482450     0.13787852    -0.56078467    -0.00066595     0.00047966    -0.00117752
     6
  Step:    32            Position(A)                                  Velocity(au)
C        -0.01743831    -0.00506671    -0.11343459     0.00000723    -0.00010576     0.00016077
N        -0.05111924    -0.04241348     1.41265958    -0.00011171     0.00007125    -0.00000658
H         0.95241587     0.11312033    -0.68992731     0.00096026     0.00054822    -0.00191390
H         0.82771842    -0.15891762     1.90249958     0.00109409    -0.00043533     0.00072310
H        -0.97663342    -0.11476011     1.96769045    -0.00001604    -0.00032032     0.00054639
H        -1.09827703     0.14053912    -0.56734308    -0.00057208     0.00047753    -0.00117996
     6
  Step:    33            Position(A)                                  Velocity(au)
C        -0.01741660    -0.00566098    -0.11236939     0.00000110    -0.00010797     0.00022070
N        -0.05177757    -0.04201489     1.41248873    -0.00012373     0.00007206    -0.00005329
H         0.95756231     0.11619299    -0.70051351     0.00088201     0.00055626    -0.00188856
H         0.83400231    -0.16136696     1.90663305     0.00114859    -0.00044379     0.00075355
H        -0.97627100    -0.11648586     1.97037487     0.00014454    -0.00030115     0.00042042
H        -1.10118016     0.14318368    -0.57389359    -0.00046883     0.00047385    -0.00117474
     6
  Step:    34            Position(A)                                  Velocity(au)
C        -0.01742609    -0.00626630    -0.11098243    -0.00000406    -0.00010973     0.00027663
N        -0.05249400    -0.04161287     1.41206747    -0.00013253     0.00007247    -0.00009679
H         0.96221570     0.11930079    -0.71091064     0.00078408     0.00056086    -0.00184617
H         0.84048006    -0.16384847     1.91087206     0.00116423    -0.00044680     0.00076120
H        -0.97502751    -0.11810610     1.97236167     0.00029957    -0.00028238     0.00029609
H        -1.10348612     0.14580399    -0.58039530    -0.00035778     0.00046875    -0.00116240
     6
  Step:    35            Position(A)                                  Velocity(au)
C        -0.01746174    -0.00688032    -0.10929549    -0.00000837    -0.00011109     0.00032869
N        -0.05325028    -0.04120956     1.41141321    -0.00013804     0.00007252    -0.00013723
H         0.96627503     0.12242536    -0.72102838     0.00066949     0.00056229    -0.00178834
H         0.84693929    -0.16633187     1.91509163     0.00114287    -0.00044444     0.00074700
H        -0.97294211    -0.11962369     1.97366502     0.00044611    -0.00026424     0.00017522
H        -1.10515582     0.14839245    -0.58681024    -0.00024048     0.00046233    -0.00114349
     6
  Step:    36            Position(A)                                  Velocity(au)
C        -0.01751916    -0.00750085    -0.10732955    -0.00001195    -0.00011206     0.00037703
N        -0.05402808    -0.04080694     1.41054233    -0.00014027     0.00007223    -0.00017482
H         0.96965607     0.12554981    -0.73078543     0.00054125     0.00056082    -0.00171673
H         0.85318138    -0.16878778     1.91917393     0.00108745    -0.00043695     0.00071250
H        -0.97006960    -0.12104269     1.97430898     0.00058147    -0.00024693     0.00005954
H        -1.10615867     0.15094210    -0.59310358    -0.00011845     0.00045473    -0.00111862
     6
  Step:    37            Position(A)                                  Velocity(au)
C        -0.01759459    -0.00812592    -0.10510477    -0.00001491    -0.00011271     0.00042182
N        -0.05480943    -0.04040677     1.40947004    -0.00013934     0.00007164    -0.00020978
H         0.97229101     0.12865889    -0.74010989     0.00040226     0.00055676    -0.00163306
H         0.85902636    -0.17118862     1.92301107     0.00100167    -0.00042473     0.00065967
H        -0.96647902    -0.12236835     1.97432681     0.00070322    -0.00023069    -0.00004935
H        -1.10647242     0.15344675    -0.59924378     0.00000683     0.00044609    -0.00108839
     6
  Step:    38            Position(A)                                  Velocity(au)
C        -0.01768485    -0.00875374    -0.10264045    -0.00001734    -0.00011305     0.00046319
N        -0.05557709    -0.04001055     1.40821027    -0.00013540     0.00007081    -0.00024235
H         0.97412773     0.13173904    -0.74893930     0.00025524     0.00055042    -0.00153901
H         0.86431635    -0.17350922     1.92650709     0.00088971    -0.00040824     0.00059080
H        -0.96225223    -0.12360709     1.97376034     0.00080921    -0.00021570    -0.00014999
H        -1.10608273     0.15590100    -0.60520260     0.00013400     0.00043655    -0.00105338
     6
  Step:    39            Position(A)                                  Velocity(au)
C        -0.01778732    -0.00938276    -0.09995511    -0.00001934    -0.00011312     0.00050129
N        -0.05631481    -0.03961950     1.40677561    -0.00012865     0.00006979    -0.00027276
H         0.97512872     0.13477840    -0.75722031     0.00010270     0.00054210    -0.00143615
H         0.86891805    -0.17572735     1.92957944     0.00075613    -0.00038805     0.00050837
H        -0.95748240    -0.12476644     1.97265926     0.00089753    -0.00020216    -0.00024103
H        -1.10498265     0.15830020    -0.61095506     0.00026176     0.00042624    -0.00101416
     6
  Step:    40            Position(A)                                  Velocity(au)
C        -0.01789985    -0.01001158    -0.09706653    -0.00002099    -0.00011297     0.00053623
N        -0.05700753    -0.03923455     1.40517736    -0.00011930     0.00006863    -0.00030124
H         0.97526961     0.13776674    -0.76490808    -0.00005311     0.00053207    -0.00132595
H         0.87272394    -0.17782400     1.93215976     0.00060554    -0.00036474     0.00041495
H        -0.95227248    -0.12585495     1.97108024     0.00096659    -0.00019024    -0.00032133
H        -1.10317214     0.16064043    -0.61647926     0.00038892     0.00041529    -0.00097128
     6
  Step:    41            Position(A)                                  Velocity(au)
C        -0.01802070    -0.01063901    -0.09399187    -0.00002235    -0.00011261     0.00056811
N        -0.05764153    -0.03885629     1.40342561    -0.00010761     0.00006738    -0.00032798
H         0.97453815     0.14069533    -0.77196574    -0.00021009     0.00052059    -0.00120980
H         0.87565208    -0.17978353     1.93419392     0.00044246    -0.00033892     0.00031304
H        -0.94673337    -0.12688207     1.96908592     0.00101513    -0.00018009    -0.00038989
H        -1.10065766     0.16291850    -0.62175627     0.00051431     0.00040382    -0.00092524
     6
  Step:    42            Position(A)                                  Velocity(au)
C        -0.01814847    -0.01126400    -0.09074784    -0.00002349    -0.00011207     0.00059699
N        -0.05820445    -0.03848508     1.40152945    -0.00009384     0.00006610    -0.00035314
H         0.97293290     0.14355682    -0.77836375    -0.00036640     0.00050788    -0.00108893
H         0.87764508    -0.18159358     1.93564152     0.00027116    -0.00031116     0.00020507
H        -0.94098197    -0.12785801     1.96674378     0.00104229    -0.00017182    -0.00044599
H        -1.09745186     0.16513186    -0.62676999     0.00063683     0.00039195    -0.00087653
     6
  Step:    43            Position(A)                                  Velocity(au)
C        -0.01828203    -0.01188564    -0.08735085    -0.00002445    -0.00011137     0.00062289
N        -0.05868538    -0.03812101     1.39949722    -0.00007824     0.00006481    -0.00037681
H         0.97046221     0.14634511    -0.78407927    -0.00052031     0.00049417    -0.00096453
H         0.87866854    -0.18324498     1.93647518     0.00009572    -0.00028203     0.00009334
H        -0.93513870    -0.12879344     1.96412459     0.00104768    -0.00016548    -0.00048918
H        -1.09357338     0.16727858    -0.63150696     0.00075542     0.00037976    -0.00082561
     6
  Step:    44            Position(A)                                  Velocity(au)
C        -0.01842046    -0.01250315    -0.08381721    -0.00002525    -0.00011053     0.00064581
N        -0.05907498    -0.03776395     1.39733677    -0.00006112     0.00006356    -0.00039907
H         0.96714354     0.14905525    -0.78909573    -0.00067022     0.00047964    -0.00083771
H         0.87871008    -0.18473169     1.93668012    -0.00007998    -0.00025209    -0.00001989
H        -0.92932479    -0.12969930     1.96130082     0.00103141    -0.00016110    -0.00051932
H        -1.08904660     0.16935732    -0.63595631     0.00086901     0.00036737    -0.00077295
     6