 Fermi distribution function

Calculation with static geometry


********************************************************************************
 iSCC Total electronic   Diff electronic      SCC error    
   10   -0.54390616E+01   -0.96811448E-13    0.27729014E-06
********************************************************************************

 Total charge:     1.00000000

 Atomic gross charges (e)
 Atom           Charge
    1       0.23319451
    2      -0.11616800
    3       0.13896615
    4       0.27856902
    5       0.29801195
    6       0.16742637

Nr. of electrons (up):     12.00000000
Atom populations (up)
 Atom       Population
    1       3.76680549
    2       5.11616800
    3       0.86103385
    4       0.72143098
    5       0.70198805
    6       0.83257363

l-shell populations (up)
 Atom Sh.   l       Population
    1   1   0       1.27646843
    1   2   1       2.49033705
    2   1   0       1.40090893
    2   2   1       3.71525907
    3   1   0       0.86103385
    4   1   0       0.72143098
    5   1   0       0.70198805
    6   1   0       0.83257363

Orbital populations (up)
 Atom Sh.   l   m       Population  Label
    1   1   0   0       1.27646843  s
    1   2   1  -1       0.57649589  p_y
    1   2   1   0       0.89825438  p_z
    1   2   1   1       1.01558679  p_x
    2   1   0   0       1.40090893  s
    2   2   1  -1       1.32898369  p_y
    2   2   1   0       1.08529358  p_z
    2   2   1   1       1.30098180  p_x
    3   1   0   0       0.86103385  s
    4   1   0   0       0.72143098  s
    5   1   0   0       0.70198805  s
    6   1   0   0       0.83257363  s

Fermi level:                        -0.4780100910 H          -13.0073 eV
Band energy:                        -8.9498277983 H         -243.5372 eV
TS:                                  0.0000000000 H            0.0000 eV
Band free energy (E-TS):            -8.9498277983 H         -243.5372 eV
Extrapolated E(0K):                 -8.9498277983 H         -243.5372 eV
Input / Output electrons (q):     12.0000000000     12.0000000000

Energy H0:                          -5.5722044540 H         -151.6274 eV
Energy SCC:                          0.1331428956 H            3.6230 eV
Total Electronic energy:            -5.4390615583 H         -148.0044 eV
Repulsive energy:                    0.2265179092 H            6.1639 eV
Total energy:                       -5.2125436491 H         -141.8405 eV
Extrapolated to 0:                  -5.2125436491 H         -141.8405 eV
Total Mermin free energy:           -5.2125436491 H         -141.8405 eV
Force related energy:               -5.2125436491 H         -141.8405 eV

SCC converged

Excitation Energy:                   0.1161583564 H            3.1608 eV

Total Forces
    1     -0.009562045422     -0.003293610766     -0.054537701191
    2     -0.010781417505      0.012267406928      0.047378325228
    3      0.003329717338      0.014368425297      0.002108688103
    4     -0.003387125931     -0.014534967943      0.001797472626
    5      0.014639620402      0.002322749423     -0.000971960403
    6      0.005761251118     -0.011130002939      0.004225175637

Maximal derivative component:        0.545377E-01 au


