     6
  Step:     0            Position(A)                                  Velocity(au)
C        -0.03142760     0.01782016     0.04202413     0.00008121     0.00012322    -0.00012801
N        -0.04754479    -0.05325053     1.27524966     0.00012241    -0.00008811     0.00002644
H         0.91154745    -0.00625335    -0.53915814    -0.00037464    -0.00026722     0.00057036
H         0.81065715    -0.12115123     1.86801365    -0.00094874     0.00017285    -0.00072370
H        -0.88399621    -0.07888981     1.85216285    -0.00104773     0.00035516     0.00166557
H        -1.01595398     0.06415833    -0.51105643    -0.00029765    -0.00050473    -0.00035427
     6
  Step:     1            Position(A)                                  Velocity(au)
C        -0.03098885     0.01851230     0.04103261     0.00007841     0.00012992    -0.00023333
N        -0.04685790    -0.05374774     1.27566065     0.00012641    -0.00009371     0.00012340
H         0.90951306    -0.00771969    -0.53620667    -0.00036355    -0.00026916     0.00050479
H         0.80539864    -0.12019529     1.86399323    -0.00096069     0.00017566    -0.00073676
H        -0.88993162    -0.07696177     1.86140116    -0.00110216     0.00035095     0.00169667
H        -1.01749914     0.06140222    -0.51312193    -0.00026464    -0.00050343    -0.00039916
     6
  Step:     2            Position(A)                                  Velocity(au)
C        -0.03056979     0.01924148     0.03947148     0.00007396     0.00013663    -0.00033531
N        -0.04616183    -0.05427570     1.27659970     0.00012571    -0.00009923     0.00021862
H         0.90757027    -0.00919799    -0.53363573    -0.00034070    -0.00027144     0.00043092
H         0.80014726    -0.11922951     1.85995356    -0.00094437     0.00017627    -0.00072934
H        -0.89605378    -0.07505040     1.87072434    -0.00111665     0.00034864     0.00169638
H        -1.01884917     0.05865081    -0.51542318    -0.00022652    -0.00050262    -0.00044035
     6
  Step:     3            Position(A)                                  Velocity(au)
C        -0.03017943     0.02000749     0.03736304     0.00006787     0.00014319    -0.00043226
N        -0.04548216    -0.05483369     1.27805314     0.00012037    -0.00010453     0.00031040
H         0.90578450    -0.01069021    -0.53149083    -0.00030579    -0.00027399     0.00034882
H         0.79506366    -0.11826628     1.85601155    -0.00089764     0.00017452    -0.00069972
H        -0.90215192    -0.07314634     1.87996586    -0.00109402     0.00034775     0.00166641
H        -1.01997808     0.05590173    -0.51794104    -0.00018403    -0.00050202    -0.00047804
     6
  Step:     4            Position(A)                                  Velocity(au)
C        -0.02982667     0.02080930     0.03473847     0.00006019     0.00014945    -0.00052256
N        -0.04484382    -0.05542020     1.27999836     0.00011058    -0.00010945     0.00039709
H         0.90422203    -0.01219803    -0.52981639    -0.00025889    -0.00027678     0.00025892
H         0.79031867    -0.11731863     1.85229204    -0.00081918     0.00017035    -0.00064690
H        -0.90803262    -0.07124281     1.88897038    -0.00103779     0.00034780     0.00160910
H        -1.02086413     0.05315405    -0.52065737    -0.00013801    -0.00050136    -0.00051237
     6
  Step:     5            Position(A)                                  Velocity(au)
C        -0.02951997     0.02164502     0.03163736     0.00005103     0.00015525    -0.00060468
N        -0.04427053    -0.05603292     1.28240406     0.00009662    -0.00011385     0.00047713
H         0.90294782    -0.01372282    -0.52865389    -0.00020054    -0.00027970     0.00016200
H         0.78608792    -0.11639977     1.84892347    -0.00070888     0.00016378    -0.00057080
H        -0.91352295    -0.06933551     1.89759667    -0.00095196     0.00034835     0.00152728
H        -1.02149024     0.05040838    -0.52355504    -0.00008939    -0.00050035    -0.00054349
     6
  Step:     6            Position(A)                                  Velocity(au)
C        -0.02926707     0.02251192     0.02810713     0.00004056     0.00016044    -0.00067726
N        -0.04378418    -0.05666880     1.28523094     0.00007891    -0.00011761     0.00054913
H         0.90202281    -0.01526542    -0.52803979    -0.00013178    -0.00028266     0.00005925
H         0.78254457    -0.11552247     1.84603221    -0.00056813     0.00015496    -0.00047250
H        -0.91847245    -0.06742260     1.90571962    -0.00084085     0.00034896     0.00142413
H        -1.02184440     0.04766686    -0.52661768    -0.00003915    -0.00049871    -0.00057153
     6
  Step:     7            Position(A)                                  Velocity(au)
C        -0.02907468     0.02340642     0.02420200     0.00002901     0.00016486    -0.00073915
N        -0.04340417    -0.05732415     1.28843274     0.00005799    -0.00012062     0.00061191
H         0.90150103    -0.01682603    -0.52800336    -0.00005423    -0.00028552    -0.00004773
H         0.77985064    -0.11469847     1.84373601    -0.00039999     0.00014416    -0.00035434
H        -0.92275431    -0.06550440     1.91323168    -0.00070900     0.00034926     0.00130307
H        -1.02192007     0.04493316    -0.52982965     0.00001164    -0.00049619    -0.00059658
     6
  Step:     8            Position(A)                                  Velocity(au)
C        -0.02894812     0.02432416     0.01998180     0.00001668     0.00016837    -0.00078948
N        -0.04314670    -0.05799477     1.29195756     0.00003453    -0.00012279     0.00066460
H         0.90142665    -0.01840406    -0.52856453     0.00002998    -0.00028812    -0.00015702
H         0.77814756    -0.11393778     1.84213705    -0.00020932     0.00013175    -0.00021992
H        -0.92626643    -0.06358326     1.92004409    -0.00056116     0.00034891     0.00116777
H        -1.02171647     0.04221238    -0.53317585     0.00006188    -0.00049253    -0.00061876
     6
  Step:     9            Position(A)                                  Velocity(au)
C        -0.02889105     0.02526007     0.01551044     0.00000389     0.00017087    -0.00082769
N        -0.04302401    -0.05867602     1.29574939     0.00000933    -0.00012408     0.00070661
H         0.90183114    -0.01999795    -0.52973205     0.00011827    -0.00029028    -0.00026637
H         0.77754624    -0.11324805     1.84131488    -0.00000267     0.00011822    -0.00007406
H        -0.92893221    -0.06166319     1.92608788    -0.00040214     0.00034765     0.00102203
H        -1.02123883     0.03951085    -0.53664169     0.00011046    -0.00048755    -0.00063815
     6
  Step:    10            Position(A)                                  Velocity(au)
C        -0.02890520     0.02620849     0.01085442    -0.00000898     0.00017228    -0.00085353
N        -0.04304377    -0.05936306     1.29974975    -0.00001671    -0.00012445     0.00073772
H         0.90273086    -0.02160508    -0.53150193     0.00020766    -0.00029180    -0.00037334
H         0.77811815    -0.11263411     1.84132036     0.00021201     0.00010414     0.00007753
H        -0.93070104    -0.05974955     1.93131456    -0.00023683     0.00034528     0.00086976
H        -1.02049841     0.03683594    -0.54021302     0.00015628    -0.00048111    -0.00065484
     6
  Step:    11            Position(A)                                  Velocity(au)
C        -0.02899022     0.02716334     0.00608094    -0.00002154     0.00017254    -0.00086713
N        -0.04320858    -0.06005093     1.30389945    -0.00004264    -0.00012393     0.00075802
H         0.90412532    -0.02322170    -0.53385661     0.00029502    -0.00029251    -0.00047546
H         0.77988849    -0.11209758     1.84217135     0.00042590     0.00009009     0.00022859
H        -0.93154861    -0.05784867     1.93569667    -0.00007009     0.00034169     0.00071492
H        -1.01951230     0.03419573    -0.54387615     0.00019833    -0.00047315    -0.00066898
     6
  Step:    12            Position(A)                                  Velocity(au)
C        -0.02914360     0.02811832     0.00125603    -0.00003341     0.00017165    -0.00086900
N        -0.04351574    -0.06073481     1.30814036    -0.00006751    -0.00012255     0.00076796
H         0.90599646    -0.02484290    -0.53676490     0.00037721    -0.00029222    -0.00057039
H         0.78283253    -0.11163685     1.84385069     0.00063000     0.00007667     0.00037289
H        -0.93147685    -0.05596730     1.93922809     0.00009333     0.00033689     0.00056147
H        -1.01830305     0.03159854    -0.54761800     0.00023572    -0.00046372    -0.00068073
     6
  Step:    13            Position(A)                                  Velocity(au)
C        -0.02936078     0.02906710    -0.00355736    -0.00004425     0.00016965    -0.00086002
N        -0.04395734    -0.06141015     1.31241706    -0.00009043    -0.00012041     0.00076830
H         0.90830907    -0.02646280    -0.54018291     0.00045138    -0.00029082    -0.00065608
H         0.78687599    -0.11124724     1.84630712     0.00081591     0.00006438     0.00050467
H        -0.93051344    -0.05411217     1.94192404     0.00024893     0.00033097     0.00041323
H        -1.01689789     0.02905248    -0.55142633     0.00026774    -0.00045296    -0.00069038
     6
  Step:    14            Position(A)                                  Velocity(au)
C        -0.02963536     0.03000368    -0.00830141    -0.00005377     0.00016667    -0.00084144
N        -0.04452071    -0.06207289     1.31667853    -0.00011064    -0.00011762     0.00076012
H         0.91101263    -0.02807481    -0.54405598     0.00051514    -0.00028826    -0.00073103
H         0.79189972    -0.11092138     1.84945910     0.00097656     0.00005366     0.00061924
H        -0.92871045    -0.05228929     1.94382036     0.00039266     0.00032415     0.00027379
H        -1.01532760     0.02656480    -0.55529024     0.00029396    -0.00044113    -0.00069831
     6
  Step:    15            Position(A)                                  Velocity(au)
C        -0.02995945     0.03092265    -0.01292525    -0.00006178     0.00016284    -0.00081478
N        -0.04518917    -0.06271964     1.32087965    -0.00012757    -0.00011434     0.00074471
H         0.91404425    -0.02967205    -0.54832165     0.00056679    -0.00028457    -0.00079435
H         0.79774827    -0.11064981     1.85320125     0.00110686     0.00004481     0.00071329
H        -0.92614188    -0.05050335     1.94497215     0.00052107     0.00031677     0.00014628
H        -1.01362516     0.02414125    -0.55920076     0.00031420    -0.00042862    -0.00070503
     6
  Step:    16            Position(A)                                  Velocity(au)
C        -0.03032419     0.03181945    -0.01738646    -0.00006877     0.00016095    -0.00083879
N        -0.04594317    -0.06334781     1.32498229    -0.00014056    -0.00011320     0.00077021
H         0.91733258    -0.03124781    -0.55291325     0.00057787    -0.00025104    -0.00080280
H         0.80424155    -0.11042171     1.85741253     0.00118032     0.00000948     0.00075780
H        -0.92290037    -0.04875715     1.94545146     0.00064945     0.00033221     0.00000838
H        -1.01182411     0.02178549    -0.56315156     0.00036513    -0.00043558    -0.00067149
     6
  Step:    17            Position(A)                                  Velocity(au)
C        -0.03072722     0.03271959    -0.02228988    -0.00007463     0.00016087    -0.00091156
N        -0.04675847    -0.06398341     1.32947867    -0.00014921    -0.00011420     0.00083510
H         0.92049589    -0.03247482    -0.55728450     0.00054909    -0.00019771    -0.00075916
H         0.81092591    -0.11054399     1.86166173     0.00119655    -0.00004049     0.00075411
H        -0.91889116    -0.04679436     1.94506568     0.00077314     0.00035992    -0.00013768
H        -1.00954862     0.01927827    -0.56669762     0.00044410    -0.00045179    -0.00060001
     6
  Step:    18            Position(A)                                  Velocity(au)
C        -0.03115840     0.03361760    -0.02757528    -0.00007869     0.00015983    -0.00097279
N        -0.04761099    -0.06462426     1.33431655    -0.00015358    -0.00011475     0.00088987
H         0.92347001    -0.03345770    -0.56139861     0.00051062    -0.00015720    -0.00071024
H         0.81761586    -0.11087424     1.86584152     0.00118151    -0.00007222     0.00073289
H        -0.91425872    -0.04473419     1.94391260     0.00086907     0.00037293    -0.00026332
H        -1.00686025     0.01673566    -0.56985811     0.00051074    -0.00045349    -0.00053343
     6
  Step:    19            Position(A)                                  Velocity(au)
C        -0.03160768     0.03450794    -0.03317445    -0.00008100     0.00015789    -0.00102216
N        -0.04847692    -0.06526736     1.33943542    -0.00015380    -0.00011481     0.00093403
H         0.92620922    -0.03423368    -0.56523142     0.00046540    -0.00012182    -0.00065822
H         0.82414579    -0.11135210     1.86986203     0.00113919    -0.00009532     0.00069730
H        -0.90916712    -0.04262160     1.94211935     0.00093446     0.00038004    -0.00036469
H        -1.00383400     0.01420416    -0.57266616     0.00056332    -0.00044892    -0.00047384
     6
  Step:    20            Position(A)                                  Velocity(au)
C        -0.03206538     0.03538565    -0.03902126    -0.00008166     0.00015521    -0.00106054
N        -0.04933317    -0.06590991     1.34477562    -0.00015004    -0.00011446     0.00096819
H         0.92868147    -0.03482181    -0.56876927     0.00041577    -0.00008932    -0.00060493
H         0.83037233    -0.11194157     1.87364971     0.00107396    -0.00011298     0.00065038
H        -0.90379488    -0.04047860     1.93982890     0.00096736     0.00038436    -0.00043968
H        -1.00055229     0.01170877    -0.57516407     0.00060097    -0.00044098    -0.00042267
     6
  Step:    21            Position(A)                                  Velocity(au)
C        -0.03252244     0.03624667    -0.04505531    -0.00008079     0.00015194    -0.00108916
N        -0.05015779    -0.06654961     1.35028174    -0.00014257    -0.00011379     0.00099331
H         0.93086699    -0.03523432    -0.57200825     0.00036376    -0.00005874    -0.00055194
H         0.83617703    -0.11261782     1.87714805     0.00099026    -0.00012688     0.00059512
H        -0.89833010    -0.03831573     1.93719372     0.00096663     0.00038762    -0.00048722
H        -0.99710155     0.00926398    -0.57740124     0.00062323    -0.00043125    -0.00038097
     6
  Step:    22            Position(A)                                  Velocity(au)
C        -0.03297051     0.03708789    -0.05122351    -0.00007852     0.00014823    -0.00110929
N        -0.05093040    -0.06718477     1.35590411    -0.00013164    -0.00011291     0.00101041
H         0.93275680    -0.03547992    -0.57495288     0.00031107    -0.00002957    -0.00050052
H         0.84146659    -0.11336307     1.88031713     0.00089231    -0.00013807     0.00053427
H        -0.89296537    -0.03613590     1.93437036     0.00093175     0.00039099    -0.00050700
H        -0.99357000     0.00687735    -0.57943220     0.00062990    -0.00042069    -0.00034936
     6
  Step:    23            Position(A)                                  Velocity(au)
C        -0.03340192     0.03790697    -0.05748011    -0.00007495     0.00014419    -0.00112199
N        -0.05163230    -0.06781427     1.36159898    -0.00011756    -0.00011188     0.00102031
H         0.93435116    -0.03556548    -0.57761445     0.00025910    -0.00000148    -0.00045161
H         0.84617153    -0.11416430     1.88313218     0.00078389    -0.00014726     0.00047017
H        -0.88789382    -0.03393633     1.93151495     0.00086286     0.00039526    -0.00049938
H        -0.99004619     0.00455198    -0.58131428     0.00062095    -0.00040993    -0.00032811
     6
  Step:    24            Position(A)                                  Velocity(au)
C        -0.03380970     0.03870221    -0.06378527    -0.00007019     0.00013987    -0.00112800
N        -0.05224658    -0.06843742     1.36732748    -0.00010062    -0.00011076     0.00102364
H         0.93565769    -0.03549644    -0.58000905     0.00020900     0.00002575    -0.00040584
H         0.85024306    -0.11501181     1.88558119     0.00066834    -0.00015496     0.00040487
H        -0.88330480    -0.03171061     1.92877932     0.00076090     0.00040089    -0.00046540
H        -0.98661788     0.00228783    -0.58310572     0.00059646    -0.00039933    -0.00031717
     6
  Step:    25            Position(A)                                  Velocity(au)
C        -0.03418746     0.03947227    -0.07010348    -0.00006434     0.00013531    -0.00112782
N        -0.05275833    -0.06905374     1.37305444    -0.00008120    -0.00010954     0.00102083
H         0.93669007    -0.03527736    -0.58215614     0.00016175     0.00005222    -0.00036369
H         0.85365092    -0.11589843     1.88766304     0.00054874    -0.00016153     0.00034013
H        -0.87937863    -0.02944997     1.92630667     0.00062793     0.00040817    -0.00040693
H        -0.98337126     0.00008313    -0.58486369     0.00055674    -0.00038907    -0.00031617
     6
  Step:    26            Position(A)                                  Velocity(au)
C        -0.03452949     0.04021595    -0.07640196    -0.00005752     0.00013053    -0.00112179
N        -0.05315500    -0.06966284     1.37874729    -0.00005978    -0.00010824     0.00101224
H         0.93746720    -0.03491229    -0.58407755     0.00011824     0.00007799    -0.00032551
H         0.85638175    -0.11681879     1.88938618     0.00042803    -0.00016724     0.00027758
H        -0.87628026    -0.02714454     1.92422711     0.00046737     0.00041715    -0.00032672
H        -0.98038971    -0.00206466    -0.58664271     0.00050241    -0.00037923    -0.00032452
     6
  Step:    27            Position(A)                                  Velocity(au)
C        -0.03483077     0.04093215    -0.08264998    -0.00004987     0.00012552    -0.00111022
N        -0.05342689    -0.07026428     1.38437572    -0.00003691    -0.00010682     0.00099826
H         0.93801255    -0.03440510    -0.58579681     0.00007927     0.00010307    -0.00029161
H         0.85843824    -0.11776888     1.89076756     0.00030912    -0.00017229     0.00021870
H        -0.87415140    -0.02478443     1.92265252     0.00028418     0.00042775    -0.00022852
H        -0.97775205    -0.00415837    -0.58849327     0.00043454    -0.00036982    -0.00034136
     6
  Step:    28            Position(A)                                  Velocity(au)
C        -0.03508721     0.04161979    -0.08881850    -0.00004158     0.00012032    -0.00109349
N        -0.05356776    -0.07085755     1.38991172    -0.00001327    -0.00010529     0.00097939
H         0.93835374    -0.03375959    -0.58733891     0.00004554     0.00012741    -0.00026223
H         0.85983887    -0.11874570     1.89183211     0.00019482    -0.00017688     0.00016489
H        -0.87310204    -0.02236063     1.92167134     0.00008481     0.00043975    -0.00011696
H        -0.97552989    -0.00620071    -0.59046038     0.00035469    -0.00036084    -0.00036558
     6
  Step:    29            Position(A)                                  Velocity(au)
C        -0.03529579     0.04227793    -0.09488058    -0.00003285     0.00011495    -0.00107204
N        -0.05357534    -0.07144199     1.39533014     0.00001038    -0.00010363     0.00095621
H         0.93852189    -0.03297998    -0.58872987     0.00001762     0.00015092    -0.00023754
H         0.86061731    -0.11974725     1.89261184     0.00008784    -0.00018115     0.00011737
H        -0.87320283    -0.01986583     1.92134428    -0.00012314     0.00045279     0.00000270
H        -0.97378482    -0.00819439    -0.59258232     0.00026495    -0.00035230    -0.00039592
     6
  Step:    30            Position(A)                                  Velocity(au)
C        -0.03545473     0.04290579    -0.10081173    -0.00002394     0.00010945    -0.00104642
N        -0.05345167    -0.07201687     1.40060915     0.00003326    -0.00010181     0.00092942
H         0.93855086    -0.03207122    -0.58999635    -0.00000403     0.00017354    -0.00021766
H         0.86082154    -0.12077224     1.89314515    -0.00000930    -0.00018525     0.00007723
H        -0.87447965    -0.01729510     1.92170160    -0.00033142     0.00046643     0.00012493
H        -0.97256581    -0.01014197    -0.59488962     0.00016781    -0.00034415    -0.00043089
     6
  Step:    31            Position(A)                                  Velocity(au)
C        -0.03556366     0.04350272    -0.10659041    -0.00001509     0.00010385    -0.00101723
N        -0.05320316    -0.07258129     1.40573072     0.00005461    -0.00009982     0.00089976
H         0.93847681    -0.03103803    -0.59116556    -0.00001910     0.00019528    -0.00020264
H         0.86051325    -0.12182029     1.89347609    -0.00009431    -0.00018935     0.00004539
H        -0.87691159    -0.01464633     1.92274226    -0.00053173     0.00048014     0.00024423
H        -0.97190691    -0.01204561    -0.59740417     0.00006610    -0.00033636    -0.00046894
     6
  Step:    32            Position(A)                                  Velocity(au)
C        -0.03562363     0.04406825    -0.11219843    -0.00000656     0.00009819    -0.00098513
N        -0.05284042    -0.07313428     1.41068086     0.00007372    -0.00009765     0.00086797
H         0.93833710    -0.02988531    -0.59226463    -0.00002746     0.00021612    -0.00019242
H         0.85976586    -0.12289178     1.89365319    -0.00016530    -0.00019357     0.00002251
H        -0.88043173    -0.01192053     1.92443541    -0.00071624     0.00049337     0.00035559
H        -0.97182589    -0.01390717    -0.60013886    -0.00003722    -0.00032888    -0.00050847
     6
  Step:    33            Position(A)                                  Velocity(au)
C        -0.03563711     0.04460211    -0.11762102     0.00000141     0.00009249    -0.00095078
N        -0.05237775    -0.07367474     1.41544951     0.00008999    -0.00009529     0.00083479
H         0.93816930    -0.02861806    -0.59332015    -0.00002919     0.00023608    -0.00018688
H         0.85866237    -0.12398777     1.89372812    -0.00022082    -0.00019806     0.00000903
H        -0.88493140    -0.00912196     1.92672385    -0.00087818     0.00050560     0.00045479
H        -0.97232365    -0.01572806    -0.60309760    -0.00013916    -0.00032162    -0.00054793
     6
  Step:    34            Position(A)                                  Velocity(au)
C        -0.03560789     0.04510418    -0.12284704     0.00000859     0.00008681    -0.00091481
N        -0.05183249    -0.07420152     1.42003039     0.00010299    -0.00009272     0.00080085
H         0.93801019    -0.02724119    -0.59435768    -0.00002451     0.00025519    -0.00018578
H         0.85729275    -0.12511001     1.89375433    -0.00025988    -0.00020292     0.00000514
H        -0.89026727    -0.00625790     1.92952903    -0.00101221     0.00051631     0.00053858
H        -0.97338448    -0.01750924    -0.60627568    -0.00023688    -0.00031450    -0.00058587
     6
  Step:    35            Position(A)                                  Velocity(au)
C        -0.03554090     0.04557453    -0.12786873     0.00001480     0.00008115    -0.00087783
N        -0.05122410    -0.07471342     1.42442059     0.00011240    -0.00008995     0.00076671
H         0.93789477    -0.02575938    -0.59540123    -0.00001382     0.00027352    -0.00018881
H         0.85575123    -0.12626084     1.89378569    -0.00028202    -0.00020825     0.00001077
H        -0.89627019    -0.00333824     1.93275702    -0.00111464     0.00052512     0.00060480
H        -0.97497721    -0.01925114    -0.60966056    -0.00032780    -0.00030745    -0.00062101
     6
  Step:    36            Position(A)                                  Velocity(au)
C        -0.03544205     0.04601334    -0.13268155     0.00001990     0.00007555    -0.00084040
N        -0.05057330    -0.07520924     1.42862004     0.00011809    -0.00008697     0.00073286
H         0.93785540    -0.02417691    -0.59647291     0.00000234     0.00029116    -0.00019559
H         0.85413320    -0.12744307     1.89387497    -0.00028735    -0.00021413     0.00002560
H        -0.90275485    -0.00037489     1.93630469    -0.00118351     0.00053174     0.00065237
H        -0.97705690    -0.02095370    -0.61323294    -0.00040970    -0.00030039    -0.00065225
     6
  Step:    37            Position(A)                                  Velocity(au)
C        -0.03531793     0.04642092    -0.13728397     0.00002379     0.00007001    -0.00080300
N        -0.04990107    -0.07568783     1.43263106     0.00012010    -0.00008381     0.00069966
H         0.93792093    -0.02249739    -0.59759247     0.00002328     0.00030824    -0.00020570
H         0.85253201    -0.12865982     1.89407244    -0.00027648    -0.00022062     0.00004905
H        -0.90952940     0.00261901     1.94006567    -0.00121846     0.00053601     0.00068119
H        -0.97956725    -0.02261654    -0.61696793    -0.00048082    -0.00029325    -0.00067876
     6
  Step:    38            Position(A)                                  Velocity(au)
C        -0.03517556     0.04679763    -0.14167692     0.00002641     0.00006455    -0.00076604
N        -0.04922787    -0.07614810     1.43645783     0.00011859    -0.00008047     0.00066740
H         0.93811615    -0.02072395    -0.59877716     0.00004823     0.00032486    -0.00021866
H         0.85103597    -0.12991452     1.89442445    -0.00025059    -0.00022775     0.00008034
H        -0.91640427     0.00562967     1.94393554    -0.00122055     0.00053790     0.00069200
H        -0.98244312    -0.02423871    -0.62083660    -0.00053983    -0.00028593    -0.00069994
     6
  Step:    39            Position(A)                                  Velocity(au)
C        -0.03502213     0.04714388    -0.14586354     0.00002776     0.00005917    -0.00072985
N        -0.04857283    -0.07658911     1.44010589     0.00011384    -0.00007698     0.00063626
H         0.93846112    -0.01885901    -0.60004148     0.00007633     0.00034115    -0.00023399
H         0.84972537    -0.13121066     1.89497221    -0.00021133    -0.00023553     0.00011845
H        -0.92319950     0.00864349     1.94781604    -0.00119195     0.00053748     0.00068614
H        -0.98561327    -0.02581895    -0.62480725    -0.00058589    -0.00027840    -0.00071541
     6
  Step:    40            Position(A)                                  Velocity(au)
C        -0.03486473     0.04746011    -0.14984872     0.00002787     0.00005387    -0.00069470
N        -0.04795321    -0.07701004     1.44358177     0.00010623    -0.00007337     0.00060639
H         0.93897082    -0.01690421    -0.60139699     0.00010666     0.00035728    -0.00025115
H         0.84866984    -0.13255165     1.89575064    -0.00016076    -0.00024392     0.00016219
H        -0.92974997     0.01164759     1.95161797    -0.00113561     0.00053492     0.00066540
H        -0.98900303    -0.02735578    -0.62884671    -0.00061860    -0.00027061    -0.00072501
     6
  Step:    41            Position(A)                                  Velocity(au)
C        -0.03471017     0.04774679    -0.15363865     0.00002682     0.00004865    -0.00066077
N        -0.04738394    -0.07741028     1.44689265     0.00009617    -0.00006967     0.00057786
H         0.93965490    -0.01486037    -0.60285232     0.00013827     0.00037337    -0.00026962
H         0.84792615    -0.13394062     1.89678749    -0.00010131    -0.00025286     0.00021026
H        -0.93590927     0.01463032     1.95526318    -0.00105502     0.00053046     0.00063180
H        -0.99253668    -0.02884764    -0.63292156    -0.00063797    -0.00026256    -0.00072877
     6
  Step:    42            Position(A)                                  Velocity(au)
C        -0.03456471     0.04800433    -0.15724048     0.00002470     0.00004350    -0.00062819
N        -0.04687738    -0.07778938     1.45004601     0.00008415    -0.00006591     0.00055069
H         0.94051756    -0.01272755    -0.60441312     0.00017018     0.00038955    -0.00028889
H         0.84753654    -0.13538029     1.89810272    -0.00003565    -0.00026227     0.00026123
H        -0.94155196     0.01758161     1.95868563    -0.00095395     0.00052440     0.00058752
H        -0.99613964    -0.03029296    -0.63699906    -0.00064431    -0.00025426    -0.00072685
     6
  Step:    43            Position(A)                                  Velocity(au)
C        -0.03443402     0.04823318    -0.16066197     0.00002164     0.00003843    -0.00059702
N        -0.04644312    -0.07814711     1.45304946     0.00007065    -0.00006212     0.00052487
H         0.94155760    -0.01050508    -0.60608215     0.00020147     0.00040596    -0.00030844
H         0.84752762    -0.13687281     1.89970811     0.00003341    -0.00027202     0.00031364
H        -0.94657462     0.02049322     1.96183174    -0.00083625     0.00051706     0.00053471
H        -0.99974020    -0.03169027    -0.64104794    -0.00063825    -0.00024571    -0.00071957
     6
  Step:    44            Position(A)                                  Velocity(au)
C        -0.03432295     0.04843370    -0.16391118     0.00001777     0.00003342    -0.00056729
N        -0.04608798    -0.07848345     1.45591055     0.00005616    -0.00005834     0.00050038
H         0.94276863    -0.00819161    -0.60785942     0.00023121     0.00042270    -0.00032780
H         0.84790981    -0.13841964     1.90160709     0.00010298    -0.00028199     0.00036601
H        -0.95089560     0.02335886     1.96466004    -0.00070571     0.00050879     0.00047546
H        -1.00327094    -0.03303829    -0.64503902    -0.00062060    -0.00023695    -0.00070731
     6