     6
  Step:     0            Position(A)                                  Velocity(au)
C        -0.03584924     0.00783964     0.03732395    -0.00004412    -0.00002800     0.00006067
N        -0.04027075    -0.06037509     1.28274847    -0.00003389     0.00005121    -0.00011458
H         0.91279591     0.03228972    -0.51759578     0.00028504    -0.00004209    -0.00033716
H         0.79700388    -0.07719155     1.82147865     0.00021633    -0.00012985     0.00095054
H        -0.93774493    -0.01708456     1.86262297     0.00036078    -0.00029775    -0.00018458
H        -0.99819466     0.13778482    -0.54474269     0.00013457     0.00009160     0.00044052
     6
  Step:     1            Position(A)                                  Velocity(au)
C        -0.03611322     0.00768654     0.03721476    -0.00005184    -0.00002805    -0.00010072
N        -0.04051320    -0.06013102     1.28248479    -0.00005374     0.00003805     0.00001858
H         0.91462487     0.03219887    -0.51941509     0.00037977     0.00000857    -0.00032584
H         0.79875657    -0.07778337     1.82694000     0.00041417    -0.00008631     0.00103917
H        -0.93555133    -0.01859111     1.86136191     0.00043710    -0.00025320    -0.00027449
H        -0.99745495     0.13840607    -0.54215827     0.00013344     0.00013629     0.00050309
     6
  Step:     2            Position(A)                                  Velocity(au)
C        -0.03641609     0.00753288     0.03622256    -0.00005835    -0.00002833    -0.00026184
N        -0.04085840    -0.05995895     1.28295169    -0.00007131     0.00002485     0.00015217
H         0.91694892     0.03238343    -0.52115901     0.00046543     0.00005911    -0.00030996
H         0.80153301    -0.07813535     1.83284248     0.00058954    -0.00004168     0.00111213
H        -0.93296506    -0.01985344     1.85962129     0.00050349    -0.00020815    -0.00035885
H        -0.99673546     0.13927522    -0.53924115     0.00012773     0.00018281     0.00056218
     6
  Step:     3            Position(A)                                  Velocity(au)
C        -0.03675098     0.00737690     0.03435268    -0.00006352    -0.00002899    -0.00042134
N        -0.04129264    -0.05985937     1.28414810    -0.00008616     0.00001150     0.00028502
H         0.91971239     0.03284504    -0.52280318     0.00053964     0.00011032    -0.00028964
H         0.80520071    -0.07823901     1.83909651     0.00073920     0.00000496     0.00116779
H        -0.93004771    -0.02086636     1.85743942     0.00055704    -0.00016159    -0.00043458
H        -0.99605875     0.14040438    -0.53601317     0.00011836     0.00023181     0.00061646
     6
  Step:     4            Position(A)                                  Velocity(au)
C        -0.03711037     0.00721606     0.03161753    -0.00006723    -0.00003013    -0.00057755
N        -0.04180004    -0.05983326     1.28606678    -0.00009786    -0.00000205     0.00041569
H         0.92284688     0.03358921    -0.52432463     0.00059980     0.00016260    -0.00026526
H         0.80961210    -0.07808118     1.84560575     0.00086030     0.00005418     0.00120481
H        -0.92687691    -0.02161957     1.85487159     0.00059459    -0.00011281    -0.00049828
H        -0.99544184     0.14180878    -0.53250352     0.00010641     0.00028352     0.00066425
     6
  Step:     5            Position(A)                                  Velocity(au)
C        -0.03748605     0.00704746     0.02803834    -0.00006934    -0.00003176    -0.00072832
N        -0.04236254    -0.05988182     1.28869287    -0.00010600    -0.00001576     0.00054237
H         0.92626996     0.03462278    -0.52570331     0.00064316     0.00021571    -0.00023751
H         0.81460634    -0.07764670     1.85226869     0.00095025     0.00010585     0.00122219
H        -0.92354711    -0.02209967     1.85199175     0.00061293    -0.00006162    -0.00054632
H        -0.99489536     0.14350406    -0.52875099     0.00009301     0.00033748     0.00070340
     6
  Step:     6            Position(A)                                  Velocity(au)
C        -0.03786912     0.00686852     0.02364763    -0.00006969    -0.00003373    -0.00087092
N        -0.04296002    -0.06000576     1.29200185    -0.00011022    -0.00002943     0.00066275
H         0.92988484     0.03594964    -0.52692369     0.00066729     0.00026848    -0.00020739
H         0.82001045    -0.07692294     1.85897990     0.00100687     0.00015884     0.00121917
H        -0.92016978    -0.02229392     1.84889336     0.00060897    -0.00000872    -0.00057513
H        -0.99442400     0.14550172    -0.52480634     0.00007896     0.00039228     0.00073145
     6
  Step:     7            Position(A)                                  Velocity(au)
C        -0.03824989     0.00667773     0.01849297    -0.00006817    -0.00003581    -0.00100186
N        -0.04357051    -0.06020440     1.29595669    -0.00011020    -0.00004270     0.00077394
H         0.93358349     0.03756534    -0.52797630     0.00067082     0.00031891    -0.00017612
H         0.82564170    -0.07590580     1.86563094     0.00102878     0.00021103     0.00119530
H        -0.91687272    -0.02219526     1.84568822     0.00058001     0.00004439    -0.00058175
H        -0.99402990     0.14780354    -0.52073418     0.00006414     0.00044563     0.00074582
     6
  Step:     8            Position(A)                                  Velocity(au)
C        -0.03861801     0.00647512     0.01264140    -0.00006469    -0.00003772    -0.00111704
N        -0.04417067    -0.06047483     1.30050422    -0.00010581    -0.00005509     0.00087255
H         0.93725429     0.03945313    -0.52885846     0.00065411     0.00036463    -0.00014499
H         0.83131241    -0.07460463     1.87211123     0.00101587     0.00025975     0.00115052
H        -0.91379797    -0.02180621     1.84250243     0.00052406     0.00009582    -0.00056428
H        -0.99371935     0.15039731    -0.51661294     0.00004723     0.00049481     0.00074427
     6
  Step:     9            Position(A)                                  Velocity(au)
C        -0.03896281     0.00626202     0.00618296    -0.00005928    -0.00003928    -0.00121223
N        -0.04473654    -0.06081154     1.30557233    -0.00009709    -0.00006617     0.00095505
H         0.94079193     0.04158363    -0.52957413     0.00061930     0.00040359    -0.00011522
H         0.83683679    -0.07304331     1.87830987     0.00096968     0.00030258     0.00108551
H        -0.91109749    -0.02113935     1.83946977     0.00044054     0.00014386    -0.00052242
H        -0.99350937     0.15325645    -0.51253220     0.00002616     0.00053747     0.00072541
     6
  Step:    10            Position(A)                                  Velocity(au)
C        -0.03927382     0.00604053    -0.00076937    -0.00005207    -0.00004042    -0.00128392
N        -0.04524481    -0.06120684     1.31106985    -0.00008439    -0.00007558     0.00101850
H         0.94410550     0.04391801    -0.53013318     0.00056973     0.00043454    -0.00008784
H         0.84203987    -0.07125726     1.88412014     0.00089364     0.00033784     0.00100220
H        -0.90892435    -0.02021472     1.83672296     0.00033089     0.00018743    -0.00045765
H        -0.99342993     0.15634326    -0.50858776    -0.00000104     0.00057207     0.00068906
     6
  Step:    11            Position(A)                                  Velocity(au)
C        -0.03954146     0.00581284    -0.00808450    -0.00004335    -0.00004117    -0.00133027
N        -0.04567430    -0.06165145     1.31689038    -0.00006832    -0.00008316     0.00106129
H         0.94712305     0.04641247    -0.53055020     0.00050945     0.00045716    -0.00006362
H         0.84676732    -0.06928905     1.88944673     0.00079305     0.00036482     0.00090402
H        -0.90742051    -0.01905659     1.83438413     0.00019892     0.00022604    -0.00037327
H        -0.99352088     0.15961358    -0.50487511    -0.00003545     0.00059810     0.00063639
     6
  Step:    12            Position(A)                                  Velocity(au)
C        -0.03975788     0.00558087    -0.01562253    -0.00003353    -0.00004162    -0.00135183
N        -0.04600760    -0.06213539     1.32291970    -0.00004976    -0.00008892     0.00108374
H         0.94979383     0.04902251    -0.53084351     0.00044284     0.00047204    -0.00004329
H         0.85089477    -0.06718385     1.89421400     0.00067472     0.00038370     0.00079582
H        -0.90670328    -0.01769087     1.83255524     0.00005054     0.00025975    -0.00027407
H        -0.99382575     0.16302141    -0.50148211    -0.00007706     0.00061604     0.00056998
     6
  Step:    13            Position(A)                                  Velocity(au)
C        -0.03991754     0.00534602    -0.02324789    -0.00002307    -0.00004191    -0.00135187
N        -0.04623246    -0.06264888     1.32904663    -0.00002975    -0.00009307     0.00108845
H         0.95209039     0.05170729    -0.53103576     0.00037430     0.00048060    -0.00002748
H         0.85433560    -0.06498512     1.89837340     0.00054617     0.00039552     0.00068330
H        -0.90685356    -0.01614296     1.83130990    -0.00010714     0.00028912    -0.00016576
H        -0.99438530     0.16652369    -0.49848170    -0.00012498     0.00062735     0.00049341
     6
  Step:    14            Position(A)                                  Velocity(au)
C        -0.04001762     0.00510902    -0.03084405    -0.00001243    -0.00004219    -0.00133584
N        -0.04634258    -0.06318331     1.33517522    -0.00000929    -0.00009597     0.00107984
H         0.95400827     0.05443387    -0.53115296     0.00030771     0.00048493    -0.00001659
H         0.85704439    -0.06273040     1.90190770     0.00041458     0.00040200     0.00057209
H        -0.90790968    -0.01443547     1.83068887    -0.00026720     0.00031516    -0.00005393
H        -0.99523302     0.17008514    -0.49592653    -0.00017792     0.00063426     0.00041062
     6
  Step:    15            Position(A)                                  Velocity(au)
C        -0.04005784     0.00486982    -0.03832505    -0.00000311    -0.00006704    -0.00206027
N        -0.04633726    -0.06373209     1.34123435     0.00001702    -0.00015426     0.00167184
H         0.95556338     0.05718055    -0.53122298     0.00038692     0.00076647    -0.00001686
H         0.85901483    -0.06044793     1.90483034     0.00044944     0.00063711     0.00073411
H        -0.90986933    -0.01258591     1.83070124    -0.00066672     0.00053337     0.00008935
H        -0.99639342     0.17368232    -0.49384722    -0.00036895     0.00100537     0.00051124
     6
  Step:    16            Position(A)                                  Velocity(au)
C        -0.04004650     0.00448243    -0.04948403     0.00000416    -0.00004236    -0.00113586
N        -0.04618566    -0.06457469     1.35032730     0.00002164    -0.00008663     0.00092947
H         0.95781583     0.06142460    -0.53162970     0.00024828     0.00044329    -0.00007583
H         0.86119471    -0.05695209     1.90869155     0.00019610     0.00036149     0.00038321
H        -0.91406081    -0.00966460     1.83157017    -0.00048796     0.00030157     0.00012903
H        -0.99887592     0.17934579    -0.49155842    -0.00030672     0.00060217     0.00018222
     6
  Step:    17            Position(A)                                  Velocity(au)
C        -0.03999473     0.00424078    -0.05581184     0.00001377    -0.00004325    -0.00110272
N        -0.04600959    -0.06506928     1.35551644     0.00003986    -0.00008829     0.00090623
H         0.95906232     0.06393921    -0.53205539     0.00019596     0.00044691    -0.00007662
H         0.86195884    -0.05490644     1.91059367     0.00007909     0.00036206     0.00029479
H        -0.91723341    -0.00788907     1.83259741    -0.00062781     0.00032634     0.00023031
H        -1.00077743     0.18276231    -0.49076977    -0.00036522     0.00060693     0.00009826
     6
  Step:    18            Position(A)                                  Velocity(au)
C        -0.03989091     0.00399387    -0.06194110     0.00002270    -0.00004461    -0.00107585
N        -0.04573541    -0.06557211     1.36056472     0.00005666    -0.00009039     0.00088811
H         0.96002953     0.06647323    -0.53249530     0.00015101     0.00045444    -0.00008154
H         0.86208818    -0.05286197     1.91202168    -0.00002781     0.00036456     0.00021785
H        -0.92115295    -0.00597805     1.83417187    -0.00075723     0.00035270     0.00032459
H        -1.00300166     0.18620208    -0.49044841    -0.00042384     0.00061591     0.00001754
     6
  Step:    19            Position(A)                                  Velocity(au)
C        -0.03973949     0.00373922    -0.06790798     0.00003082    -0.00004630    -0.00105253
N        -0.04537254    -0.06608558     1.36550173     0.00007169    -0.00009273     0.00087293
H         0.96076015     0.06904862    -0.53297218     0.00011276     0.00046491    -0.00009033
H         0.86164619    -0.05080760     1.91304299    -0.00012397     0.00036822     0.00015163
H        -0.92574720    -0.00392351     1.83624693    -0.00087198     0.00037992     0.00041024
H        -1.00554285     0.18968724    -0.49057256    -0.00048033     0.00062723    -0.00006014
     6
  Step:    20            Position(A)                                  Velocity(au)
C        -0.03954556     0.00347515    -0.07373352     0.00003796    -0.00004816    -0.00103015
N        -0.04493220    -0.06661108     1.37034497     0.00008451    -0.00009511     0.00085859
H         0.96129293     0.07168202    -0.53350733     0.00008088     0.00047729    -0.00010271
H         0.86069928    -0.04873642     1.91372055    -0.00020801     0.00037227     0.00009599
H        -0.93092255    -0.00172151     1.83876820    -0.00096742     0.00040702     0.00048526
H        -1.00838319     0.19322956    -0.49112225    -0.00053209     0.00063893    -0.00013453
     6
  Step:    21            Position(A)                                  Velocity(au)
C        -0.03931515     0.00320081    -0.07942436     0.00004391    -0.00005007    -0.00100686
N        -0.04442780    -0.06714882     1.37510021     0.00009469    -0.00009734     0.00084354
H         0.96166432     0.07438436    -0.53412041     0.00005524     0.00049074    -0.00011837
H         0.85932083    -0.04664585     1.91411605    -0.00027816     0.00037610     0.00005119
H        -0.93656231     0.00062667     1.84167185    -0.00103948     0.00043311     0.00054781
H        -1.01149127     0.19683004    -0.49207649    -0.00057668     0.00064934    -0.00020498
     6
  Step:    22            Position(A)                                  Velocity(au)
C        -0.03905525     0.00291605    -0.08497681     0.00004850    -0.00005191    -0.00098155
N        -0.04387480    -0.06769807     1.37976453     0.00010191    -0.00009932     0.00082681
H         0.96190978     0.07716196    -0.53482919     0.00003582     0.00050467    -0.00013697
H         0.85759316    -0.04453666     1.91429223    -0.00033268     0.00037930     0.00001771
H        -0.94253010     0.00311487     1.84488547    -0.00108524     0.00045746     0.00059654
H        -1.01482283     0.20048063    -0.49341122    -0.00061201     0.00065723    -0.00027074
     6
  Step:    23            Position(A)                                  Velocity(au)
C        -0.03877371     0.00262132    -0.09038111     0.00005162    -0.00005362    -0.00095376
N        -0.04329024    -0.06825745     1.38432965     0.00010595    -0.00010096     0.00080795
H         0.96206420     0.08001790    -0.53564932     0.00002257     0.00051874    -0.00015809
H         0.85560721    -0.04241178     1.91431370    -0.00037018     0.00038171    -0.00000410
H        -0.94867657     0.00573316     1.84833088    -0.00110326     0.00047959     0.00063079
H        -1.01832293     0.20416654    -0.49509864    -0.00063652     0.00066173    -0.00033108
     6
  Step:    24            Position(A)                                  Velocity(au)
C        -0.03847896     0.00231746    -0.09562478     0.00005319    -0.00005513    -0.00092347
N        -0.04269196    -0.06882516     1.38878463     0.00010676    -0.00010224     0.00078685
H         0.96216171     0.08295333    -0.53659410     0.00001529     0.00053278    -0.00018130
H         0.85346038    -0.04027522     1.91424640    -0.00038982     0.00038324    -0.00001410
H        -0.95484719     0.00846907     1.85192777    -0.00109352     0.00049922     0.00065059
H        -1.02192910     0.20786837    -0.49710750    -0.00064928     0.00066233    -0.00038549
     6
  Step:    25            Position(A)                                  Velocity(au)
C        -0.03817964     0.00200561    -0.10069518     0.00005321    -0.00005642    -0.00089097
N        -0.04209790    -0.06939931     1.39311790     0.00010441    -0.00010317     0.00076369
H         0.96223501     0.08596844    -0.53767424     0.00001368     0.00054677    -0.00020615
H         0.85125332    -0.03813138     1.91415618    -0.00039145     0.00038396    -0.00001247
H        -0.96088989     0.01130889     1.85559723    -0.00105727     0.00051633     0.00065660
H        -1.02557462     0.21156402    -0.49940413    -0.00064991     0.00065879    -0.00043368
     6
  Step:    26            Position(A)                                  Velocity(au)
C        -0.03788433     0.00168703    -0.10558117     0.00005173    -0.00005747    -0.00085675
N        -0.04152523    -0.06997803     1.39731872     0.00009912    -0.00010378     0.00073880
H         0.96231457     0.08906339    -0.53889775     0.00001724     0.00056084    -0.00023216
H         0.84908607    -0.03598451     1.91410701    -0.00037557     0.00038396     0.00000026
H        -0.96666195     0.01423893     1.85926516    -0.00099688     0.00053108     0.00065003
H        -1.02919173     0.21523023    -0.50195373    -0.00063860     0.00065111    -0.00047562
     6
  Step:    27            Position(A)                                  Velocity(au)
C        -0.03760122     0.00136301    -0.11027417     0.00004886    -0.00005831    -0.00082138
N        -0.04098973    -0.07055963     1.40137809     0.00009119    -0.00010413     0.00071259
H         0.96242778     0.09223893    -0.54026989     0.00002537     0.00057518    -0.00025887
H         0.84705424    -0.03383849     1.91415907    -0.00034338     0.00038333     0.00002324
H        -0.97203555     0.01724667     1.86286495    -0.00091542     0.00054382     0.00063243
H        -1.03271454     0.21884381    -0.50472180    -0.00061596     0.00063944    -0.00051154
     6
  Step:    28            Position(A)                                  Velocity(au)
C        -0.03733783     0.00103482    -0.11476861     0.00004472    -0.00005894    -0.00078543
N        -0.04050525    -0.07114272     1.40528925     0.00008102    -0.00010427     0.00068551
H         0.96259830     0.09549699    -0.54179325     0.00003734     0.00059009    -0.00028583
H         0.84524528    -0.03169683     1.91436696    -0.00029665     0.00038214     0.00005532
H        -0.97690125     0.02032172     1.86633913    -0.00081641     0.00055503     0.00060557
H        -1.03608146     0.22238255    -0.50767549    -0.00058296     0.00062403    -0.00054190
     6
  Step:    29            Position(A)                                  Velocity(au)
C        -0.03710091     0.00070357    -0.11906193     0.00003946    -0.00005939    -0.00074942
N        -0.04008328    -0.07172625     1.40904788     0.00006904    -0.00010427     0.00065799
H         0.96284561     0.09884109    -0.54346789     0.00005242     0.00060589    -0.00031263
H         0.84373519    -0.02956297     1.91477803    -0.00023766     0.00038036     0.00009511
H        -0.98116994     0.02345656     1.86964030    -0.00070353     0.00056530     0.00057126
H        -1.03923698     0.22582568    -0.51078478    -0.00054080     0.00060516    -0.00056730
     6
  Step:    30            Position(A)                                  Velocity(au)
C        -0.03689627     0.00037023    -0.12315431     0.00003325    -0.00005970    -0.00071376
N        -0.03973276    -0.07230949     1.41265192     0.00005571    -0.00010419     0.00063040
H         0.96318482     0.10227666    -0.54529146     0.00006981     0.00062297    -0.00033887
H         0.84258592    -0.02744071     1.91543117    -0.00016907     0.00037787     0.00014104
H        -0.98477344     0.02664718     1.87273131    -0.00058042     0.00057531     0.00053130
H        -1.04213276     0.22915399    -0.51402334    -0.00049078     0.00058308    -0.00058848
     6
  Step:    31            Position(A)                                  Velocity(au)
C        -0.03672884     0.00003556    -0.12704807     0.00002625    -0.00005991    -0.00067875
N        -0.03945992    -0.07289199     1.41610127     0.00004152    -0.00010406     0.00060300
H         0.96362675     0.10581136    -0.54725940     0.00008881     0.00064175    -0.00036417
H         0.84184355    -0.02533500     1.91635607    -0.00009375     0.00037437     0.00019146
H        -0.98766413     0.02989358     1.87558491    -0.00045058     0.00058581     0.00048736
H        -1.04472821     0.23234964    -0.51736917    -0.00043427     0.00055797    -0.00060626
     6
  Step:    32            Position(A)                                  Velocity(au)
C        -0.03660266    -0.00029989    -0.13074695     0.00001858    -0.00006004    -0.00064450
N        -0.03926826    -0.07347356     1.41939730     0.00002695    -0.00010393     0.00057598
H         0.96417832     0.10945549    -0.54936513     0.00010879     0.00066277    -0.00038819
H         0.84153721    -0.02325291     1.91757287    -0.00001474     0.00036934     0.00024469
H        -0.98981380     0.03320025     1.87818309    -0.00031730     0.00059766     0.00044098
H        -1.04699064     0.23539556    -0.52080512    -0.00037265     0.00052986    -0.00062155
     6
  Step:    33            Position(A)                                  Velocity(au)
C        -0.03652106    -0.00063581    -0.13425510     0.00001037    -0.00006015    -0.00061096
N        -0.03915856    -0.07405414     1.42254204     0.00001247    -0.00010379     0.00054933
H         0.96484326     0.11322262    -0.55160023     0.00012929     0.00068670    -0.00041063
H         0.84167868    -0.02120496     1.91909231     0.00006490     0.00036197     0.00029913
H        -0.99121225     0.03657680     1.88051606    -0.00018360     0.00061185     0.00039349
H        -1.04889534     0.23827469    -0.52431950    -0.00030734     0.00049863    -0.00063539
     6
  Step:    34            Position(A)                                  Velocity(au)
C        -0.03648680    -0.00097224    -0.13757579     0.00000167    -0.00006032    -0.00057780
N        -0.03912892    -0.07463370     1.42553725    -0.00000145    -0.00010365     0.00052288
H         0.96562342     0.11713082    -0.55395487     0.00015019     0.00071452    -0.00043131
H         0.84226258    -0.01920706     1.92091634     0.00014218     0.00035104     0.00035332
H        -0.99186590     0.04003896     1.88258122    -0.00005230     0.00062958     0.00034607
H        -1.05042584     0.24096883    -0.52790701    -0.00023985     0.00046391    -0.00064909
     6
  Step:    35            Position(A)                                  Velocity(au)
C        -0.03650236    -0.00130964    -0.14070987    -0.00000748    -0.00006064    -0.00054431
N        -0.03917477    -0.07521203     1.42838327    -0.00001432    -0.00010343     0.00049618
H         0.96652112     0.12120480    -0.55641860     0.00017200     0.00074779    -0.00045031
H         0.84326705    -0.01728339     1.92303935     0.00021427     0.00033460     0.00040608
H        -0.99179655     0.04361007     1.88438210     0.00007390     0.00065244     0.00029970
H        -1.05157480     0.24345715    -0.53157069    -0.00017204     0.00042503    -0.00066450
     6
  Step:    36            Position(A)                                  Velocity(au)
C        -0.03657033    -0.00164928    -0.14365303    -0.00001718    -0.00006133    -0.00050900
N        -0.03928879    -0.07578850     1.43107708    -0.00002562    -0.00010300     0.00046821
H         0.96754376     0.12547994    -0.55898260     0.00019650     0.00078903    -0.00046849
H         0.84465495    -0.01547121     1.92545019     0.00027859     0.00030963     0.00045672
H        -0.99104080     0.04732353     1.88592741     0.00019232     0.00068245     0.00025527
H        -1.05234664     0.24571427    -0.53532614    -0.00010667     0.00038107    -0.00068470
     6
  Step:    37            Position(A)                                  Velocity(au)
C        -0.03669402    -0.00199404    -0.14638951    -0.00002755    -0.00006289    -0.00046829
N        -0.03946068    -0.07636136     1.43360781    -0.00003483    -0.00010201     0.00043649
H         0.96871381     0.13000917    -0.56164630     0.00022831     0.00084186    -0.00048922
H         0.84637573    -0.01382841     1.92813572     0.00033308     0.00027190     0.00050536
H        -0.98965049     0.05122522     1.88723055     0.00030001     0.00072120     0.00021381
H        -1.05276511     0.24770932    -0.53921094    -0.00004911     0.00033195    -0.00071539
     6
  Step:    38            Position(A)                                  Velocity(au)
C        -0.03687751    -0.00235062    -0.14887533    -0.00003830    -0.00006625    -0.00041518
N        -0.03967724    -0.07692607     1.43594473    -0.00004174    -0.00009975     0.00039606
H         0.97008987     0.13486824    -0.56443827     0.00027518     0.00090716    -0.00052162
H         0.84836944    -0.01243898     1.93108591     0.00037701     0.00022041     0.00055237
H        -0.98769515     0.05536624     1.88831180     0.00039376     0.00076442     0.00017755
H        -1.05289431     0.24941609    -0.54330401    -0.00000954     0.00028358    -0.00076473
     6
  Step:    39            Position(A)                                  Velocity(au)
C        -0.03712088    -0.00273241    -0.15101673    -0.00004798    -0.00007206    -0.00034499
N        -0.03992586    -0.07747307     1.43802188    -0.00004708    -0.00009574     0.00034360
H         0.97178074     0.14011961    -0.56745977     0.00033838     0.00097432    -0.00057583
H         0.85057756    -0.01137197     1.93429198     0.00041131     0.00016682     0.00059569
H        -0.98526201     0.05974476     1.88920935     0.00047221     0.00079663     0.00015010
H        -1.05287146     0.25086989    -0.54773397     0.00000398     0.00025134    -0.00083381
     6
  Step:    40            Position(A)                                  Velocity(au)
C        -0.03741187    -0.00315325    -0.15271786    -0.00005505    -0.00007965    -0.00026298
N        -0.04020158    -0.07799243     1.43977177    -0.00005182    -0.00009047     0.00028283
H         0.97385883     0.14572030    -0.57085195     0.00040568     0.00102871    -0.00064936
H         0.85295070    -0.01058093     1.93772084     0.00043617     0.00012682     0.00063075
H        -0.98243563     0.06423925     1.88998364     0.00053697     0.00080569     0.00013318
H        -1.05285001     0.25221557    -0.55259116    -0.00000272     0.00024502    -0.00091125
     6
  Step:    41            Position(A)                                  Velocity(au)
C        -0.03773368    -0.00361895    -0.15394393    -0.00005932    -0.00008783    -0.00017791
N        -0.04050262    -0.07848008     1.44117009    -0.00005609    -0.00008478     0.00021995
H         0.97629631     0.15157016    -0.57468782     0.00046348     0.00106599    -0.00073075
H         0.85543259    -0.00996033     1.94131284     0.00044995     0.00010443     0.00065437
H        -0.97928505     0.06871285     1.89069174     0.00058995     0.00079387     0.00012552
H        -1.05290172     0.25359722    -0.55787711    -0.00001704     0.00026035    -0.00098565
     6
  Step:    42            Position(A)                                  Velocity(au)
C        -0.03807169    -0.00413025    -0.15469687    -0.00006108    -0.00009595    -0.00009437
N        -0.04082557    -0.07893547     1.44221842    -0.00005966    -0.00007910     0.00015815
H         0.97901447     0.15757823    -0.57898063     0.00050522     0.00108766    -0.00081210
H         0.85795586    -0.00941927     1.94499997     0.00045115     0.00009717     0.00066550
H        -0.97587315     0.07307015     1.89137985     0.00063184     0.00076695     0.00012564
H        -1.05303951     0.25511166    -0.56355539    -0.00003121     0.00029073    -0.00105220
     6
  Step:    43            Position(A)                                  Velocity(au)
C        -0.03841274    -0.00468563    -0.15499308    -0.00006919    -0.00011866    -0.00001671
N        -0.04116591    -0.07935941     1.44292825    -0.00007153    -0.00008430     0.00011329
H         0.98191280     0.16366163    -0.58371585     0.00060362     0.00125194    -0.00101850
H         0.86044797    -0.00888005     1.94871118     0.00050297     0.00011958     0.00075957
H        -0.97226096     0.07723902     1.89208845     0.00075903     0.00083232     0.00015215
H        -1.05324865     0.25682920    -0.56957438    -0.00004714     0.00038159    -0.00126839
     6
  Step:    44            Position(A)                                  Velocity(au)
C        -0.03879872    -0.00533493    -0.15507738    -0.00007050    -0.00011535    -0.00001151
N        -0.04156560    -0.07983392     1.44354131    -0.00007043    -0.00008632     0.00010577
H         0.98504833     0.17058451    -0.58927028     0.00052488     0.00125018    -0.00097670
H         0.86315339    -0.00817898     1.95287033     0.00046184     0.00012036     0.00073514
H        -0.96793841     0.08190005     1.89290837     0.00078871     0.00085711     0.00014409
H        -1.05325850     0.25887527    -0.57651383     0.00004334     0.00034631    -0.00123515
     6