     6
  Step:   300            Position(A)                                  Velocity(au)
C        -0.03489383     0.00087218     0.02453152     0.00001323    -0.00000107    -0.00004741
N        -0.04523584    -0.04430565     1.29419017     0.00002265    -0.00000488     0.00003262
H         0.90913441    -0.12101419    -0.51239613    -0.00002205    -0.00099172     0.00021928
H         0.79201791     0.07095300     1.86952924    -0.00005984     0.00111369    -0.00015973
H        -0.91996002    -0.20545820     1.80057703    -0.00022200    -0.00098224    -0.00068585
H        -0.94971960     0.19106307    -0.54248699    -0.00016848     0.00094083     0.00073788
