     6
  Step:     0            Position(A)                                  Velocity(au)
C        -0.03726940     0.00127343     0.00169582    -0.00011575    -0.00009853    -0.00012622
N        -0.03453990    -0.04637305     1.30734642    -0.00001747     0.00007361     0.00015382
H         0.93381840     0.06956596    -0.55431897     0.00114734     0.00041183    -0.00066726
H         0.78363839    -0.14082469     1.87461876     0.00044985    -0.00034457     0.00017994
H        -1.00544925    -0.04837337     1.87857570    -0.00009632    -0.00025089    -0.00006956
H        -1.00086282     0.07909592    -0.49438761     0.00012122     0.00033480    -0.00007658
     6
  Step:     1            Position(A)                                  Velocity(au)
C        -0.03788097     0.00073866     0.00068119    -0.00010696    -0.00009708    -0.00024423
N        -0.03472228    -0.04598229     1.30848099    -0.00004868     0.00006935     0.00026046
H         0.93992976     0.07184956    -0.55789156     0.00107832     0.00042250    -0.00063411
H         0.78656991    -0.14271660     1.87586251     0.00061552    -0.00034702     0.00027063
H        -1.00523876    -0.04971321     1.87777230     0.00017227    -0.00023907    -0.00022294
H        -1.00029402     0.08098624    -0.49493115     0.00008499     0.00035669    -0.00012285
     6
  Step:     2            Position(A)                                  Velocity(au)
C        -0.03843925     0.00021162    -0.00097533    -0.00009639    -0.00009572    -0.00036045
N        -0.03507235    -0.04561455     1.31019518    -0.00007853     0.00006521     0.00036539
H         0.94561220     0.07418694    -0.56125433     0.00099191     0.00043149    -0.00059144
H         0.79037047    -0.14462008     1.87757866     0.00076597    -0.00034869     0.00035160
H        -1.00356509    -0.05098810     1.87613730     0.00043665    -0.00022729    -0.00037236
H        -0.99993331     0.08299711    -0.49573126     0.00004536     0.00037883    -0.00017028
     6
  Step:     3            Position(A)                                  Velocity(au)
C        -0.03893517    -0.00030813    -0.00326080    -0.00008423    -0.00009437    -0.00047347
N        -0.03558107    -0.04526910     1.31247707    -0.00010638     0.00006117     0.00046739
H         0.95077767     0.07656849    -0.56435976     0.00089005     0.00043839    -0.00054051
H         0.79494688    -0.14653004     1.87970769     0.00089731    -0.00034902     0.00042051
H        -1.00046344    -0.05219893     1.87369999     0.00069180    -0.00021562    -0.00051465
H        -0.99979790     0.08512923    -0.49679344     0.00000283     0.00040073    -0.00021843
     6
  Step:     4            Position(A)                                  Velocity(au)
C        -0.03936062    -0.00082068    -0.00615475    -0.00007065    -0.00009295    -0.00058162
N        -0.03623608    -0.04494544     1.31530809    -0.00013157     0.00005717     0.00056494
H         0.95534861     0.07898257    -0.56716713     0.00077470     0.00044276    -0.00048257
H         0.80018635    -0.14843808     1.88217868     0.00100588    -0.00034732     0.00047535
H        -0.99599728    -0.05334677     1.87050743     0.00093165    -0.00020405    -0.00064603
H        -0.99990230     0.08738079    -0.49812076    -0.00004199     0.00042185    -0.00026673
     6
  Step:     5            Position(A)                                  Velocity(au)
C        -0.03970856    -0.00132569    -0.00962778    -0.00005590    -0.00009140    -0.00068298
N        -0.03702134    -0.04464331     1.31866146    -0.00015334     0.00005316     0.00065624
H         0.95925818     0.08141537    -0.56964245     0.00064804     0.00044418    -0.00041894
H         0.80595815    -0.15033211     1.88491127     0.00108843    -0.00034289     0.00051453
H        -0.99026476    -0.05443263     1.86662802     0.00114887    -0.00019257    -0.00076207
H        -1.00025759     0.08974717    -0.49971331    -0.00008834     0.00044158    -0.00031448
     6
  Step:     6            Position(A)                                  Velocity(au)
C        -0.03997324    -0.00182239    -0.01364031    -0.00004025    -0.00008960    -0.00077542
N        -0.03791675    -0.04436276     1.32250062    -0.00017092     0.00004911     0.00073924
H         0.96245125     0.08385087    -0.57175882     0.00051262     0.00044223    -0.00035110
H         0.81211576    -0.15219623     1.88781806     0.00114228    -0.00033507     0.00053700
H        -0.98340543    -0.05545733     1.86215503     0.00133515    -0.00018115    -0.00085787
H        -1.00087054     0.09222059    -0.50156750    -0.00013524     0.00045927    -0.00036086
     6
  Step:     7            Position(A)                                  Velocity(au)
C        -0.04015050    -0.00230950    -0.01814162    -0.00002407    -0.00008749    -0.00085679
N        -0.03889797    -0.04410412     1.32677810    -0.00018353     0.00004497     0.00081182
H         0.96488657     0.08627097    -0.57349737     0.00037148     0.00043660    -0.00028074
H         0.81850004    -0.15401107     1.89080732     0.00116562    -0.00032332     0.00054233
H        -0.97560524    -0.05642159     1.85720887     0.00148171    -0.00016982    -0.00092842
H        -1.00174251     0.09478977    -0.50367543    -0.00018152     0.00047424    -0.00040497
     6
  Step:     8            Position(A)                                  Velocity(au)
C        -0.04023815    -0.00278531    -0.02306973    -0.00000778    -0.00008501    -0.00092511
N        -0.03993661    -0.04386787     1.33143515    -0.00019050     0.00004073     0.00087198
H         0.96653959     0.08865591    -0.57484847     0.00022820     0.00042710    -0.00020980
H         0.82494400    -0.15575452     1.89378665     0.00115782    -0.00030732     0.00053090
H        -0.96709842    -0.05732629     1.85193733     0.00157984    -0.00015867    -0.00096891
H        -1.00286831     0.09743978    -0.50602436    -0.00022585     0.00048585    -0.00044583
     6
  Step:     9            Position(A)                                  Velocity(au)
C        -0.04023634    -0.00324773    -0.02835231     0.00000816    -0.00008210    -0.00097881
N        -0.04100059    -0.04365460     1.33640238    -0.00019132     0.00003640     0.00091807
H         0.96740525     0.09098498    -0.57581299     0.00008675     0.00041374    -0.00014040
H         0.83127919    -0.15740302     1.89666695     0.00111969    -0.00028704     0.00050390
H        -0.95816815    -0.05817287     1.84651475     0.00162179    -0.00014787    -0.00097535
H        -1.00423526     0.10015221    -0.50859620    -0.00026677     0.00049359    -0.00048247
     6
  Step:    10            Position(A)                                  Velocity(au)
C        -0.04014783    -0.00369446    -0.03390892     0.00002324    -0.00007878    -0.00101701
N        -0.04205523    -0.04346477     1.34160178    -0.00018576     0.00003203     0.00094913
H         0.96750022     0.09323765    -0.57640320    -0.00004873     0.00039682    -0.00007468
H         0.83734330    -0.15893314     1.89936673     0.00105364    -0.00026277     0.00046334
H        -0.94913893    -0.05896376     1.84113645     0.00160246    -0.00013766    -0.00094544
H        -1.00582249     0.10290574    -0.51136721    -0.00030285     0.00049716    -0.00051394
     6
  Step:    11            Position(A)                                  Velocity(au)
C        -0.03997803    -0.00412321    -0.03965476     0.00003703    -0.00007510    -0.00103984
N        -0.04306508    -0.04329861     1.34695049    -0.00017402     0.00002769     0.00096516
H         0.96686373     0.09539507    -0.57664299    -0.00017429     0.00037694    -0.00001470
H         0.84298871    -0.16032328     1.90181630     0.00096367    -0.00023513     0.00041199
H        -0.94035932    -0.05970276     1.83600763     0.00152050    -0.00012835    -0.00087921
H        -1.00760095     0.10567742    -0.51430789    -0.00033283     0.00049661    -0.00053950
     6
  Step:    12            Position(A)                                  Velocity(au)
C        -0.03973481    -0.00453200    -0.04550622     0.00008308    -0.00012026    -0.00177198
N        -0.04399611    -0.04315595     1.35236619    -0.00026473     0.00003963     0.00163464
H         0.96555634     0.09744167    -0.57656710    -0.00048446     0.00059986     0.00006399
H         0.84809111    -0.16155553     1.90396161     0.00144503    -0.00034643     0.00059665
H        -0.93218083    -0.06039527     1.83133059     0.00232981    -0.00020323    -0.00131656
H        -1.00953451     0.10844439    -0.51738426    -0.00060148     0.00083203    -0.00094460
     6
  Step:    13            Position(A)                                  Velocity(au)
C        -0.03924604    -0.00520715    -0.05508073     0.00008842    -0.00011812    -0.00160573
N        -0.04540511    -0.04293554     1.36123869    -0.00022944     0.00003822     0.00149390
H         0.96283965     0.10079849    -0.57638654    -0.00046684     0.00058570    -0.00000329
H         0.85579820    -0.16345891     1.90713115     0.00126860    -0.00032439     0.00051901
H        -0.91977066    -0.06150772     1.82438760     0.00201159    -0.00019077    -0.00111239
H        -1.01317901     0.11308550    -0.52299616    -0.00067848     0.00080585    -0.00102901
     6
  Step:    14            Position(A)                                  Velocity(au)
C        -0.03873180    -0.00587204    -0.06372211     0.00009123    -0.00011558    -0.00143150
N        -0.04659895    -0.04272232     1.36931339    -0.00018774     0.00003677     0.00134262
H         0.96026038     0.10408607    -0.57660442    -0.00043325     0.00057045    -0.00007513
H         0.86248250    -0.16523550     1.90984936     0.00107696    -0.00029941     0.00043491
H        -0.90936073    -0.06255945     1.81871126     0.00161579    -0.00018021    -0.00086620
H        -1.01723140     0.11758617    -0.52905771    -0.00073772     0.00077546    -0.00109325
     6
  Step:    15            Position(A)                                  Velocity(au)
C        -0.03820648    -0.00652417    -0.07139217     0.00003219    -0.00003961    -0.00044127
N        -0.04754431    -0.04251654     1.37653738    -0.00004984     0.00001242     0.00041709
H         0.95790291     0.10729853    -0.57724268    -0.00013606     0.00019501    -0.00005234
H         0.86806982    -0.16687061     1.91208674     0.00030875    -0.00009590     0.00012249
H        -0.90135928    -0.06356112     1.81451761     0.00040949    -0.00006034    -0.00020817
H        -1.02158505     0.12192164    -0.53545333    -0.00027323     0.00026069    -0.00039970
     6
  Step:    16            Position(A)                                  Velocity(au)
C        -0.03801073    -0.00673907    -0.07388547     0.00003680    -0.00003681    -0.00044362
N        -0.04771868    -0.04245583     1.37885620    -0.00001254     0.00000927     0.00040605
H         0.95694724     0.10834714    -0.57746389    -0.00019919     0.00017807    -0.00002834
H         0.86939002    -0.16731128     1.91257848     0.00016319    -0.00006139     0.00005412
H        -0.90013471    -0.06391304     1.81399312     0.00002888    -0.00006498     0.00001923
H        -1.02308350     0.12338267    -0.53771210    -0.00025710     0.00025813    -0.00040149
     6
  Step:    17            Position(A)                                  Velocity(au)
C        -0.03779217    -0.00693858    -0.07638654     0.00004083    -0.00003460    -0.00045000
N        -0.04768552    -0.04241219     1.38110883     0.00002354     0.00000643     0.00039911
H         0.95566038     0.10930331    -0.57756174    -0.00025679     0.00016435    -0.00000878
H         0.86990712    -0.16756178     1.91269610     0.00002538    -0.00002889    -0.00000970
H        -0.90103411    -0.06429274     1.81473414    -0.00034197    -0.00007094     0.00024065
H        -1.02447952     0.12482770    -0.53997348    -0.00024022     0.00025844    -0.00040609
     6
  Step:    18            Position(A)                                  Velocity(au)
C        -0.03755415    -0.00712597    -0.07891753     0.00004417    -0.00003279    -0.00045870
N        -0.04745549    -0.04238395     1.38331916     0.00005779     0.00000380     0.00039491
H         0.95407567     0.11018499    -0.57756206    -0.00030831     0.00015290     0.00000644
H         0.86967380    -0.16763434     1.91247000    -0.00010463     0.00000209    -0.00006865
H        -0.90395881    -0.06470629     1.81668422    -0.00069496    -0.00007763     0.00045232
H        -1.02576973     0.12627261    -0.54225311    -0.00022155     0.00026058    -0.00041203
     6
  Step:    19            Position(A)                                  Velocity(au)
C        -0.03730064    -0.00730347    -0.08149119     0.00004668    -0.00003124    -0.00046830
N        -0.04704236    -0.04236993     1.38550361     0.00008934     0.00000132     0.00039249
H         0.95222939     0.11100488    -0.57749011    -0.00035269     0.00014307     0.00001714
H         0.86874275    -0.16753855     1.91193215    -0.00022529     0.00003164    -0.00012172
H        -0.90876792    -0.06515666     1.81976777    -0.00101933    -0.00008453     0.00064891
H        -1.02694504     0.12772752    -0.54455873    -0.00020040     0.00026373    -0.00041816
     6
  Step:    20            Position(A)                                  Velocity(au)
C        -0.03703633    -0.00747252    -0.08411241     0.00004824    -0.00002987    -0.00047774
N        -0.04646446    -0.04236930     1.38767303     0.00011719    -0.00000103     0.00039119
H         0.95016331     0.11177211    -0.57737187    -0.00038877     0.00013447     0.00002307
H         0.86717468    -0.16728340     1.91111975    -0.00033416     0.00005960    -0.00016754
H        -0.91526625    -0.06564398     1.82388257    -0.00130398    -0.00009116     0.00082480
H        -1.02799272     0.12919813    -0.54689171    -0.00017643     0.00026732    -0.00042366
     6
  Step:    21            Position(A)                                  Velocity(au)
C        -0.03676654    -0.00763414    -0.08678029     0.00004877    -0.00002862    -0.00048626
N        -0.04574496    -0.04238135     1.38983450     0.00014044    -0.00000326     0.00039060
H         0.94792532     0.11249362    -0.57723475    -0.00041547     0.00012687     0.00002391
H         0.86504322    -0.16687869     1.91007729    -0.00042843     0.00008570    -0.00020459
H        -0.92320438    -0.06616592     1.82889922    -0.00153921    -0.00009715     0.00097508
H        -1.02889837     0.13068705    -0.54924906    -0.00014965     0.00027099    -0.00042802
     6
  Step:    22            Position(A)                                  Velocity(au)
C        -0.03649699    -0.00778902    -0.08948981     0.00004821    -0.00002747    -0.00049335
N        -0.04491138    -0.04240541     1.39199257     0.00015838    -0.00000538     0.00039043
H         0.94556881     0.11317507    -0.57710748    -0.00043191     0.00012012     0.00001945
H         0.86243687    -0.16633569     1.90885722    -0.00050526     0.00010960    -0.00023142
H        -0.93228783    -0.06671829     1.83466560    -0.00171786    -0.00010221     0.00109608
H        -1.02964769     0.13219488    -0.55162505    -0.00012028     0.00027450    -0.00043097
     6
  Step:    23            Position(A)                                  Velocity(au)
C        -0.03623368    -0.00793772    -0.09223311     0.00004654    -0.00002639    -0.00049863
N        -0.04399448    -0.04244077     1.39414987     0.00017052    -0.00000735     0.00039043
H         0.94315157     0.11382131    -0.57701982    -0.00043747     0.00011416     0.00000956
H         0.85945865    -0.16566735     1.90751950    -0.00056215     0.00013097    -0.00024674
H        -0.94219150    -0.06729557     1.84101389    -0.00183585    -0.00010616     0.00118569
H        -1.03022774     0.13372101    -0.55401242    -0.00008869     0.00027772    -0.00043237
     6
  Step:    24            Position(A)                                  Velocity(au)
C        -0.03598264    -0.00808069    -0.09500037     0.00004378    -0.00002539    -0.00050189
N        -0.04302691    -0.04248668     1.39630738     0.00017667    -0.00000918     0.00039037
H         0.94073414     0.11443668    -0.57700185    -0.00043186     0.00010891    -0.00000575
H         0.85622429    -0.16488824     1.90613041    -0.00059708     0.00014957    -0.00024959
H        -0.95257667    -0.06789153     1.84776919    -0.00189237    -0.00010894     0.00124345
H        -1.03062789     0.13526412    -0.55640334    -0.00005544     0.00028061    -0.00043224
     6
  Step:    25            Position(A)                                  Velocity(au)
C        -0.03574973    -0.00821835    -0.09778059     0.00007470    -0.00004567    -0.00093947
N        -0.04204175    -0.04254228     1.39846466     0.00033034    -0.00002026     0.00072846
H         0.93837808     0.11502511    -0.57708332    -0.00077533     0.00019484    -0.00004913
H         0.85285896    -0.16401412     1.90476071    -0.00113696     0.00030857    -0.00044713
H        -0.96310821    -0.06849971     1.85475804    -0.00352887    -0.00020648     0.00237257
H        -1.03084054     0.13682265    -0.55879008    -0.00003947     0.00052886    -0.00080440
     6
  Step:    26            Position(A)                                  Velocity(au)
C        -0.03534726    -0.00849323    -0.10270712     0.00006907    -0.00005319    -0.00083251
N        -0.04023000    -0.04264492     1.40230355     0.00031647    -0.00001654     0.00065309
H         0.93442510     0.11624027    -0.57772871    -0.00063878     0.00024326    -0.00018464
H         0.84662252    -0.16237900     1.90237565    -0.00108493     0.00027626    -0.00039811
H        -0.98247362    -0.06962729     1.86787991    -0.00338942    -0.00019754     0.00232175
H        -1.03125827     0.13980178    -0.56352327    -0.00010763     0.00054169    -0.00089432
     6
  Step:    27            Position(A)                                  Velocity(au)
C        -0.03498128    -0.00881015    -0.10704297     0.00006129    -0.00006037    -0.00072281
N        -0.03852080    -0.04272629     1.40573084     0.00029234    -0.00001253     0.00057668
H         0.93127110     0.11773154    -0.57913760    -0.00048725     0.00029199    -0.00032033
H         0.84078826    -0.16094046     1.90033140    -0.00098740     0.00023659    -0.00032347
H        -1.00081833    -0.07069747     1.88058943    -0.00315065    -0.00018487     0.00221471
H        -1.03203798     0.14284938    -0.56874012    -0.00016746     0.00054980    -0.00097161
     6
  Step:    28            Position(A)                                  Velocity(au)
C        -0.03466319    -0.00916704    -0.11077491     0.00005183    -0.00006719    -0.00061368
N        -0.03696700    -0.04278481     1.40874029     0.00026045    -0.00000832     0.00050108
H         0.92898657     0.11949939    -0.58130418    -0.00032829     0.00034058    -0.00045294
H         0.83560147    -0.15973826     1.89876524    -0.00085158     0.00019111    -0.00022732
H        -1.01764015    -0.07169074     1.89259977    -0.00284015    -0.00016948     0.00206668
H        -1.03312741     0.14593842    -0.57436808    -0.00021689     0.00055402    -0.00103682
     6
  Step:    29            Position(A)                                  Velocity(au)
C        -0.03440147    -0.00956169    -0.11390765     0.00004121    -0.00007367    -0.00050759
N        -0.03560743    -0.04281938     1.41133588     0.00022314    -0.00000398     0.00042766
H         0.92759886     0.12154126    -0.58420425    -0.00016873     0.00038872    -0.00058010
H         0.83126243    -0.15880267     1.89778862    -0.00068595     0.00014145    -0.00011441
H        -1.03258837    -0.07259332     1.90370735    -0.00248242    -0.00015233     0.00189132
H        -1.03446411     0.14904662    -0.58033806    -0.00025479     0.00055533    -0.00109124
     6
  Step:    30            Position(A)                                  Velocity(au)
C        -0.03420164    -0.00999203    -0.11645922     0.00002991    -0.00007986    -0.00040605
N        -0.03446817    -0.04282940     1.41352950     0.00018241     0.00000042     0.00035731
H         0.92709706     0.12385257    -0.58780055    -0.00001427     0.00043622    -0.00070023
H         0.82791974    -0.15815424     1.89748395    -0.00049941     0.00008914     0.00001028
H        -1.04543998    -0.07339668     1.91378007    -0.00209684    -0.00013423     0.00169955
H        -1.03598070     0.15215739    -0.58658858    -0.00028077     0.00055469    -0.00113645
     6
  Step:    31            Position(A)                                  Velocity(au)
C        -0.03406646    -0.01045625    -0.11845576     0.00001834    -0.00008582    -0.00030977
N        -0.03356422    -0.04281467     1.41533810     0.00013991     0.00000483     0.00029046
H         0.92743901     0.12642734    -0.59204748     0.00013054     0.00048287    -0.00081231
H         0.82566858    -0.15780427     1.89790379    -0.00030077     0.00003560     0.00014182
H        -1.05607488    -0.07409678     1.92274388    -0.00169758    -0.00011579     0.00149936
H        -1.03760901     0.15525968    -0.59306730    -0.00029494     0.00055289    -0.00117391
     6
  Step:    32            Position(A)                                  Velocity(au)
C        -0.03399632    -0.01095282    -0.11992712     0.00000686    -0.00009158    -0.00021888
N        -0.03290190    -0.04277534     1.41678119     0.00009687     0.00000919     0.00022719
H         0.92855843     0.12925835    -0.59689434     0.00026217     0.00052840    -0.00091558
H         0.82455263    -0.15775575     1.89907163    -0.00009844    -0.00001788     0.00027537
H        -1.06444441    -0.07469295     1.93056535    -0.00129398    -0.00009748     0.00129594
H        -1.03928255     0.15834705    -0.59973048    -0.00029764     0.00055050    -0.00120476
     6
  Step:    33            Position(A)                                  Velocity(au)
C        -0.03398970    -0.01148041    -0.12090360    -0.00000423    -0.00009713    -0.00013312
N        -0.03248088    -0.04271191     1.41787898     0.00005427     0.00001345     0.00016742
H         0.93037107     0.13233685    -0.60228702     0.00037790     0.00057243    -0.00100936
H         0.82456767    -0.15800428     1.90098342     0.00009966    -0.00007011     0.00040625
H        -1.07054640    -0.07518694     1.93723729    -0.00089198    -0.00007961     0.00109249
H        -1.04093773     0.16141634    -0.60654095    -0.00028933     0.00054786    -0.00122970
     6
  Step:    34            Position(A)                                  Velocity(au)
C        -0.03404353    -0.01203776    -0.12141401    -0.00001469    -0.00010248    -0.00005211
N        -0.03229574    -0.04262514     1.41865125     0.00001289     0.00001755     0.00011098
H         0.93277942     0.13565218    -0.60816851     0.00047561     0.00061448    -0.00109295
H         0.82566577    -0.15853885     1.90360925     0.00028616    -0.00011997     0.00052997
H        -1.07440747    -0.07558213     1.94276807    -0.00049538    -0.00006239     0.00089088
H        -1.04251428     0.16446645    -0.61346583    -0.00027052     0.00054512    -0.00124907
     6
  Step:    35            Position(A)                                  Velocity(au)
C        -0.03415353    -0.01262357    -0.12148492    -0.00002432    -0.00010758     0.00002454
N        -0.03233707    -0.04251610     1.41911691    -0.00002660     0.00002145     0.00005767
H         0.93567650     0.13919131    -0.61447886     0.00055375     0.00065400    -0.00116562
H         0.82775976    -0.15934259     1.90689525     0.00045440    -0.00016646     0.00064236
H        -1.07607236    -0.07588294     1.94717501    -0.00010692    -0.00004598     0.00069226
H        -1.04395535     0.16749714    -0.62047430    -0.00024174     0.00054229    -0.00126288
     6
  Step:    36            Position(A)                                  Velocity(au)
C        -0.03431449    -0.01323636    -0.12114059    -0.00003297    -0.00011239     0.00009718
N        -0.03259212    -0.04238614     1.41929382    -0.00006364     0.00002509     0.00000737
H         0.93894888     0.14293860    -0.62115499     0.00061125     0.00069044    -0.00122661
H         0.83072840    -0.16039342     1.91076592     0.00059863    -0.00020865     0.00073962
H        -1.07559871    -0.07609445     1.95048075     0.00027102    -0.00003048     0.00049751
H        -1.04520756     0.17050823    -0.62753588    -0.00020358     0.00053926    -0.00127093
     6
  Step:    37            Position(A)                                  Velocity(au)
C        -0.03452050    -0.01387444    -0.12040336    -0.00004053    -0.00011685     0.00016603
N        -0.03304539    -0.04223684     1.41919894    -0.00009772     0.00002842    -0.00004004
H         0.94247946     0.14687565    -0.62813054     0.00064751     0.00072321    -0.00127517
H         0.83442227    -0.16166480     1.91512697     0.00071417    -0.00024577     0.00081855
H        -1.07305600    -0.07622215     1.95271213     0.00063590    -0.00001595     0.00030753
H        -1.04622108     0.17349896    -0.63461925    -0.00015665     0.00053587    -0.00127289
     6
  Step:    38            Position(A)                                  Velocity(au)
C        -0.03476517    -0.01453580    -0.11929423    -0.00004690    -0.00012089     0.00023120
N        -0.03367889    -0.04207003     1.41884853    -0.00012839     0.00003141    -0.00008463
H         0.94614967     0.15098129    -0.63533587     0.00066241     0.00075179    -0.00131066
H         0.83867052    -0.16312653     1.91986884     0.00079765    -0.00027718     0.00087664
H        -1.06852705    -0.07627186     1.95390071     0.00098469    -0.00000247     0.00012345
H        -1.04694964     0.17646750    -0.64169135    -0.00010165     0.00053187    -0.00126836
     6
  Step:    39            Position(A)                                  Velocity(au)
C        -0.03504184    -0.01521809    -0.11783353    -0.00005207    -0.00012444     0.00029271
N        -0.03447246    -0.04188772     1.41825825    -0.00015524     0.00003402    -0.00012646
H         0.94984214     0.15523178    -0.64269855     0.00065633     0.00077568    -0.00133256
H         0.84328817    -0.16474570     1.92487078     0.00084708    -0.00030246     0.00091215
H        -1.06211120    -0.07624965     1.95408430     0.00131371     0.00000989    -0.00005322
H        -1.04735093     0.17941075    -0.64871705    -0.00003938     0.00052704    -0.00125695
     6
  Step:    40            Position(A)                                  Velocity(au)
C        -0.03534376    -0.01591867    -0.11604152    -0.00005600    -0.00012745     0.00035045
N        -0.03540402    -0.04169202     1.41744326    -0.00017792     0.00003622    -0.00016556
H         0.95344318     0.15960109    -0.65014405     0.00063015     0.00079449    -0.00134057
H         0.84808369    -0.16648760     1.93000517     0.00086183    -0.00032132     0.00092421
H        -1.05392835    -0.07616193     1.95330930     0.00161860     0.00002107    -0.00022055
H        -1.04738724     0.18232424    -0.65565924     0.00002923     0.00052112    -0.00123834
     6
  Step:    41            Position(A)                                  Velocity(au)
C        -0.03566422    -0.01663455    -0.11393888    -0.00005874    -0.00012987     0.00040428
N        -0.03644976    -0.04148513     1.41641831    -0.00019612     0.00003803    -0.00020199
H         0.95684519     0.16406130    -0.65759677     0.00058520     0.00080795    -0.00133463
H         0.85286604    -0.16831670     1.93514185     0.00084266    -0.00033372     0.00091277
H        -1.04412315    -0.07601549     1.95163322     0.00189436     0.00003097    -0.00037619
H        -1.04702607     0.18520218    -0.66247921     0.00010312     0.00051393    -0.00121236
     6
  Step:    42            Position(A)                                  Velocity(au)
C        -0.03599678    -0.01736249    -0.11154708    -0.00006033    -0.00013166     0.00045400
N        -0.03758434    -0.04126926     1.41519766    -0.00020959     0.00003943    -0.00023583
H         0.95994901     0.16858320    -0.66498140     0.00052321     0.00081587    -0.00131495
H         0.85745168    -0.17019766     1.94015261     0.00079150    -0.00033977     0.00087860
H        -1.03286830    -0.07581764     1.94912710     0.00213560     0.00003949    -0.00051741
H        -1.04624087     0.18803767    -0.66913733     0.00018110     0.00050529    -0.00117898
     6
  Step:    43            Position(A)                                  Velocity(au)
C        -0.03633527    -0.01809906    -0.10888864    -0.00006083    -0.00013278     0.00049944
N        -0.03878121    -0.04104651     1.41379498    -0.00021814     0.00004046    -0.00026719
H         0.96266531     0.17313682    -0.67222396     0.00044618     0.00081823    -0.00128201
H         0.86167057    -0.17209625     1.94491521     0.00071138    -0.00033978     0.00082321
H        -1.02036714    -0.07557626     1.94587768     0.00233673     0.00004650    -0.00064120
H        -1.04501151     0.19082292    -0.67559391     0.00026194     0.00049512    -0.00113838
     6
  Step:    44            Position(A)                                  Velocity(au)
C        -0.03667395    -0.01884072    -0.10598707    -0.00006034    -0.00013326     0.00054043
N        -0.04001284    -0.04081889     1.41222318    -0.00022165     0.00004113    -0.00029623
H         0.96491620     0.17769222    -0.67925348     0.00035640     0.00081518    -0.00123664
H         0.86537121    -0.17398024     1.94931703     0.00060617    -0.00033421     0.00074875
H        -1.00685448    -0.07529994     1.94198888     0.00249221     0.00005190    -0.00074439
H        -1.04332480     0.19354967    -0.68181040     0.00034434     0.00048342    -0.00109097
     6