     6
  Step:     0            Position(A)                                  Velocity(au)
C        -0.04429349     0.02571247     0.03900633    -0.00010981     0.00008187    -0.00026095
N        -0.04265189    -0.05550036     1.28455429     0.00019327    -0.00011176     0.00023523
H         0.90667789    -0.03398238    -0.52122848     0.00057113    -0.00003018     0.00006333
H         0.83909106    -0.14510202     1.82918148    -0.00112266     0.00034291    -0.00124023
H        -0.91179787    -0.04905707     1.80805320    -0.00145124     0.00056504     0.00096915
H        -0.92639914     0.02322448    -0.53938482     0.00062542    -0.00030035     0.00004847
     6
  Step:     1            Position(A)                                  Velocity(au)
C        -0.04484386     0.02622120     0.03714634    -0.00009049     0.00010404    -0.00041748
N        -0.04157949    -0.05611847     1.28621766     0.00019577    -0.00011395     0.00037158
H         0.90993576    -0.03430268    -0.52084662     0.00061233    -0.00008614     0.00007795
H         0.83296548    -0.14338171     1.82235586    -0.00109688     0.00028324    -0.00124061
H        -0.92003371    -0.04609757     1.81350918    -0.00153665     0.00051677     0.00101358
H        -0.92364038     0.02139192    -0.53934773     0.00037894    -0.00037012    -0.00003975
     6
  Step:     2            Position(A)                                  Velocity(au)
C        -0.04528371     0.02685098     0.03443781    -0.00006956     0.00012571    -0.00056937
N        -0.04050964    -0.05674736     1.28862052     0.00019192    -0.00011544     0.00050377
H         0.91337855    -0.03492506    -0.52037545     0.00063714    -0.00013995     0.00009518
H         0.82708796    -0.14200258     1.81560548    -0.00102873     0.00021811    -0.00120896
H        -0.92861336    -0.04340212     1.81914480    -0.00157431     0.00046760     0.00103363
H        -0.92225242     0.01917425    -0.53981979     0.00012777    -0.00043962    -0.00013567
     6
  Step:     3            Position(A)                                  Velocity(au)
C        -0.04560587     0.02759835     0.03090917    -0.00004767     0.00014634    -0.00071410
N        -0.03947715    -0.05738309     1.29173618     0.00018161    -0.00011611     0.00062916
H         0.91691534    -0.03583571    -0.51980394     0.00064503    -0.00019030     0.00011360
H         0.82169624    -0.14099245     1.80911227    -0.00091608     0.00014877    -0.00114254
H        -0.93727959    -0.04097524     1.82483209    -0.00156469     0.00041771     0.00103041
H        -0.92224072     0.01657606    -0.54083396    -0.00012001    -0.00050660    -0.00023520
     6
  Step:     4            Position(A)                                  Velocity(au)
C        -0.04580670     0.02845661     0.02660291    -0.00002549     0.00016526    -0.00084853
N        -0.03851711    -0.05802126     1.29552349     0.00016492    -0.00011587     0.00074469
H         0.92045560    -0.03701302    -0.51912904     0.00063672    -0.00023572     0.00013171
H         0.81703695    -0.14037037     1.80306989    -0.00075858     0.00007713    -0.00104035
H        -0.94578071    -0.03881915     1.83045013    -0.00150944     0.00036766     0.00100526
H        -0.92356912     0.01361595    -0.54240035    -0.00035690    -0.00056827    -0.00033390
     6
  Step:     5            Position(A)                                  Velocity(au)
C        -0.04588614     0.02941545     0.02157929    -0.00000372     0.00018180    -0.00096901
N        -0.03766375    -0.05865708     1.29992430     0.00014224    -0.00011462     0.00084700
H         0.92391636    -0.03842759    -0.51835578     0.00061416    -0.00027495     0.00014802
H         0.81335540    -0.14014441     1.79767322    -0.00055848     0.00000528    -0.00090383
H        -0.95387645    -0.03693270     1.83588528    -0.00141165     0.00031804     0.00095978
H        -0.92616502     0.01032771    -0.54450528    -0.00057640    -0.00062198    -0.00042737
     6
  Step:     6            Position(A)                                  Velocity(au)
C        -0.04584774     0.03046121     0.01591856     0.00001695     0.00019542    -0.00107187
N        -0.03694876    -0.05928510     1.30486257     0.00011431    -0.00011226     0.00093292
H         0.92722734    -0.04004462    -0.51749692     0.00058002    -0.00030725     0.00016118
H         0.81087915    -0.14031220     1.79310421    -0.00032158    -0.00006490    -0.00073723
H        -0.96134562    -0.03531246     1.84103272    -0.00127613     0.00026922     0.00089613
H        -0.92992453     0.00675791    -0.54711259    -0.00077284    -0.00066576    -0.00051171
     6
  Step:     7            Position(A)                                  Velocity(au)
C        -0.04569859     0.03157758     0.00972040     0.00003587     0.00020574    -0.00115404
N        -0.03639911    -0.05989914     1.31024586     0.00008228    -0.00010870     0.00099997
H         0.93033352    -0.04182687    -0.51657254     0.00053736    -0.00033243     0.00016994
H         0.80979754    -0.14086244     1.78951668    -0.00005755    -0.00013176    -0.00054758
H        -0.96799517    -0.03395411     1.84579981    -0.00110944     0.00022144     0.00081725
H        -0.93471553     0.00296190    -0.55016668    -0.00094135    -0.00069843    -0.00058379
     6
  Step:     8            Position(A)                                  Velocity(au)
C        -0.04544929     0.03274645     0.00310010     0.00005245     0.00021259    -0.00121370
N        -0.03603481    -0.06049245     1.31596961     0.00004770    -0.00010392     0.00104689
H         0.93319596    -0.04373706    -0.51560931     0.00048933    -0.00035077     0.00017334
H         0.81023997    -0.14177569     1.78702205     0.00022060    -0.00019382    -0.00034409
H        -0.97366866    -0.03285287     1.85011025    -0.00091967     0.00017491     0.00072693
H        -0.94038056    -0.00099984    -0.55359697    -0.00107815    -0.00071961    -0.00064153
     6
  Step:     9            Position(A)                                  Velocity(au)
C        -0.04511356     0.03394903    -0.00381832     0.00006622     0.00021609    -0.00125079
N        -0.03586702    -0.06105831     1.32192379     0.00001229    -0.00009804     0.00107403
H         0.93579199    -0.04573967    -0.51463895     0.00043913    -0.00036295     0.00017081
H         0.81225826    -0.14302452     1.78567843     0.00049798    -0.00024983    -0.00013716
H        -0.97825397    -0.03200297     1.85390864    -0.00071594     0.00012999     0.00062969
H        -0.94674220    -0.00506532    -0.55732289    -0.00118115    -0.00072980    -0.00068393
     6
  Step:    10            Position(A)                                  Velocity(au)
C        -0.04470745     0.03516717    -0.01091157     0.00007698     0.00021665    -0.00126736
N        -0.03589714    -0.06159076     1.32800119    -0.00002225    -0.00009135     0.00108353
H         0.93811521    -0.04780295    -0.51369589     0.00038979    -0.00037010     0.00016228
H         0.81581851    -0.14457428     1.78548555     0.00076023    -0.00029889     0.00006311
H        -0.98168874    -0.03139666     1.85716421    -0.00050761     0.00008710     0.00053042
H        -0.95361202    -0.00917521    -0.56125848    -0.00125049    -0.00073039    -0.00071092
     6
  Step:    11            Position(A)                                  Velocity(au)
C        -0.04424806     0.03638502    -0.01806837     0.00008474     0.00021495    -0.00126740
N        -0.03611724    -0.06208540     1.33410684    -0.00005451    -0.00008419     0.00107911
H         0.94017481    -0.04990108    -0.51281431     0.00034402    -0.00037371     0.00014818
H         0.82080621    -0.14638521     1.78638806     0.00099575    -0.00034075     0.00024851
H        -0.98396148    -0.03102365     1.85987268    -0.00030318     0.00004659     0.00043384
H        -0.96080263    -0.01327780    -0.56531644    -0.00128895    -0.00072363    -0.00072377
     6
  Step:    12            Position(A)                                  Velocity(au)
C        -0.04375215     0.03759048    -0.02520001     0.00008976     0.00021182    -0.00125602
N        -0.03651163    -0.06253988     1.34016687    -0.00008347    -0.00007695     0.00106539
H         0.94199366    -0.05201614    -0.51202537     0.00030386    -0.00037546     0.00012925
H         0.82704444    -0.14841581     1.78828721     0.00119713    -0.00037575     0.00041371
H        -0.98510674    -0.03087145     1.86205524    -0.00010923     0.00000860     0.00034387
H        -0.96814350    -0.01733334    -0.56941813    -0.00130140    -0.00071215    -0.00072504
     6
  Step:    13            Position(A)                                  Velocity(au)
C        -0.04323491     0.03877601    -0.03224599     0.00014491     0.00032625    -0.00194170
N        -0.03705946    -0.06295403     1.34613270    -0.00017032    -0.00010971     0.00164151
H         0.94360475    -0.05413920    -0.51135538     0.00042435    -0.00059108     0.00016668
H         0.83431908    -0.15062661     1.79105785     0.00213407    -0.00063458     0.00087236
H        -0.98519444    -0.03092661     1.86375419     0.00010973    -0.00004237     0.00041289
H        -0.97549244    -0.02131634    -0.57350048    -0.00202820    -0.00109518    -0.00112551
     6
  Step:    14            Position(A)                                  Velocity(au)
C        -0.04243710     0.04057145    -0.04275655     0.00013455     0.00030508    -0.00175400
N        -0.03806988    -0.06354731     1.35504863    -0.00018195    -0.00009903     0.00149326
H         0.94620081    -0.05742115    -0.51081933     0.00048801    -0.00056379     0.00002457
H         0.84665070    -0.15418878     1.79635178     0.00216996    -0.00061535     0.00096933
H        -0.98413282    -0.03114668     1.86587732     0.00025169    -0.00003479     0.00034110
H        -0.98694793    -0.02740256    -0.58010790    -0.00198458    -0.00104535    -0.00118510
     6
  Step:    15            Position(A)                                  Velocity(au)
C        -0.04170297     0.04224948    -0.05221627     0.00012276     0.00028503    -0.00157348
N        -0.03913111    -0.06408149     1.36313434    -0.00018826    -0.00008900     0.00135057
H         0.94916107    -0.06055832    -0.51107564     0.00055056    -0.00053989    -0.00011087
H         0.85902533    -0.15763278     1.80209422     0.00215096    -0.00059309     0.00103147
H        -0.98232880    -0.03132267     1.86763785     0.00037021    -0.00002680     0.00028532
H        -0.99808808    -0.03321827    -0.58699359    -0.00191850    -0.00099986    -0.00122426
     6
  Step:    16            Position(A)                                  Velocity(au)
C        -0.04103949     0.04381651    -0.06067081     0.00011050     0.00026739    -0.00140838
N        -0.04021322    -0.06456062     1.37042509    -0.00019041    -0.00008011     0.00122040
H         0.95246904    -0.06356789    -0.51208158     0.00061162    -0.00052120    -0.00023930
H         0.87113969    -0.16094115     1.80809516     0.00209165    -0.00057066     0.00106734
H        -0.97991796    -0.03145184     1.86912575     0.00046707    -0.00001836     0.00024623
H        -1.00879030    -0.03878612    -0.59404623    -0.00184111    -0.00096276    -0.00125099
     6
  Step:    17            Position(A)                                  Velocity(au)
C        -0.04044815     0.04528588    -0.06820944     0.00009813     0.00025209    -0.00125863
N        -0.04129338    -0.06499125     1.37699285    -0.00018890    -0.00007236     0.00110262
H         0.95610646    -0.06647695    -0.51379304     0.00066918    -0.00050715    -0.00036093
H         0.88277752    -0.16411300     1.81421470     0.00199808    -0.00054843     0.00108159
H        -0.97702483    -0.03153120     1.87043400     0.00054330    -0.00000926     0.00022300
H        -1.01899523    -0.04415116    -0.60119955    -0.00175497    -0.00093370    -0.00126817
     6
  Step:    18            Position(A)                                  Velocity(au)
C        -0.03992850     0.04667051    -0.07491997     0.00008578     0.00023857    -0.00112139
N        -0.04235179    -0.06537978     1.38290807    -0.00018385    -0.00006556     0.00099472
H         0.96004491    -0.06930944    -0.51616768     0.00072027    -0.00049624    -0.00047538
H         0.89376026    -0.16715000     1.82034000     0.00187249    -0.00052576     0.00107643
H        -0.97376717    -0.03155673     1.87165038     0.00059888     0.00000069     0.00021440
H        -1.02865863    -0.04935666    -0.60840342    -0.00165904    -0.00091058    -0.00127588
     6
  Step:    19            Position(A)                                  Velocity(au)
C        -0.03947945     0.04798014    -0.08087375     0.00007354     0.00022627    -0.00099408
N        -0.04336961    -0.06573159     1.38822664    -0.00017536    -0.00005955     0.00089436
H         0.96424076    -0.07208115    -0.51916173     0.00076200    -0.00048701    -0.00058186
H         0.90392425    -0.17005056     1.82637118     0.00171721    -0.00050204     0.00105359
H        -0.97026143    -0.03152341     1.87285533     0.00063363     0.00001163     0.00021921
H        -1.03773138    -0.05443467    -0.61560854    -0.00155228    -0.00089139    -0.00127375
     6
  Step:    20            Position(A)                                  Velocity(au)
C        -0.03909939     0.04922150    -0.08612729     0.00006159     0.00021484    -0.00087507
N        -0.04432888    -0.06605111     1.39299115    -0.00016371    -0.00005421     0.00080003
H         0.96863574    -0.07480010    -0.52272759     0.00079213    -0.00047844    -0.00067953
H         0.91312024    -0.17281010     1.83221831     0.00153594    -0.00047709     0.00101519
H        -0.96662352    -0.03142558     1.87412179     0.00064785     0.00002363     0.00023621
H        -1.04615922    -0.05940634    -0.62276383    -0.00143487    -0.00087479    -0.00126197
     6
  Step:    21            Position(A)                                  Velocity(au)
C        -0.03878589     0.05039936    -0.09072781     0.00005010     0.00020407    -0.00076353
N        -0.04521317    -0.06634206     1.39723570    -0.00014929    -0.00004947     0.00071095
H         0.97316081    -0.07746877    -0.52681382     0.00080930    -0.00046986    -0.00076789
H         0.92122024    -0.17542303     1.83780309     0.00133359    -0.00045106     0.00096378
H        -0.96296606    -0.03125736     1.87551526     0.00064256     0.00003668     0.00026413
H        -1.05388923    -0.06428553    -0.62981944    -0.00130796    -0.00086002    -0.00124135
     6
  Step:    22            Position(A)                                  Velocity(au)
C        -0.03853574     0.05151742    -0.09471741     0.00003922     0.00019389    -0.00065897
N        -0.04600843    -0.06660773     1.40098973    -0.00013256    -0.00004528     0.00062667
H         0.97774082    -0.08008632    -0.53136674     0.00081292    -0.00046094    -0.00084677
H         0.92812388    -0.17788472     1.84306134     0.00111558    -0.00042429     0.00090212
H        -0.95939439    -0.03101295     1.87709342     0.00061944     0.00005076     0.00030161
H        -1.06087446    -0.06908200    -0.63672967    -0.00117317    -0.00084673    -0.00121304
     6
  Step:    23            Position(A)                                  Velocity(au)
C        -0.03834506     0.05257886    -0.09813534     0.00002905     0.00018424    -0.00056105
N        -0.04670331    -0.06685104     1.40428015    -0.00011405    -0.00004157     0.00054692
H         0.98229888    -0.08265022    -0.53633239     0.00080302    -0.00045152    -0.00091636
H         0.93376053    -0.18019254     1.84794389     0.00088717    -0.00039724     0.00083292
H        -0.95600291    -0.03068681     1.87890567     0.00058074     0.00006581     0.00034718
H        -1.06707689    -0.07380370    -0.64345525    -0.00103229    -0.00083483    -0.00117839
     6
  Step:    24            Position(A)                                  Velocity(au)
C        -0.03820945     0.05358667    -0.10101864     0.00001968     0.00017512    -0.00046941
N        -0.04728934    -0.06707465     1.40713224    -0.00009425    -0.00003831     0.00047145
H         0.98675961    -0.08515735    -0.54165836     0.00078008    -0.00044157    -0.00097704
H         0.93808770    -0.18234613     1.85241588     0.00065299    -0.00037029     0.00075856
H        -0.95287202    -0.03027383     1.88099256     0.00052914     0.00008177     0.00039924
H        -1.07246815    -0.07845797    -0.64996422    -0.00088696    -0.00082427    -0.00113871
     6
  Step:    25            Position(A)                                  Velocity(au)
C        -0.03812429     0.05454373    -0.10340211     0.00001111     0.00016650    -0.00038360
N        -0.04776082    -0.06728093     1.40956986    -0.00007364    -0.00003545     0.00039998
H         0.99105140    -0.08760462    -0.54729491     0.00074481    -0.00043110    -0.00102935
H         0.94108716    -0.18434719     1.85645495     0.00041701    -0.00034378     0.00068108
H        -0.95006592    -0.02976940     1.88338517     0.00046758     0.00009852     0.00045610
H        -1.07702864    -0.08305203    -0.65623165    -0.00073858    -0.00081504    -0.00109515
     6
  Step:    26            Position(A)                                  Velocity(au)
C        -0.03808492     0.05545283    -0.10531805     0.00000335     0.00015836    -0.00030314
N        -0.04811466    -0.06747201     1.41161532    -0.00005265    -0.00003294     0.00033222
H         0.99510760    -0.08998924    -0.55319549     0.00069812    -0.00042019    -0.00107381
H         0.94276164    -0.18619924     1.86004953     0.00018265    -0.00031799     0.00060223
H        -0.94763126    -0.02916956     1.88610458     0.00039920     0.00011597     0.00051595
H        -1.08074625    -0.08759303    -0.66223886    -0.00058827    -0.00080709    -0.00104867
     6
  Step:    27            Position(A)                                  Velocity(au)
C        -0.03808680     0.05631662    -0.10679600    -0.00000364     0.00015065    -0.00022754
N        -0.04835027    -0.06764970     1.41328925    -0.00003172    -0.00003072     0.00026784
H         0.99886723    -0.09230887    -0.55931691     0.00064095    -0.00040887    -0.00111096
H         0.94313201    -0.18790724     1.86319729    -0.00004709    -0.00029314     0.00052351
H        -0.94559661    -0.02847103     1.88916158     0.00032718     0.00013398     0.00057694
H        -1.08361470    -0.09208787    -0.66797221    -0.00043691    -0.00080033    -0.00100003
     6
  Step:    28            Position(A)                                  Velocity(au)
C        -0.03812566     0.05713757    -0.10786261    -0.00000991     0.00014336    -0.00015628
N        -0.04846936    -0.06781553     1.41461049    -0.00001124    -0.00002874     0.00020652
H         1.00227526    -0.09456158    -0.56561913     0.00057432    -0.00039721    -0.00114123
H         0.94223508    -0.18947742     1.86590389    -0.00026945    -0.00026945     0.00044624
H        -0.94397245    -0.02767130     1.89255643     0.00025468     0.00015240     0.00063716
H        -1.08563218    -0.09654300    -0.67342198    -0.00028520    -0.00079464    -0.00094977
     6
  Step:    29            Position(A)                                  Velocity(au)
C        -0.03819755     0.05791794    -0.10854170    -0.00001552     0.00013642    -0.00008889
N        -0.04847586    -0.06797072     1.41559612     0.00000838    -0.00002695     0.00014797
H         1.00528255    -0.09674584    -0.57206479     0.00049919    -0.00038525    -0.00116501
H         0.94012214    -0.19091711     1.86818196    -0.00048187    -0.00024710     0.00037161
H        -0.94275172    -0.02676870     1.89627888     0.00018475     0.00017107     0.00069472
H        -1.08680046    -0.10096421    -0.67858135    -0.00013372    -0.00078985    -0.00089832
     6
  Step:    30            Position(A)                                  Velocity(au)
C        -0.03829882     0.05865977    -0.10885443    -0.00002050     0.00012980    -0.00002493
N        -0.04837580    -0.06811621     1.41626154     0.00002680    -0.00002529     0.00009190
H         1.00784540    -0.09886037    -0.57861864     0.00041651    -0.00037303    -0.00118255
H         0.93685821    -0.19223464     1.87005046    -0.00068181    -0.00022627     0.00030074
H        -0.94191091    -0.02576242     1.90030836     0.00012022     0.00018983     0.00074777
H        -1.08712430    -0.10535645    -0.68344568     0.00001697    -0.00078579    -0.00084599
     6
  Step:    31            Position(A)                                  Velocity(au)
C        -0.03842612     0.05936483    -0.10881961    -0.00002492     0.00012345     0.00003595
N        -0.04817713    -0.06825263     1.41662062     0.00004365    -0.00002371     0.00003810
H         1.00992550    -0.10090410    -0.58524709     0.00032723    -0.00036055    -0.00119407
H         0.93252181    -0.19343946     1.87153436    -0.00086672    -0.00020718     0.00023470
H        -0.94141162    -0.02465260     1.90461449     0.00006360     0.00020849     0.00079456
H        -1.08661133    -0.10972374    -0.68801190     0.00016631    -0.00078227    -0.00079302
     6
  Step:    32            Position(A)                                  Velocity(au)
C        -0.03857642     0.06003469    -0.10845401    -0.00002883     0.00011734     0.00009406
N        -0.04788967    -0.06838033     1.41668588     0.00005860    -0.00002217    -0.00001364
H         1.01148997    -0.10287607    -0.59191776     0.00023234    -0.00034785    -0.00119971
H         0.92720496    -0.19454213     1.87266450    -0.00103406    -0.00019004     0.00017459
H        -0.94120251    -0.02344029     1.90915784     0.00001707     0.00022689     0.00083350
H        -1.08527196    -0.11406912    -0.69227806     0.00031373    -0.00077910    -0.00073959
     6
  Step:    33            Position(A)                                  Velocity(au)
C        -0.03874693     0.06067070    -0.10777276    -0.00003225     0.00011142     0.00014963
N        -0.04752491    -0.06849939     1.41646876     0.00007137    -0.00002062    -0.00006348
H         1.01251134    -0.10477544    -0.59859920     0.00013285    -0.00033493    -0.00119959
H         0.92101330    -0.19555450     1.87347749    -0.00118127    -0.00017510     0.00012148
H        -0.94122164    -0.02212744     1.91389090    -0.00001767     0.00024484     0.00086322
H        -1.08311971    -0.11839462    -0.69624310     0.00045855    -0.00077608    -0.00068586
     6
  Step:    34            Position(A)                                  Velocity(au)
C        -0.03893508     0.06127402    -0.10678975    -0.00003522     0.00010568     0.00020281
N        -0.04709586    -0.06860963     1.41597978     0.00008168    -0.00001900    -0.00011153
H         1.01296760    -0.10660143    -0.60526058     0.00002977    -0.00032181    -0.00119379
H         0.91406595    -0.19648976     1.87401572    -0.00130578    -0.00016263     0.00007645
H        -0.94139910    -0.02071694     1.91875930    -0.00003941     0.00026219     0.00088258
H        -1.08017162    -0.12270132    -0.69990677     0.00060001    -0.00077306    -0.00063201
     6
  Step:    35            Position(A)                                  Velocity(au)
C        -0.03913846     0.06184568    -0.10551799    -0.00003776     0.00010010     0.00025370
N        -0.04661683    -0.06871063     1.41522878     0.00008931    -0.00001729    -0.00015787
H         1.01284234    -0.10835328    -0.61187158    -0.00007582    -0.00030849    -0.00118237
H         0.90649573    -0.19736261     1.87432746    -0.00140511    -0.00015291     0.00004058
H        -0.94165985    -0.01921248     1.92370333    -0.00004746     0.00027877     0.00089073
H        -1.07644884    -0.12698946    -0.70326967     0.00073727    -0.00076990    -0.00057820
     6
  Step:    36            Position(A)                                  Velocity(au)
C        -0.03935478     0.06238657    -0.10396997    -0.00003990     0.00009465     0.00030234
N        -0.04610322    -0.06880179     1.41422512     0.00009409    -0.00001545    -0.00020254
H         1.01212489    -0.11003027    -0.61840237    -0.00018283    -0.00029500    -0.00116545
H         0.89844846    -0.19818933     1.87446672    -0.00147701    -0.00014623     0.00001487
H        -0.94192665    -0.01761848     1.92865952    -0.00004167     0.00029446     0.00088714
H        -1.07197707    -0.13125852    -0.70633334     0.00086939    -0.00076646    -0.00052467
     6
  Step:    37            Position(A)                                  Velocity(au)
C        -0.03958185     0.06289754    -0.10215798    -0.00004163     0.00008934     0.00034872
N        -0.04557118    -0.06888229     1.41297789     0.00009592    -0.00001345    -0.00024556
H         1.01081048    -0.11163173    -0.62482366    -0.00029015    -0.00028135    -0.00114316
H         0.89008119    -0.19898767     1.87449267    -0.00151971    -0.00014282     0.00000015
H        -0.94212296    -0.01594004     1.93356240    -0.00002241     0.00030915     0.00087162
H        -1.06678705    -0.13550742    -0.70910045     0.00099537    -0.00076269    -0.00047164
     6
  Step:    38            Position(A)                                  Velocity(au)
C        -0.03981749     0.06337941    -0.10009441    -0.00004298     0.00008416     0.00039280
N        -0.04503718    -0.06895121     1.41149611     0.00009479    -0.00001127    -0.00028689
H         1.00890034    -0.11315709    -0.63110692    -0.00039664    -0.00026757    -0.00111565
H         0.88155902    -0.19977662     1.87446838    -0.00153214    -0.00014289    -0.00000302
H        -0.94217570    -0.01418270     1.93834634     0.00000948     0.00032277     0.00084432
H        -1.06091493    -0.13973471    -0.71157498     0.00111419    -0.00075853    -0.00041942
     6
  Step:    39            Position(A)                                  Velocity(au)
C        -0.04005955     0.06383300    -0.09779192    -0.00004393     0.00007913     0.00043448
N        -0.04451759    -0.06900759     1.40978897     0.00009075    -0.00000892    -0.00032649
H         1.00640168    -0.11460585    -0.63722453    -0.00050121    -0.00025368    -0.00108317
H         0.87305097    -0.20057594     1.87445906    -0.00151405    -0.00014652     0.00000554
H        -0.94201761    -0.01235236     1.94294728     0.00005273     0.00033526     0.00080568
H        -1.05440243    -0.14393877    -0.71376243     0.00122481    -0.00075400    -0.00036831
     6
  Step:    40            Position(A)                                  Velocity(au)
C        -0.04030588     0.06425922    -0.09526364    -0.00004448     0.00007426     0.00047368
N        -0.04402816    -0.06905043     1.40786603     0.00008398    -0.00000641    -0.00036425
H         1.00332768    -0.11597767    -0.64315015    -0.00060275    -0.00023973    -0.00104599
H         0.86472502    -0.20140565     1.87453000    -0.00146616    -0.00015369     0.00002564
H        -0.94158940    -0.01045508     1.94730436     0.00010573     0.00034662     0.00075648
H        -1.04729692    -0.14811803    -0.71567005     0.00132620    -0.00074913    -0.00031868
     6
  Step:    41            Position(A)                                  Velocity(au)
C        -0.04055428     0.06465903    -0.09252324    -0.00004463     0.00006958     0.00051028
N        -0.04358353    -0.06907884     1.40573739     0.00007471    -0.00000374    -0.00040007
H         0.99969732    -0.11727238    -0.64885902    -0.00070024    -0.00022576    -0.00100448
H         0.85674301    -0.20228542     1.87474427    -0.00139014    -0.00016428     0.00005662
H        -0.94084154    -0.00849691     1.95136156     0.00016658     0.00035687     0.00069774
H        -1.03965128    -0.15227124    -0.71730703     0.00141739    -0.00074401    -0.00027089
     6
  Step:    42            Position(A)                                  Velocity(au)
C        -0.04080255     0.06503355    -0.08958501    -0.00004438     0.00006511     0.00054418
N        -0.04319675    -0.06909206     1.40341388     0.00006329    -0.00000096    -0.00043379
H         0.99553517    -0.11849002    -0.65432834    -0.00079268    -0.00021181    -0.00095903
H         0.84925501    -0.20323380     1.87516005    -0.00128873    -0.00017800     0.00009730
H        -0.93973565    -0.00648368     1.95506908     0.00023316     0.00036607     0.00063072
H        -1.03152364    -0.15639765    -0.71868464     0.00149752    -0.00073877    -0.00022535
     6
  Step:    43            Position(A)                                  Velocity(au)
C        -0.04104845     0.06538405    -0.08646389    -0.00004373     0.00006089     0.00057527
N        -0.04287878    -0.06908958     1.40090722     0.00005014     0.00000188    -0.00046525
H         0.99087108    -0.11963086    -0.65953752    -0.00087916    -0.00019794    -0.00091010
H         0.84239332    -0.20426742     1.87582767    -0.00116568    -0.00019443     0.00014601
H        -0.93824539    -0.00442085     1.95838444     0.00030325     0.00037429     0.00055685
H        -1.02297682    -0.16049725    -0.71981628     0.00156580    -0.00073356    -0.00018245
     6
  Step:    44            Position(A)                                  Velocity(au)
C        -0.04128974     0.06571195    -0.08317545    -0.00004267     0.00005694     0.00060343
N        -0.04263807    -0.06907116     1.39823018     0.00003574     0.00000472    -0.00049424
H         0.98573968    -0.12069545    -0.66446851    -0.00095888    -0.00018420    -0.00085819
H         0.83626718    -0.20540013     1.87678683    -0.00102558    -0.00021301     0.00020059
H        -0.93635694    -0.00231337     1.96127341     0.00037458     0.00038166     0.00047770
H        -1.01407770    -0.16457085    -0.72071746     0.00162163    -0.00072855    -0.00014255
     6