     6
  Step:     0            Position(A)                                  Velocity(au)
C        -0.03684463     0.02389802     0.00772508     0.00006024     0.00002985    -0.00032232
N        -0.05433284    -0.05360211     1.30224836    -0.00009274    -0.00011330     0.00026617
H         0.93651339    -0.05377754    -0.50717236     0.00019364     0.00028221     0.00012284
H         0.89749443    -0.11224612     1.86393400     0.00121118     0.00019992     0.00118324
H        -0.88063597    -0.06906909     1.87492981     0.00053238     0.00074570    -0.00046753
H        -0.97223803     0.02541806    -0.52820397    -0.00136623    -0.00000908    -0.00069652
     6
  Step:     1            Position(A)                                  Velocity(au)
C        -0.03649378     0.02407129     0.00588005     0.00006717     0.00003342    -0.00035125
N        -0.05477625    -0.05423127     1.30381806    -0.00006819    -0.00011673     0.00030617
H         0.93762700    -0.05225429    -0.50670793     0.00021253     0.00027499     0.00004635
H         0.90349927    -0.11110651     1.87009867     0.00097542     0.00021711     0.00106450
H        -0.87801050    -0.06499957     1.87262750     0.00041752     0.00074273    -0.00036633
H        -0.98000072     0.02536397    -0.53235821    -0.00145832    -0.00001096    -0.00081371
     6
  Step:     2            Position(A)                                  Velocity(au)
C        -0.03610973     0.02426366     0.00388223     0.00007229     0.00003679    -0.00037778
N        -0.05507883    -0.05487920     1.30559809    -0.00004149    -0.00012006     0.00034268
H         0.93883860    -0.05076900    -0.50666523     0.00022906     0.00026813    -0.00003114
H         0.90816611    -0.10987081     1.87558027     0.00072372     0.00023470     0.00093420
H        -0.87606804    -0.06094318     1.87092193     0.00028417     0.00074046    -0.00025059
H        -0.98819295     0.02529812    -0.53710649    -0.00152173    -0.00001336    -0.00091280
     6
  Step:     3            Position(A)                                  Velocity(au)
C        -0.03570257     0.02447397     0.00174526     0.00007555     0.00003994    -0.00040167
N        -0.05523038    -0.05554528     1.30756868    -0.00001326    -0.00012325     0.00037545
H         0.94013410    -0.04931961    -0.50704873     0.00024280     0.00026165    -0.00010912
H         0.91142032    -0.10853775     1.88032346     0.00046088     0.00025233     0.00079531
H        -0.87490023    -0.05689529     1.86988485     0.00013649     0.00073913    -0.00012368
H        -0.99665599     0.02521773    -0.54234873    -0.00155609    -0.00001625    -0.00099349
     6
  Step:     4            Position(A)                                  Velocity(au)
C        -0.03528246     0.02470094    -0.00051586     0.00007698     0.00004283    -0.00042267
N        -0.05522408    -0.05622876     1.30970905     0.00001585    -0.00012629     0.00040433
H         0.94149715    -0.04790401    -0.50786001     0.00025334     0.00025556    -0.00018705
H         0.91321255    -0.10710789     1.88428848     0.00019145     0.00026969     0.00065060
H        -0.87457354    -0.05285010     1.86956771    -0.00002053     0.00073888     0.00001040
H        -1.00523137     0.02512018    -0.54798470    -0.00156183    -0.00001959    -0.00105599
     6
  Step:     5            Position(A)                                  Velocity(au)
C        -0.03485931     0.02494318    -0.00288486     0.00007663     0.00004546    -0.00044055
N        -0.05505670    -0.05692870     1.31199784     0.00004519    -0.00012912     0.00042924
H         0.94290934    -0.04652009    -0.50909773     0.00026034     0.00024984    -0.00026436
H         0.91351750    -0.10558342     1.88745042    -0.00008022     0.00028648     0.00050276
H        -0.87512511    -0.04880131     1.86999880    -0.00018124     0.00073971     0.00014724
H        -1.01376495     0.02500308    -0.55391646    -0.00153997    -0.00002335    -0.00110082
     6
  Step:     6            Position(A)                                  Velocity(au)
C        -0.03444260     0.02519916    -0.00534427     0.00007460     0.00004779    -0.00045508
N        -0.05472877    -0.05764397     1.31441347     0.00007405    -0.00013171     0.00045015
H         0.94435043    -0.04516582    -0.51075739     0.00026347     0.00024445    -0.00034044
H         0.91233337    -0.10396806     1.88979872    -0.00034973     0.00030241     0.00035443
H        -0.87655997    -0.04474288     1.87118143    -0.00033965     0.00074148     0.00028219
H        -1.02210948     0.02486425    -0.56004971    -0.00149199    -0.00002747    -0.00112876
     6
  Step:     7            Position(A)                                  Velocity(au)
C        -0.03404122     0.02546727    -0.00787552     0.00007101     0.00004981    -0.00046608
N        -0.05424465    -0.05837314     1.31693436     0.00010171    -0.00013400     0.00046705
H         0.94579864    -0.04383938    -0.51283114     0.00026249     0.00023935    -0.00041463
H         0.90968222    -0.10226707     1.89133732    -0.00061256     0.00031720     0.00020835
H        -0.87884984    -0.04066984     1.87309340    -0.00048969     0.00074393     0.00041064
H        -1.03012680     0.02470178    -0.56629502    -0.00141974    -0.00003191    -0.00114078
     6
  Step:     8            Position(A)                                  Velocity(au)
C        -0.03366335     0.02574578    -0.01045905     0.00006600     0.00005150    -0.00047337
N        -0.05361259    -0.05911449     1.31953890     0.00012747    -0.00013592     0.00047994
H         0.94723099    -0.04253921    -0.51530760     0.00025722     0.00023448    -0.00048626
H         0.90561108    -0.10048715     1.89208517    -0.00086394     0.00033057     0.00006737
H        -0.88193389    -0.03657900     1.87568779    -0.00062564     0.00074663     0.00052825
H        -1.03768978     0.02451407    -0.57256869    -0.00132537    -0.00003660    -0.00113795
     6
  Step:     9            Position(A)                                  Velocity(au)
C        -0.03331639     0.02603289    -0.01307450     0.00005971     0.00005284    -0.00047683
N        -0.05284468    -0.05986591     1.32220543     0.00015064    -0.00013740     0.00048879
H         0.94862365    -0.04126410    -0.51817164     0.00024756     0.00022979    -0.00055459
H         0.90019367    -0.09863650     1.89207718    -0.00109878     0.00034226    -0.00006548
H        -0.88572115    -0.03246967     1.87889503    -0.00074237     0.00074911     0.00063116
H        -1.04468309     0.02429984    -0.57879299    -0.00121119    -0.00004147    -0.00112144
     6
  Step:    10            Position(A)                                  Velocity(au)
C        -0.03300694     0.02632669    -0.01570087     0.00005073     0.00005630    -0.00053190
N        -0.05195666    -0.06062494     1.32491212     0.00017183    -0.00014099     0.00053861
H         0.94995240    -0.04001318    -0.52140425     0.00020973     0.00027545    -0.00058008
H         0.89353219    -0.09672469     1.89136535    -0.00133810     0.00030068    -0.00020459
H        -0.89009475    -0.02834404     1.88262617    -0.00082111     0.00080056     0.00069414
H        -1.05100438     0.02405818    -0.58489662    -0.00104280    -0.00008826    -0.00105599
     6
  Step:    11            Position(A)                                  Velocity(au)
C        -0.03275806     0.02665244    -0.01892825     0.00003920     0.00006174    -0.00063906
N        -0.05095364    -0.06141758     1.32813303     0.00019048    -0.00014650     0.00062994
H         0.95093180    -0.03823270    -0.52455571     0.00014315     0.00034955    -0.00056197
H         0.88546733    -0.09532743     1.88982555    -0.00157532     0.00022978    -0.00034714
H        -0.89475782    -0.02365915     1.88653433    -0.00085937     0.00087518     0.00071254
H        -1.05615955     0.02332855    -0.59041455    -0.00082246    -0.00015440    -0.00094225
     6
  Step:    12            Position(A)                                  Velocity(au)
C        -0.03257486     0.02700722    -0.02274476     0.00002689     0.00006648    -0.00073985
N        -0.04985717    -0.06223973     1.33185553     0.00020450    -0.00015100     0.00071506
H         0.95153022    -0.03616031    -0.52759847     0.00007378     0.00039529    -0.00053974
H         0.87616851    -0.09419202     1.88753909    -0.00177383     0.00018740    -0.00047030
H        -0.89956702    -0.01869758     1.89048000    -0.00087064     0.00091480     0.00070830
H        -1.06006977     0.02235637    -0.59528233    -0.00059149    -0.00019133    -0.00081897
     6
  Step:    13            Position(A)                                  Velocity(au)
C        -0.03246108     0.02738668    -0.02709990     0.00001406     0.00007029    -0.00082919
N        -0.04869491    -0.06308535     1.33603095     0.00021299    -0.00015417     0.00078922
H         0.95174667    -0.03386666    -0.53051714     0.00000590     0.00043032    -0.00051500
H         0.86587523    -0.09325753     1.88463104    -0.00192200     0.00015287    -0.00056705
H        -0.90437414    -0.01355515     1.89435760    -0.00085492     0.00093904     0.00068557
H        -1.06269262     0.02121529    -0.59946007    -0.00035623    -0.00021737    -0.00069004
     6
  Step:    14            Position(A)                                  Velocity(au)
C        -0.03241918     0.02778558    -0.03192703     0.00000099     0.00007304    -0.00090459
N        -0.04749860    -0.06394698     1.34059513     0.00021535    -0.00015582     0.00085000
H         0.95159557    -0.03139502    -0.53330147    -0.00005780     0.00045795    -0.00048875
H         0.85488474    -0.09249918     1.88125976    -0.00201038     0.00012169    -0.00063180
H        -0.90903418    -0.00829891     1.89807186    -0.00081369     0.00095142     0.00064651
H        -1.06401461     0.01994922    -0.60292368    -0.00012247    -0.00023620    -0.00055869
     6
  Step:    15            Position(A)                                  Velocity(au)
C        -0.03245004     0.02819803    -0.03714773    -0.00001200     0.00007468    -0.00096454
N        -0.04630296    -0.06481608     1.34547240     0.00021126    -0.00015583     0.00089594
H         0.95110468    -0.02877998    -0.53594593    -0.00011504     0.00047945    -0.00046202
H         0.84354485    -0.09190589     1.87761331    -0.00203188     0.00009212    -0.00066016
H        -0.91341221    -0.00298725     1.90153879    -0.00074979     0.00095335     0.00059375
H        -1.06405295     0.01859165    -0.60566575     0.00010392    -0.00024936    -0.00042830
     6
  Step:    16            Position(A)                                  Velocity(au)
C        -0.03255287     0.02861786    -0.04267622    -0.00002460     0.00007522    -0.00100864
N        -0.04514422    -0.06568363     1.35057979     0.00020078    -0.00015427     0.00092660
H         0.95031348    -0.02605184    -0.53845040    -0.00016402     0.00049566    -0.00043600
H         0.83224069    -0.09147257     1.87390267    -0.00198301     0.00006347    -0.00064959
H        -0.91739007     0.00232558     1.90468888    -0.00066725     0.00094608     0.00053052
H        -1.06285646     0.01717027    -0.60769687     0.00031741    -0.00025782    -0.00030236
     6
  Step:    17            Position(A)                                  Velocity(au)
C        -0.03272514     0.02903907    -0.04842528    -0.00003656     0.00007477    -0.00103782
N        -0.04405806    -0.06654093     1.35583274     0.00018433    -0.00015133     0.00094285
H         0.94927082    -0.02323800    -0.54082082    -0.00020351     0.00050747    -0.00041196
H         0.82137281    -0.09119622     1.87035029    -0.00186478     0.00003551    -0.00059988
H        -0.92087275     0.00759087     1.90747057    -0.00057101     0.00093139     0.00046050
H        -1.06050400     0.01570899    -0.60904641     0.00051345    -0.00026244    -0.00018411
     6
  Step:    18            Position(A)                                  Velocity(au)
C        -0.03296283     0.02945628    -0.05431340    -0.00004767     0.00007352    -0.00105430
N        -0.04307729    -0.06738049     1.36115208     0.00016271    -0.00014737     0.00094675
H         0.94803153    -0.02036153    -0.54306977    -0.00023303     0.00051609    -0.00039121
H         0.81133073    -0.09107438     1.86717616    -0.00168266     0.00000819    -0.00051326
H        -0.92379291     0.01276928     1.90985252    -0.00046632     0.00091167     0.00038744
H        -1.05709914     0.01422753    -0.60976135     0.00068909    -0.00026418    -0.00007623
     6
  Step:    19            Position(A)                                  Velocity(au)
C        -0.03326080     0.02986520    -0.06027144    -0.00005784     0.00007172    -0.00106111
N        -0.04222988    -0.06819678     1.36647047     0.00013690    -0.00014282     0.00094117
H         0.94665243    -0.01743919    -0.54521653    -0.00025277     0.00052295    -0.00037492
H         0.80246635    -0.09110421     1.86458331    -0.00144545    -0.00001850    -0.00039385
H        -0.92611237     0.01783448     1.91182384    -0.00035807     0.00088967     0.00031472
H        -1.05276139     0.01274062    -0.60990299     0.00084314    -0.00026408     0.00001947
     6
  Step:    20            Position(A)                                  Velocity(au)
C        -0.03361333     0.03026285    -0.06624718    -0.00006703     0.00006958    -0.00106142
N        -0.04153765    -0.06898668     1.37173697     0.00010796    -0.00013808     0.00092915
H         0.94518869    -0.01448012    -0.54728637    -0.00026334     0.00052948    -0.00036397
H         0.79507445    -0.09128247     1.86274667    -0.00116360    -0.00004461    -0.00024697
H        -0.92781992     0.02277499     1.91339199    -0.00025027     0.00086793     0.00024501
H        -1.04761671     0.01125749    -0.60954238     0.00097571    -0.00026312     0.00010203
     6
  Step:    21            Position(A)                                  Velocity(au)
C        -0.03401448     0.03064751    -0.07220591    -0.00007522     0.00006728    -0.00105781
N        -0.04101598    -0.06974931     1.37691776     0.00007689    -0.00013346     0.00091327
H         0.94369148    -0.01148575    -0.54930899    -0.00026547     0.00053682    -0.00035884
H         0.78938293    -0.09160584     1.86180640    -0.00084793    -0.00007023    -0.00007847
H        -0.92892635     0.02759342     1.91457875    -0.00014593     0.00084840     0.00018022
H        -1.04179068     0.00978211    -0.60875580     0.00108726    -0.00026208     0.00017103
     6
  Step:    22            Position(A)                                  Velocity(au)
C        -0.03445813     0.03101846    -0.07812704    -0.00008236     0.00006493    -0.00105184
N        -0.04067416    -0.07048554     1.38199346     0.00004461    -0.00012915     0.00089522
H         0.94220730    -0.00845134    -0.55131639    -0.00025983     0.00054562    -0.00035960
H         0.78555175    -0.09207118     1.86186543    -0.00050924    -0.00009540     0.00010539
H        -0.92945880     0.03230295     1.91541592    -0.00004725     0.00083214     0.00012157
H        -1.03540615     0.00831421    -0.60762165     0.00117781    -0.00026148     0.00022624
     6
  Step:    23            Position(A)                                  Velocity(au)
C        -0.03493784     0.03137551    -0.08399849    -0.00008830     0.00006257    -0.00104400
N        -0.04051582    -0.07119720     1.38695434     0.00001207    -0.00012518     0.00087586
H         0.94077846    -0.00536865    -0.55334057    -0.00024691     0.00055601    -0.00036592
H         0.78367370    -0.09267536     1.86298795    -0.00015885    -0.00012004     0.00029776
H        -0.92945608     0.03692285     1.91594167     0.00004401     0.00081949     0.00006993
H        -1.02858587     0.00685062    -0.60621936     0.00124630    -0.00026159     0.00026728
     6
  Step:    24            Position(A)                                  Velocity(au)
C        -0.03544635     0.03171875    -0.08981080    -0.00009284     0.00006019    -0.00103402
N        -0.04053910    -0.07188644     1.39179556    -0.00001975    -0.00012153     0.00085548
H         0.93944404    -0.00222888    -0.55541157    -0.00022714     0.00056778    -0.00037723
H         0.78377395    -0.09341459     1.86519776     0.00019100    -0.00014397     0.00049114
H        -0.92896628     0.04147414     1.91619851     0.00012612     0.00081025     0.00002605
H        -1.02145841     0.00538666    -0.60463044     0.00129068    -0.00026251     0.00029350
     6
  Step:    25            Position(A)                                  Velocity(au)
C        -0.03597523     0.03204815    -0.09555311    -0.00009571     0.00005777    -0.00102130
N        -0.04073647    -0.07255524     1.39651382    -0.00004977    -0.00011815     0.00083405
H         0.93824035     0.00097601    -0.55755593    -0.00020097     0.00058057    -0.00039276
H         0.78580797    -0.09428419     1.86847616     0.00052729    -0.00016691     0.00067759
H        -0.92804680     0.04597693     1.91623280     0.00019728     0.00080403    -0.00000933
H        -1.01416321     0.00391721    -0.60293962     0.00130844    -0.00026423     0.00030415
     6
  Step:    26            Position(A)                                  Velocity(au)
C        -0.03651466     0.03236358    -0.10121109    -0.00009665     0.00005527    -0.00100516
N        -0.04109463    -0.07320527     1.40110565    -0.00007693    -0.00011497     0.00081151
H         0.93720065     0.00425178    -0.55979579    -0.00016907     0.00059389    -0.00041165
H         0.78965987    -0.09527771     1.87276138     0.00083696    -0.00018846     0.00084929
H        -0.92676418     0.05044913     1.91609442     0.00025574     0.00080042    -0.00003554
H        -1.00685287     0.00243715    -0.60123540     0.00129711    -0.00026674     0.00029850
     6
  Step:    27            Position(A)                                  Velocity(au)
C        -0.03705345     0.03266474    -0.10676682    -0.00009544     0.00005269    -0.00098513
N        -0.04159472    -0.07383789     1.40556708    -0.00010026    -0.00011198     0.00078786
H         0.93635423     0.00760154    -0.56214833    -0.00013226     0.00060731    -0.00043300
H         0.79514520    -0.09638664     1.87795092     0.00110804    -0.00020822     0.00099925
H        -0.92519374     0.05490649     1.91583637     0.00029995     0.00079913    -0.00005203
H        -0.99969251     0.00094143    -0.59960954     0.00125488    -0.00027003     0.00027616
     6
  Step:    28            Position(A)                                  Velocity(au)
C        -0.03757929     0.03295132    -0.11219971    -0.00009194     0.00005004    -0.00096095
N        -0.04221301    -0.07445431     1.40989392    -0.00011898    -0.00010915     0.00076322
H         0.93572532     0.01102602    -0.56462566    -0.00009162     0.00062047    -0.00045591
H         0.80201960    -0.09760034     1.88390750     0.00133084    -0.00022585     0.00112193
H        -0.92341841     0.05936307     1.91551405     0.00032871     0.00080001    -0.00005848
H        -0.99285523    -0.00057495    -0.59815495     0.00118103    -0.00027414     0.00023722
     6
  Step:    29            Position(A)                                  Velocity(au)
C        -0.03807924     0.03322299    -0.11748792    -0.00008610     0.00004732    -0.00093270
N        -0.04292211    -0.07505562     1.41408217    -0.00013255    -0.00010650     0.00073778
H         0.93533202     0.01452400    -0.56723486    -0.00004836     0.00063316    -0.00047956
H         0.80999313    -0.09890636     1.89046802     0.00149879    -0.00024106     0.00121372
H        -0.92152641     0.06383201     1.91518397     0.00034138     0.00080304    -0.00005483
H        -0.98651602    -0.00211711    -0.59696292     0.00107617    -0.00027912     0.00018237
     6
  Step:    30            Position(A)                                  Velocity(au)
C        -0.03854032     0.03347952    -0.12261004    -0.00007800     0.00004458    -0.00090071
N        -0.04369246    -0.07564297     1.41812862    -0.00014076    -0.00010405     0.00071180
H         0.93518555     0.01809301    -0.56997830    -0.00000378     0.00064527    -0.00050319
H         0.81874837    -0.10029098     1.89745446     0.00160882    -0.00025373     0.00127308
H        -0.91960805     0.06832619     1.91490203     0.00033800     0.00080830    -0.00004141
H        -0.98084358    -0.00369036    -0.59611944     0.00094244    -0.00028503     0.00011298
     6
  Step:    31            Position(A)                                  Velocity(au)
C        -0.03895025     0.03372079    -0.12754658    -0.00006782     0.00004182    -0.00086556
N        -0.04449403    -0.07621764     1.42203120    -0.00014368    -0.00010186     0.00068562
H         0.93528984     0.02173001    -0.57285419     0.00004083     0.00065683    -0.00052616
H         0.82795950    -0.10173983     1.90468511     0.00166121    -0.00026381     0.00130041
H        -0.91775183     0.07285867     1.91472151     0.00031929     0.00081594    -0.00001887
H        -0.97599140    -0.00530016    -0.59570126     0.00078343    -0.00029192     0.00003105
     6
  Step:    32            Position(A)                                  Velocity(au)
C        -0.03929808     0.03394683    -0.13228124    -0.00005587     0.00003910    -0.00082795
N        -0.04529783    -0.07678104     1.42578930    -0.00014163    -0.00009993     0.00065954
H         0.93564175     0.02543207    -0.57585727     0.00008424     0.00066797    -0.00054796
H         0.83730976    -0.10323861     1.91198451     0.00165915    -0.00027141     0.00129773
H        -0.91604053     0.07744301     1.91469115     0.00028666     0.00082611     0.00001179
H        -0.97209002    -0.00695211    -0.59577249     0.00060397    -0.00029983    -0.00006087
     6
  Step:    33            Position(A)                                  Velocity(au)
C        -0.03957483     0.03415781    -0.13680179    -0.00004256     0.00003642    -0.00078871
N        -0.04607728    -0.07733474     1.42940387    -0.00013515    -0.00009832     0.00063390
H         0.93623150     0.02919689    -0.57897956     0.00012537     0.00067888    -0.00056823
H         0.84650618    -0.10477373     1.91919172     0.00160794    -0.00027672     0.00126823
H        -0.91454747     0.08209324     1.91485328     0.00024211     0.00083892     0.00004930
H        -0.96923999    -0.00865173    -0.59638170     0.00040987    -0.00030873    -0.00015985
     6
  Step:    34            Position(A)                                  Velocity(au)
C        -0.03977395     0.03435402    -0.14110044    -0.00002833     0.00003380    -0.00074862
N        -0.04680908    -0.07788044     1.43287742    -0.00012489    -0.00009703     0.00060894
H         0.93704356     0.03302321    -0.58221105     0.00016329     0.00068979    -0.00058667
H         0.85528936    -0.10633279     1.92616558     0.00151415    -0.00027999     0.00121574
H        -0.91333336     0.08682365     1.91524244     0.00018809     0.00085442     0.00009220
H        -0.96750699    -0.01040422    -0.59755990     0.00020752    -0.00031856    -0.00026272
     6
  Step:    35            Position(A)                                  Velocity(au)
C        -0.03989163     0.03453579    -0.14517379    -0.00001368     0.00003125    -0.00070843
N        -0.04747390    -0.07841989     1.43621380    -0.00011155    -0.00009607     0.00058489
H         0.93805765     0.03691097    -0.58554040     0.00019729     0.00070092    -0.00060310
H         0.86343917    -0.10790492     1.93278758     0.00138494    -0.00028153     0.00114437
H        -0.91244404     0.09164831     1.91588433     0.00012737     0.00087250     0.00013886
H        -0.96691930    -0.01221420    -0.59931974     0.00000352    -0.00032919    -0.00036626
     6
  Step:    36            Position(A)                                  Velocity(au)
C        -0.03992688     0.03470347    -0.14902246     0.00000091     0.00002876    -0.00066875
N        -0.04805650    -0.07895480     1.43941796    -0.00009587    -0.00009543     0.00056187
H         0.93924973     0.04086130    -0.58895531     0.00022677     0.00071246    -0.00061739
H         0.87077658    -0.10948097     1.93896253     0.00122745    -0.00028162     0.00105811
H        -0.91190900     0.09658047     1.91679522     0.00006291     0.00089297     0.00018761
H        -0.96746763    -0.01408537    -0.60165564    -0.00019569    -0.00034043    -0.00046737
     6
  Step:    37            Position(A)                                  Velocity(au)
C        -0.03988143     0.03485736    -0.15265051     0.00001498     0.00002633    -0.00063010
N        -0.04854578    -0.07948680     1.44249556    -0.00007856    -0.00009507     0.00053996
H         0.94059298     0.04487632    -0.59244290     0.00025133     0.00072454    -0.00062942
H         0.87716225    -0.11105347     1.94461739     0.00104840    -0.00028056     0.00096069
H        -0.91174075     0.10163181     1.91798186    -0.00000233     0.00091545     0.00023678
H        -0.96910711    -0.01602025    -0.60454495    -0.00038413    -0.00035205    -0.00056317
     6
  Step:    38            Position(A)                                  Velocity(au)
C        -0.03975951     0.03499771    -0.15606462     0.00002810     0.00002392    -0.00059284
N        -0.04893451    -0.08001730     1.44545265    -0.00006027    -0.00009495     0.00051916
H         0.94205862     0.04895890    -0.59598985     0.00027066     0.00073724    -0.00063909
H         0.88249382    -0.11261659     1.94969941     0.00085399    -0.00027861     0.00085545
H        -0.91193499     0.10681183     1.91944153    -0.00006540     0.00093948     0.00028473
H        -0.97176079    -0.01802000    -0.60794974    -0.00055654    -0.00036379    -0.00065114
     6
  Step:    39            Position(A)                                  Velocity(au)
C        -0.03956753     0.03512463    -0.15927342     0.00003993     0.00002153    -0.00055725
N        -0.04921907    -0.08054747     1.44829531    -0.00004160    -0.00009501     0.00049944
H         0.94361660     0.05311233    -0.59958248     0.00028457     0.00075059    -0.00064633
H         0.88670254    -0.11416599     1.95417396     0.00064980    -0.00027602     0.00074537
H        -0.91247132     0.11212715     1.92116265    -0.00012355     0.00096448     0.00032992
H        -0.97532443    -0.02008431    -0.61181909    -0.00070852    -0.00037537    -0.00072918
     6
  Step:    40            Position(A)                                  Velocity(au)
C        -0.03931363     0.03523813    -0.16228683     0.00005021     0.00001913    -0.00052347
N        -0.04939905    -0.08107815     1.45102941    -0.00002310    -0.00009519     0.00048073
H         0.94523617     0.05734002    -0.60320679     0.00029298     0.00076458    -0.00065106
H         0.88974944    -0.11569866     1.95802219     0.00044081    -0.00027300     0.00063306
H        -0.91331458     0.11758118     1.92312542    -0.00017431     0.00098981     0.00037098
H        -0.97967206    -0.02221135    -0.61609176    -0.00083667    -0.00038651    -0.00079566
     6
  Step:    41            Position(A)                                  Velocity(au)
C        -0.03900721     0.03533812    -0.16511552     0.00005873     0.00001670    -0.00049159
N        -0.04947692    -0.08160985     1.45366041    -0.00000526    -0.00009544     0.00046292
H         0.94688637     0.06164527    -0.60684850     0.00029587     0.00077913    -0.00065320
H         0.89162219    -0.11721281     1.96123912     0.00023156    -0.00026976     0.00052084
H        -0.91441664     0.12317381     1.92530290    -0.00021552     0.00101483     0.00040670
H        -0.98466192    -0.02439792    -0.62069893    -0.00093865    -0.00039698    -0.00084944
     6
  Step:    42            Position(A)                                  Velocity(au)
C        -0.03865853     0.03542441    -0.16777041     0.00006539     0.00001423    -0.00046162
N        -0.04945769    -0.08214272     1.45619319     0.00001152    -0.00009567     0.00044589
H         0.94853650     0.06603104    -0.61049316     0.00029329     0.00079416    -0.00065273
H         0.89233248    -0.11870777     1.96383206     0.00002617    -0.00026648     0.00041081
H        -0.91571862     0.12890143     1.92766214    -0.00024545     0.00103890     0.00043613
H        -0.99014253    -0.02663958    -0.62556709    -0.00101318    -0.00040656    -0.00088988
     6
  Step:    43            Position(A)                                  Velocity(au)
C        -0.03827818     0.03549673    -0.17026235     0.00007015     0.00001170    -0.00043352
N        -0.04934853    -0.08267658     1.45863195     0.00002684    -0.00009585     0.00042952
H         0.95015647     0.07049987    -0.61412618     0.00028540     0.00080960    -0.00064962
H         0.89191399    -0.12018392     1.96581950    -0.00017154    -0.00026334     0.00030490
H        -0.91715327     0.13475710     1.93016554    -0.00026282     0.00106144     0.00045852
H        -0.99595851    -0.02893094    -0.63062071    -0.00105997    -0.00041512    -0.00091680
     6
  Step:    44            Position(A)                                  Velocity(au)
C        -0.03787671     0.03555476    -0.17260184     0.00007305     0.00000911    -0.00040722
N        -0.04915854    -0.08321093     1.46098012     0.00004041    -0.00009590     0.00041367
H         0.95171725     0.07505379    -0.61773304     0.00027241     0.00082534    -0.00064390
H         0.89042067    -0.12164266     1.96723014    -0.00035802    -0.00026054     0.00020491
H        -0.91864764     0.14073094     1.93277222    -0.00026682     0.00108198     0.00047342
H        -1.00195564    -0.03126597    -0.63578463    -0.00107955    -0.00042255    -0.00093043
     6