|===============================================================================
|
|  DFTB+ release 20.1
|
|  Copyright (C) 2006 - 2020  DFTB+ developers group
|
|===============================================================================
|
|  When publishing results obtained with DFTB+, please cite the following
|  reference:
|
|  * DFTB+, a software package for efficient approximate density functional
|    theory based atomistic simulations, J. Chem. Phys. 152, 124101 (2020).
|    [doi: 10.1063/1.5143190]
|
|  You should also cite additional publications crediting the parametrization
|  data you use. Please consult the documentation of the SK-files for the
|  references.
|
|===============================================================================

Reading input file 'dftb_in.hsd'
Parser version: 8

--------------------------------------------------------------------------------
Reading SK-files:
Done.


Processed input in HSD format written to 'dftb_pin.hsd'

Starting initialization...
--------------------------------------------------------------------------------
WARNING!
-> Excited state forces are not implemented yet for fractional occupations, kT=  0.3158E-02K
OpenMP threads:              1
Chosen random seed:          508343459
Mode:                        Static calculation
Self consistent charges:     Yes
SCC-tolerance:                 0.100000E-05
Max. scc iterations:                    100
Shell resolved Hubbard:      No
Spin polarisation:           No
Nr. of up electrons:             6.000000
Nr. of down electrons:           6.000000
Periodic boundaries:         No
Electronic solver:           Relatively robust
Mixer:                       Broyden mixer
Mixing parameter:                  0.200000
Maximal SCC-cycles:                     100
Nr. of chrg. vec. in memory:              0
Electronic temperature:        0.100000E-07 H      0.272114E-06 eV
Initial charges:             Set automatically (system chrg:   0.100E+01)
Included shells:             C:  s, p
                             N:  s, p
                             H:  s
Extra options:
                             Mulliken analysis
                             Force calculation
Force type                   original
                             Eigenvector printing

--------------------------------------------------------------------------------

***  Geometry step: 0

 iSCC Total electronic   Diff electronic      SCC error    
    1   -0.54230020E+01    0.00000000E+00    0.72627860E+00
    2   -0.54273114E+01   -0.43094067E-02    0.50049051E+00
    3   -0.54304705E+01   -0.31590941E-02    0.71036754E-01
    4   -0.54306892E+01   -0.21875403E-03    0.39601528E-01
    5   -0.54307435E+01   -0.54223195E-04    0.80496255E-02
    6   -0.54307438E+01   -0.32662711E-06    0.13399755E-02
    7   -0.54307438E+01   -0.24747300E-07    0.29681122E-04
    8   -0.54307438E+01   -0.12208901E-10    0.29045570E-04
    9   -0.54307438E+01   -0.29732661E-10    0.70185824E-06
>> Charges saved for restart in charges.bin

Total Energy:                       -5.0925918069 H         -138.5765 eV
Extrapolated to 0:                  -5.2242602500 H         -142.1594 eV
Total Mermin free energy:           -5.0925918069 H         -138.5765 eV
Force related energy:               -5.2242602500 H         -142.1594 eV

--------------------------------------------------------------------------------
DFTB+ running times                          cpu [s]             wall clock [s]
--------------------------------------------------------------------------------
SCC                                    +     0.01  ( 42.2%)      0.03  ( 54.2%)
Post-SCC processing                    +     0.01  ( 50.3%)      0.02  ( 35.6%)
--------------------------------------------------------------------------------
Missing                                +     0.00  (  7.5%)      0.01  ( 10.2%)
Total                                  =     0.02  (100.0%)      0.06  (100.0%)
--------------------------------------------------------------------------------
