|===============================================================================
|
|  DFTB+ release 20.1
|
|  Copyright (C) 2006 - 2020  DFTB+ developers group
|
|===============================================================================
|
|  When publishing results obtained with DFTB+, please cite the following
|  reference:
|
|  * DFTB+, a software package for efficient approximate density functional
|    theory based atomistic simulations, J. Chem. Phys. 152, 124101 (2020).
|    [doi: 10.1063/1.5143190]
|
|  You should also cite additional publications crediting the parametrization
|  data you use. Please consult the documentation of the SK-files for the
|  references.
|
|===============================================================================

Reading input file 'dftb_in.hsd'
Parser version: 8

--------------------------------------------------------------------------------
Reading SK-files:
Done.


Processed input in HSD format written to 'dftb_pin.hsd'

Starting initialization...
--------------------------------------------------------------------------------
OpenMP threads:              1
Chosen random seed:          500523864
Mode:                        Static calculation
Self consistent charges:     Yes
SCC-tolerance:                 0.100000E-05
Max. scc iterations:                   1000
Shell resolved Hubbard:      No
Spin polarisation:           No
Nr. of up electrons:            16.000000
Nr. of down electrons:          16.000000
Periodic boundaries:         No
Electronic solver:           Relatively robust
Maximal SCC-cycles:                    1000
Initial charges:             Set automatically (system chrg:   0.100E+01)
Included shells:             C:  s, p
                             H:  s
                             N:  s, p
Spin coupling constants:     C   1(s)-1(s):  -0.455900E-01
                             C   1(s)-2(p):  -0.293000E-01
                             C   2(p)-1(s):  -0.293000E-01
                             C   2(p)-2(p):  -0.275500E-01
                             H   1(s)-1(s):  -0.792500E-01
                             N   1(s)-1(s):  -0.468700E-01
                             N   1(s)-2(p):  -0.317000E-01
                             N   2(p)-1(s):  -0.317000E-01
                             N   2(p)-2(p):  -0.307200E-01
Range separated hybrid:      Yes
  Screening parameter omega:   0.300000E+00
  Range separated algorithm:   MatrixBased
Extra options:
                             Mulliken analysis
                             Force calculation
Force type                   original
                             Eigenvector printing


REKS Calcuation:             Yes
SSR(2,2) Calcuation:         Yes
Energy Functional:           (PPS+OSS)/2
Number of Core Orbitals:                 15
Number of Active Orbitals:                2
Number of Basis:                         32
Number of States:                         2
State-Averaging Weight:          0.500000
                                 0.500000
State of Interest:                        1
Initial Guess:               Diagonalize H0 matrix
Newton-Raphson for FON opt:  Yes
NR max. Iterations:                      50
Level Shifting:              Yes
Shift Value:                     0.300000
W Scale Factor:              C  =    3.200000
                             H  =    3.200000
                             N  =    3.200000
Transition Dipole:           No
Gradient of Microstate:      No
CP-REKS Solver:              Preconditioned Conjugate-Gradient
CG max. Iterations:                     100
CG Tolerance:                  0.100000E-07
Memory for A and Hxc:        Direct Updating Without Saving
Non-Adiabatic Coupling:      Yes

--------------------------------------------------------------------------------

***  Geometry step: 0

  iSCC       reks energy        Diff energy         x_a       SCC error   
    1      -16.3686217643       0.0000000000     0.996675    1.16644062
    2      -16.3896362137      -0.0210144493     0.999715    0.06655052
    3      -16.3940896888      -0.0044534751     0.999915    0.02490624
    4      -16.3954622548      -0.0013725660     0.999956    0.01589085
    5      -16.3960014245      -0.0005391697     0.999970    0.01028718
    6      -16.3962450337      -0.0002436092     0.999977    0.00679873
    7      -16.3963650793      -0.0001200456     0.999980    0.00455201
    8      -16.3964278865      -0.0000628072     0.999983    0.00307385
    9      -16.3964623525      -0.0000344660     0.999984    0.00209018
   10      -16.3964821055      -0.0000197531     0.999985    0.00143082
   11      -16.3964939240      -0.0000118185     0.999985    0.00106658
   12      -16.3965013140      -0.0000073900     0.999986    0.00080805
   13      -16.3965061489      -0.0000048349     0.999986    0.00062216
   14      -16.3965094599      -0.0000033110     0.999986    0.00048790
   15      -16.3965118316      -0.0000023717     0.999986    0.00039059
   16      -16.3965136050      -0.0000017735     0.999986    0.00031986
   17      -16.3965149855      -0.0000013805     0.999987    0.00026833
   18      -16.3965161003      -0.0000011148     0.999987    0.00023447
   19      -16.3965170306      -0.0000009303     0.999987    0.00022102
   20      -16.3965178299      -0.0000007993     0.999987    0.00020767
   21      -16.3965185345      -0.0000007045     0.999987    0.00019484
   22      -16.3965191693      -0.0000006349     0.999987    0.00018276
   23      -16.3965197524      -0.0000005830     0.999987    0.00017158
   24      -16.3965202964      -0.0000005440     0.999987    0.00016132
   25      -16.3965208110      -0.0000005146     0.999987    0.00015201
   26      -16.3965213032      -0.0000004922     0.999987    0.00014360
   27      -16.3965217783      -0.0000004752     0.999987    0.00013606
   28      -16.3965222406      -0.0000004622     0.999987    0.00013401
   29      -16.3965226930      -0.0000004524     0.999987    0.00013307
   30      -16.3965231381      -0.0000004451     0.999987    0.00013246
   31      -16.3965235777      -0.0000004396     0.999987    0.00013210
   32      -16.3965240132      -0.0000004355     0.999987    0.00013193
   33      -16.3965244459      -0.0000004327     0.999987    0.00013189
   34      -16.3965248766      -0.0000004307     0.999987    0.00013194
   35      -16.3965253060      -0.0000004294     0.999987    0.00013207
   36      -16.3965257346      -0.0000004287     0.999987    0.00013224
   37      -16.3965261630      -0.0000004284     0.999987    0.00013245
   38      -16.3965265914      -0.0000004284     0.999987    0.00013267
   39      -16.3965270201      -0.0000004287     0.999987    0.00013292
   40      -16.3965274493      -0.0000004292     0.999988    0.00013317
   41      -16.3965278793      -0.0000004299     0.999988    0.00013343
   42      -16.3965283100      -0.0000004307     0.999988    0.00013369
   43      -16.3965287416      -0.0000004316     0.999988    0.00013396
   44      -16.3965291741      -0.0000004326     0.999988    0.00013422
   45      -16.3965296078      -0.0000004336     0.999988    0.00013447
   46      -16.3965300424      -0.0000004347     0.999988    0.00013473
   47      -16.3965304782      -0.0000004358     0.999988    0.00013498
   48      -16.3965309151      -0.0000004369     0.999988    0.00013522
   49      -16.3965313531      -0.0000004380     0.999988    0.00013547
   50      -16.3965317923      -0.0000004392     0.999988    0.00013571
   51      -16.3965322326      -0.0000004403     0.999988    0.00013594
   52      -16.3965326740      -0.0000004414     0.999988    0.00013617
   53      -16.3965331166      -0.0000004426     0.999988    0.00013640
   54      -16.3965335603      -0.0000004437     0.999988    0.00013662
   55      -16.3965340051      -0.0000004448     0.999988    0.00013684
   56      -16.3965344511      -0.0000004459     0.999988    0.00013705
   57      -16.3965348981      -0.0000004470     0.999988    0.00013726
   58      -16.3965353462      -0.0000004481     0.999988    0.00013747
   59      -16.3965357954      -0.0000004492     0.999988    0.00013767
   60      -16.3965362457      -0.0000004503     0.999988    0.00013787
   61      -16.3965366970      -0.0000004513     0.999988    0.00013807
   62      -16.3965371493      -0.0000004523     0.999988    0.00013826
   63      -16.3965376026      -0.0000004533     0.999988    0.00013845
   64      -16.3965380570      -0.0000004543     0.999988    0.00013863
   65      -16.3965385123      -0.0000004553     0.999988    0.00013881
   66      -16.3965389686      -0.0000004563     0.999988    0.00013899
   67      -16.3965394258      -0.0000004572     0.999988    0.00013917
   68      -16.3965398839      -0.0000004581     0.999988    0.00013934
   69      -16.3965403430      -0.0000004591     0.999988    0.00013950
   70      -16.3965408029      -0.0000004600     0.999988    0.00013967
   71      -16.3965412638      -0.0000004608     0.999988    0.00013983
   72      -16.3965417254      -0.0000004617     0.999988    0.00013998
   73      -16.3965421880      -0.0000004625     0.999988    0.00014013
   74      -16.3965426513      -0.0000004633     0.999988    0.00014028
   75      -16.3965431154      -0.0000004641     0.999989    0.00014043
   76      -16.3965435804      -0.0000004649     0.999989    0.00014057
   77      -16.3965440461      -0.0000004657     0.999989    0.00014070
   78      -16.3965445125      -0.0000004664     0.999989    0.00014084
   79      -16.3965449796      -0.0000004672     0.999989    0.00014097
   80      -16.3965454475      -0.0000004679     0.999989    0.00014109
   81      -16.3965459160      -0.0000004685     0.999989    0.00014122
   82      -16.3965463853      -0.0000004692     0.999989    0.00014133
   83      -16.3965468551      -0.0000004699     0.999989    0.00014145
   84      -16.3965473256      -0.0000004705     0.999989    0.00014156
   85      -16.3965477967      -0.0000004711     0.999989    0.00014167
   86      -16.3965482684      -0.0000004717     0.999989    0.00014177
   87      -16.3965487406      -0.0000004723     0.999989    0.00014187
   88      -16.3965492134      -0.0000004728     0.999989    0.00014196
   89      -16.3965496868      -0.0000004733     0.999989    0.00014206
   90      -16.3965501606      -0.0000004738     0.999989    0.00014214
   91      -16.3965506349      -0.0000004743     0.999989    0.00014223
   92      -16.3965511097      -0.0000004748     0.999989    0.00014231
   93      -16.3965515850      -0.0000004752     0.999989    0.00014238
   94      -16.3965520607      -0.0000004757     0.999989    0.00014246
   95      -16.3965525367      -0.0000004761     0.999989    0.00014252
   96      -16.3965530132      -0.0000004765     0.999989    0.00014259
   97      -16.3965534900      -0.0000004768     0.999989    0.00014265
   98      -16.3965539672      -0.0000004772     0.999989    0.00014270
   99      -16.3965544447      -0.0000004775     0.999989    0.00014276
  100      -16.3965549226      -0.0000004778     0.999989    0.00014280
  101      -16.3965554007      -0.0000004781     0.999989    0.00014285
  102      -16.3965558790      -0.0000004784     0.999989    0.00014289
  103      -16.3965563576      -0.0000004786     0.999989    0.00014293
  104      -16.3965568365      -0.0000004788     0.999989    0.00014296
  105      -16.3965573155      -0.0000004790     0.999989    0.00014299
  106      -16.3965577948      -0.0000004792     0.999990    0.00014301
  107      -16.3965582742      -0.0000004794     0.999990    0.00014303
  108      -16.3965587537      -0.0000004795     0.999990    0.00014305
  109      -16.3965592334      -0.0000004797     0.999990    0.00014306
  110      -16.3965597131      -0.0000004798     0.999990    0.00014307
  111      -16.3965601930      -0.0000004799     0.999990    0.00014308
  112      -16.3965606729      -0.0000004799     0.999990    0.00014308
  113      -16.3965611529      -0.0000004800     0.999990    0.00014308
  114      -16.3965616328      -0.0000004800     0.999990    0.00014307
  115      -16.3965621128      -0.0000004800     0.999990    0.00014306
  116      -16.3965625928      -0.0000004800     0.999990    0.00014305
  117      -16.3965630727      -0.0000004799     0.999990    0.00014303
  118      -16.3965635526      -0.0000004799     0.999990    0.00014301
  119      -16.3965640324      -0.0000004798     0.999990    0.00014298
  120      -16.3965645121      -0.0000004797     0.999990    0.00014296
  121      -16.3965649917      -0.0000004796     0.999990    0.00014292
  122      -16.3965654712      -0.0000004795     0.999990    0.00014289
  123      -16.3965659505      -0.0000004793     0.999990    0.00014285
  124      -16.3965664296      -0.0000004791     0.999990    0.00014280
  125      -16.3965669086      -0.0000004789     0.999990    0.00014275
  126      -16.3965673873      -0.0000004787     0.999990    0.00014270
  127      -16.3965678658      -0.0000004785     0.999990    0.00014265
  128      -16.3965683441      -0.0000004783     0.999990    0.00014259
  129      -16.3965688221      -0.0000004780     0.999990    0.00014253
  130      -16.3965692998      -0.0000004777     0.999990    0.00014246
  131      -16.3965697772      -0.0000004774     0.999990    0.00014239
  132      -16.3965702543      -0.0000004771     0.999990    0.00014232
  133      -16.3965707310      -0.0000004767     0.999990    0.00014224
  134      -16.3965712074      -0.0000004764     0.999990    0.00014216
  135      -16.3965716834      -0.0000004760     0.999990    0.00014208
  136      -16.3965721590      -0.0000004756     0.999991    0.00014199
  137      -16.3965726342      -0.0000004752     0.999991    0.00014190
  138      -16.3965731090      -0.0000004748     0.999991    0.00014181
  139      -16.3965735834      -0.0000004743     0.999991    0.00014171
  140      -16.3965740572      -0.0000004739     0.999991    0.00014161
  141      -16.3965745306      -0.0000004734     0.999991    0.00014151
  142      -16.3965750035      -0.0000004729     0.999991    0.00014140
  143      -16.3965754759      -0.0000004724     0.999991    0.00014129
  144      -16.3965759477      -0.0000004718     0.999991    0.00014118
  145      -16.3965764190      -0.0000004713     0.999991    0.00014106
  146      -16.3965768898      -0.0000004707     0.999991    0.00014094
  147      -16.3965773599      -0.0000004702     0.999991    0.00014081
  148      -16.3965778295      -0.0000004696     0.999991    0.00014069
  149      -16.3965782984      -0.0000004689     0.999991    0.00014056
  150      -16.3965787667      -0.0000004683     0.999991    0.00014043
  151      -16.3965792344      -0.0000004677     0.999991    0.00014029
  152      -16.3965797014      -0.0000004670     0.999991    0.00014015
  153      -16.3965801678      -0.0000004663     0.999991    0.00014001
  154      -16.3965806335      -0.0000004657     0.999991    0.00013986
  155      -16.3965810984      -0.0000004650     0.999991    0.00013972
  156      -16.3965815627      -0.0000004642     0.999991    0.00013956
  157      -16.3965820262      -0.0000004635     0.999991    0.00013941
  158      -16.3965824889      -0.0000004628     0.999991    0.00013925
  159      -16.3965829510      -0.0000004620     0.999991    0.00013909
  160      -16.3965834122      -0.0000004612     0.999991    0.00013893
  161      -16.3965838726      -0.0000004604     0.999991    0.00013877
  162      -16.3965843323      -0.0000004596     0.999991    0.00013860
  163      -16.3965847911      -0.0000004588     0.999991    0.00013843
  164      -16.3965852491      -0.0000004580     0.999992    0.00013826
  165      -16.3965857063      -0.0000004572     0.999992    0.00013808
  166      -16.3965861626      -0.0000004563     0.999992    0.00013790
  167      -16.3965866181      -0.0000004555     0.999992    0.00013772
  168      -16.3965870727      -0.0000004546     0.999992    0.00013754
  169      -16.3965875263      -0.0000004537     0.999992    0.00013735
  170      -16.3965879791      -0.0000004528     0.999992    0.00013716
  171      -16.3965884310      -0.0000004519     0.999992    0.00013697
  172      -16.3965888820      -0.0000004510     0.999992    0.00013678
  173      -16.3965893320      -0.0000004500     0.999992    0.00013658
  174      -16.3965897811      -0.0000004491     0.999992    0.00013638
  175      -16.3965902292      -0.0000004481     0.999992    0.00013618
  176      -16.3965906763      -0.0000004471     0.999992    0.00013598
  177      -16.3965911225      -0.0000004462     0.999992    0.00013577
  178      -16.3965915677      -0.0000004452     0.999992    0.00013557
  179      -16.3965920119      -0.0000004442     0.999992    0.00013536
  180      -16.3965924550      -0.0000004432     0.999992    0.00013515
  181      -16.3965928972      -0.0000004422     0.999992    0.00013493
  182      -16.3965933383      -0.0000004411     0.999992    0.00013472
  183      -16.3965937784      -0.0000004401     0.999992    0.00013450
  184      -16.3965942175      -0.0000004391     0.999992    0.00013428
  185      -16.3965946555      -0.0000004380     0.999992    0.00013406
  186      -16.3965950924      -0.0000004369     0.999992    0.00013383
  187      -16.3965955283      -0.0000004359     0.999992    0.00013361
  188      -16.3965959631      -0.0000004348     0.999992    0.00013338
  189      -16.3965963967      -0.0000004337     0.999992    0.00013315
  190      -16.3965968293      -0.0000004326     0.999992    0.00013292
  191      -16.3965972608      -0.0000004315     0.999992    0.00013269
  192      -16.3965976912      -0.0000004304     0.999992    0.00013245
  193      -16.3965981205      -0.0000004293     0.999992    0.00013222
  194      -16.3965985486      -0.0000004281     0.999993    0.00013198
  195      -16.3965989756      -0.0000004270     0.999993    0.00013174
  196      -16.3965994015      -0.0000004259     0.999993    0.00013150
  197      -16.3965998262      -0.0000004247     0.999993    0.00013125
  198      -16.3966002498      -0.0000004236     0.999993    0.00013101
  199      -16.3966006722      -0.0000004224     0.999993    0.00013076
  200      -16.3966010934      -0.0000004212     0.999993    0.00013051
  201      -16.3966015135      -0.0000004201     0.999993    0.00013027
  202      -16.3966019324      -0.0000004189     0.999993    0.00013002
  203      -16.3966023501      -0.0000004177     0.999993    0.00013000
  204      -16.3966027667      -0.0000004165     0.999993    0.00013011
  205      -16.3966031820      -0.0000004153     0.999993    0.00013021
  206      -16.3966035961      -0.0000004141     0.999993    0.00013030
  207      -16.3966040091      -0.0000004129     0.999993    0.00013040
  208      -16.3966044208      -0.0000004117     0.999993    0.00013049
  209      -16.3966048313      -0.0000004105     0.999993    0.00013058
  210      -16.3966052406      -0.0000004093     0.999993    0.00013067
  211      -16.3966056487      -0.0000004081     0.999993    0.00013075
  212      -16.3966060556      -0.0000004069     0.999993    0.00013083
  213      -16.3966064612      -0.0000004056     0.999993    0.00013091
  214      -16.3966068656      -0.0000004044     0.999993    0.00013099
  215      -16.3966072688      -0.0000004032     0.999993    0.00013106
  216      -16.3966076707      -0.0000004019     0.999993    0.00013113
  217      -16.3966080714      -0.0000004007     0.999993    0.00013120
  218      -16.3966084709      -0.0000003994     0.999993    0.00013126
  219      -16.3966088691      -0.0000003982     0.999993    0.00013133
  220      -16.3966092660      -0.0000003970     0.999993    0.00013139
  221      -16.3966096617      -0.0000003957     0.999993    0.00013144
  222      -16.3966100562      -0.0000003945     0.999993    0.00013150
  223      -16.3966104494      -0.0000003932     0.999993    0.00013155
  224      -16.3966108413      -0.0000003919     0.999993    0.00013160
  225      -16.3966112320      -0.0000003907     0.999994    0.00013165
  226      -16.3966116214      -0.0000003894     0.999994    0.00013170
  227      -16.3966120095      -0.0000003882     0.999994    0.00013174
  228      -16.3966123964      -0.0000003869     0.999994    0.00013178
  229      -16.3966127821      -0.0000003856     0.999994    0.00013182
  230      -16.3966131664      -0.0000003844     0.999994    0.00013186
  231      -16.3966135495      -0.0000003831     0.999994    0.00013189
  232      -16.3966139313      -0.0000003818     0.999994    0.00013192
  233      -16.3966143119      -0.0000003805     0.999994    0.00013195
  234      -16.3966146912      -0.0000003793     0.999994    0.00013198
  235      -16.3966150692      -0.0000003780     0.999994    0.00013200
  236      -16.3966154459      -0.0000003767     0.999994    0.00013203
  237      -16.3966158214      -0.0000003755     0.999994    0.00013205
  238      -16.3966161956      -0.0000003742     0.999994    0.00013207
  239      -16.3966165685      -0.0000003729     0.999994    0.00013208
  240      -16.3966169401      -0.0000003717     0.999994    0.00013210
  241      -16.3966173105      -0.0000003704     0.999994    0.00013211
  242      -16.3966176796      -0.0000003691     0.999994    0.00013212
  243      -16.3966180475      -0.0000003678     0.999994    0.00013213
  244      -16.3966184140      -0.0000003666     0.999994    0.00013214
  245      -16.3966187793      -0.0000003653     0.999994    0.00013214
  246      -16.3966191434      -0.0000003640     0.999994    0.00013214
  247      -16.3966195061      -0.0000003628     0.999994    0.00013214
  248      -16.3966198676      -0.0000003615     0.999994    0.00013214
  249      -16.3966202278      -0.0000003602     0.999994    0.00013214
  250      -16.3966205868      -0.0000003590     0.999994    0.00013213
  251      -16.3966209445      -0.0000003577     0.999994    0.00013213
  252      -16.3966213010      -0.0000003564     0.999994    0.00013212
  253      -16.3966216561      -0.0000003552     0.999994    0.00013211
  254      -16.3966220101      -0.0000003539     0.999994    0.00013209
  255      -16.3966223627      -0.0000003527     0.999994    0.00013208
  256      -16.3966227141      -0.0000003514     0.999994    0.00013206
  257      -16.3966230643      -0.0000003502     0.999994    0.00013205
  258      -16.3966234132      -0.0000003489     0.999994    0.00013203
  259      -16.3966237609      -0.0000003477     0.999995    0.00013201
  260      -16.3966241073      -0.0000003464     0.999995    0.00013198
  261      -16.3966244525      -0.0000003452     0.999995    0.00013196
  262      -16.3966247964      -0.0000003439     0.999995    0.00013193
  263      -16.3966251391      -0.0000003427     0.999995    0.00013191
  264      -16.3966254805      -0.0000003414     0.999995    0.00013188
  265      -16.3966258207      -0.0000003402     0.999995    0.00013185
  266      -16.3966261597      -0.0000003390     0.999995    0.00013181
  267      -16.3966264974      -0.0000003377     0.999995    0.00013178
  268      -16.3966268340      -0.0000003365     0.999995    0.00013174
  269      -16.3966271693      -0.0000003353     0.999995    0.00013171
  270      -16.3966275033      -0.0000003341     0.999995    0.00013167
  271      -16.3966278362      -0.0000003329     0.999995    0.00013163
  272      -16.3966281678      -0.0000003316     0.999995    0.00013159
  273      -16.3966284983      -0.0000003304     0.999995    0.00013155
  274      -16.3966288275      -0.0000003292     0.999995    0.00013150
  275      -16.3966291555      -0.0000003280     0.999995    0.00013146
  276      -16.3966294823      -0.0000003268     0.999995    0.00013141
  277      -16.3966298079      -0.0000003256     0.999995    0.00013137
  278      -16.3966301323      -0.0000003244     0.999995    0.00013132
  279      -16.3966304556      -0.0000003232     0.999995    0.00013127
  280      -16.3966307776      -0.0000003220     0.999995    0.00013122
  281      -16.3966310984      -0.0000003208     0.999995    0.00013116
  282      -16.3966314181      -0.0000003197     0.999995    0.00013111
  283      -16.3966317366      -0.0000003185     0.999995    0.00013106
  284      -16.3966320539      -0.0000003173     0.999995    0.00013100
  285      -16.3966323700      -0.0000003161     0.999995    0.00013094
  286      -16.3966326850      -0.0000003150     0.999995    0.00013088
  287      -16.3966329988      -0.0000003138     0.999995    0.00013083
  288      -16.3966333115      -0.0000003127     0.999995    0.00013077
  289      -16.3966336230      -0.0000003115     0.999995    0.00013070
  290      -16.3966339333      -0.0000003103     0.999995    0.00013064
  291      -16.3966342425      -0.0000003092     0.999995    0.00013058
  292      -16.3966345506      -0.0000003081     0.999995    0.00013051
  293      -16.3966348575      -0.0000003069     0.999995    0.00013045
  294      -16.3966351633      -0.0000003058     0.999995    0.00013038
  295      -16.3966354679      -0.0000003046     0.999995    0.00013031
  296      -16.3966357714      -0.0000003035     0.999995    0.00013025
  297      -16.3966360738      -0.0000003024     0.999995    0.00013018
  298      -16.3966363751      -0.0000003013     0.999996    0.00013011
  299      -16.3966366753      -0.0000003002     0.999996    0.00013004
  300      -16.3966369743      -0.0000002991     0.999996    0.00012996
  301      -16.3966372723      -0.0000002979     0.999996    0.00012989
  302      -16.3966375691      -0.0000002968     0.999996    0.00012982
  303      -16.3966378649      -0.0000002958     0.999996    0.00012974
  304      -16.3966381595      -0.0000002947     0.999996    0.00012967
  305      -16.3966384531      -0.0000002936     0.999996    0.00012959
  306      -16.3966387456      -0.0000002925     0.999996    0.00012952
  307      -16.3966390370      -0.0000002914     0.999996    0.00012944
  308      -16.3966393273      -0.0000002903     0.999996    0.00012936
  309      -16.3966396166      -0.0000002893     0.999996    0.00012928
  310      -16.3966399048      -0.0000002882     0.999996    0.00012920
  311      -16.3966401919      -0.0000002871     0.999996    0.00012912
  312      -16.3966404780      -0.0000002861     0.999996    0.00012904
  313      -16.3966407630      -0.0000002850     0.999996    0.00012896
  314      -16.3966410470      -0.0000002840     0.999996    0.00012888
  315      -16.3966413299      -0.0000002829     0.999996    0.00012879
  316      -16.3966416118      -0.0000002819     0.999996    0.00012871
  317      -16.3966418927      -0.0000002809     0.999996    0.00012863
  318      -16.3966421725      -0.0000002798     0.999996    0.00012854
  319      -16.3966424514      -0.0000002788     0.999996    0.00012846
  320      -16.3966427291      -0.0000002778     0.999996    0.00012837
  321      -16.3966430059      -0.0000002768     0.999996    0.00012829
  322      -16.3966432817      -0.0000002758     0.999996    0.00012820
  323      -16.3966435565      -0.0000002748     0.999996    0.00012811
  324      -16.3966438302      -0.0000002738     0.999996    0.00012802
  325      -16.3966441030      -0.0000002728     0.999996    0.00012793
  326      -16.3966443748      -0.0000002718     0.999996    0.00012785
  327      -16.3966446456      -0.0000002708     0.999996    0.00012776
  328      -16.3966449154      -0.0000002698     0.999996    0.00012767
  329      -16.3966451842      -0.0000002688     0.999996    0.00012758
  330      -16.3966454521      -0.0000002679     0.999996    0.00012749
  331      -16.3966457189      -0.0000002669     0.999996    0.00012740
  332      -16.3966459849      -0.0000002659     0.999996    0.00012730
  333      -16.3966462498      -0.0000002650     0.999996    0.00012721
  334      -16.3966465139      -0.0000002640     0.999996    0.00012712
  335      -16.3966467769      -0.0000002631     0.999996    0.00012703
  336      -16.3966470391      -0.0000002621     0.999996    0.00012694
  337      -16.3966473003      -0.0000002612     0.999996    0.00012684
  338      -16.3966475605      -0.0000002603     0.999996    0.00012675
  339      -16.3966478198      -0.0000002593     0.999996    0.00012666
  340      -16.3966480782      -0.0000002584     0.999996    0.00012656
  341      -16.3966483357      -0.0000002575     0.999996    0.00012647
  342      -16.3966485923      -0.0000002566     0.999996    0.00012637
  343      -16.3966488479      -0.0000002557     0.999996    0.00012628
  344      -16.3966491027      -0.0000002548     0.999996    0.00012618
  345      -16.3966493565      -0.0000002539     0.999996    0.00012609
  346      -16.3966496095      -0.0000002530     0.999997    0.00012599
  347      -16.3966498616      -0.0000002521     0.999997    0.00012590
  348      -16.3966501127      -0.0000002512     0.999997    0.00012580
  349      -16.3966503630      -0.0000002503     0.999997    0.00012570
  350      -16.3966506125      -0.0000002494     0.999997    0.00012561
  351      -16.3966508610      -0.0000002485     0.999997    0.00012551
  352      -16.3966511087      -0.0000002477     0.999997    0.00012541
  353      -16.3966513555      -0.0000002468     0.999997    0.00012532
  354      -16.3966516015      -0.0000002460     0.999997    0.00012522
  355      -16.3966518466      -0.0000002451     0.999997    0.00012512
  356      -16.3966520908      -0.0000002443     0.999997    0.00012503
  357      -16.3966523343      -0.0000002434     0.999997    0.00012493
  358      -16.3966525768      -0.0000002426     0.999997    0.00012483
  359      -16.3966528186      -0.0000002417     0.999997    0.00012473
  360      -16.3966530595      -0.0000002409     0.999997    0.00012464
  361      -16.3966532996      -0.0000002401     0.999997    0.00012454
  362      -16.3966535388      -0.0000002393     0.999997    0.00012444
  363      -16.3966537773      -0.0000002384     0.999997    0.00012434
  364      -16.3966540149      -0.0000002376     0.999997    0.00012424
  365      -16.3966542517      -0.0000002368     0.999997    0.00012415
  366      -16.3966544878      -0.0000002360     0.999997    0.00012405
  367      -16.3966547230      -0.0000002352     0.999997    0.00012395
  368      -16.3966549574      -0.0000002344     0.999997    0.00012385
  369      -16.3966551911      -0.0000002336     0.999997    0.00012375
  370      -16.3966554240      -0.0000002329     0.999997    0.00012366
  371      -16.3966556560      -0.0000002321     0.999997    0.00012356
  372      -16.3966558874      -0.0000002313     0.999997    0.00012346
  373      -16.3966561179      -0.0000002305     0.999997    0.00012336
  374      -16.3966563477      -0.0000002298     0.999997    0.00012326
  375      -16.3966565767      -0.0000002290     0.999997    0.00012316
  376      -16.3966568049      -0.0000002283     0.999997    0.00012307
  377      -16.3966570324      -0.0000002275     0.999997    0.00012297
  378      -16.3966572592      -0.0000002268     0.999997    0.00012287
  379      -16.3966574852      -0.0000002260     0.999997    0.00012277
  380      -16.3966577105      -0.0000002253     0.999997    0.00012267
  381      -16.3966579350      -0.0000002245     0.999997    0.00012258
  382      -16.3966581588      -0.0000002238     0.999997    0.00012248
  383      -16.3966583819      -0.0000002231     0.999997    0.00012238
  384      -16.3966586042      -0.0000002224     0.999997    0.00012228
  385      -16.3966588259      -0.0000002216     0.999997    0.00012219
  386      -16.3966590468      -0.0000002209     0.999997    0.00012209
  387      -16.3966592670      -0.0000002202     0.999997    0.00012199
  388      -16.3966594865      -0.0000002195     0.999997    0.00012189
  389      -16.3966597053      -0.0000002188     0.999997    0.00012180
  390      -16.3966599234      -0.0000002181     0.999997    0.00012170
  391      -16.3966601408      -0.0000002174     0.999997    0.00012160
  392      -16.3966603576      -0.0000002167     0.999997    0.00012151
  393      -16.3966605736      -0.0000002160     0.999997    0.00012141
  394      -16.3966607890      -0.0000002154     0.999997    0.00012131
  395      -16.3966610037      -0.0000002147     0.999997    0.00012122
  396      -16.3966612177      -0.0000002140     0.999997    0.00012112
  397      -16.3966614311      -0.0000002134     0.999997    0.00012102
  398      -16.3966616437      -0.0000002127     0.999997    0.00012093
  399      -16.3966618558      -0.0000002120     0.999997    0.00012083
  400      -16.3966620672      -0.0000002114     0.999997    0.00012074
  401      -16.3966622779      -0.0000002107     0.999997    0.00012064
  402      -16.3966624880      -0.0000002101     0.999997    0.00012055
  403      -16.3966626974      -0.0000002094     0.999997    0.00012045
  404      -16.3966629062      -0.0000002088     0.999997    0.00012036
  405      -16.3966631143      -0.0000002082     0.999997    0.00012026
  406      -16.3966633219      -0.0000002075     0.999997    0.00012017
  407      -16.3966635288      -0.0000002069     0.999997    0.00012007
  408      -16.3966637351      -0.0000002063     0.999997    0.00011998
  409      -16.3966639407      -0.0000002057     0.999997    0.00011988
  410      -16.3966641458      -0.0000002050     0.999998    0.00011979
  411      -16.3966643502      -0.0000002044     0.999998    0.00011970
  412      -16.3966645540      -0.0000002038     0.999998    0.00011960
  413      -16.3966647572      -0.0000002032     0.999998    0.00011951
  414      -16.3966649599      -0.0000002026     0.999998    0.00011942
  415      -16.3966651619      -0.0000002020     0.999998    0.00011933
  416      -16.3966653633      -0.0000002014     0.999998    0.00011923
  417      -16.3966655641      -0.0000002008     0.999998    0.00011914
  418      -16.3966657644      -0.0000002003     0.999998    0.00011905
  419      -16.3966659641      -0.0000001997     0.999998    0.00011896
  420      -16.3966661632      -0.0000001991     0.999998    0.00011887
  421      -16.3966663617      -0.0000001985     0.999998    0.00011878
  422      -16.3966665597      -0.0000001980     0.999998    0.00011868
  423      -16.3966667571      -0.0000001974     0.999998    0.00011859
  424      -16.3966669539      -0.0000001968     0.999998    0.00011850
  425      -16.3966671501      -0.0000001963     0.999998    0.00011841
  426      -16.3966673459      -0.0000001957     0.999998    0.00011832
  427      -16.3966675410      -0.0000001952     0.999998    0.00011823
  428      -16.3966677356      -0.0000001946     0.999998    0.00011814
  429      -16.3966679297      -0.0000001941     0.999998    0.00011806
  430      -16.3966681232      -0.0000001935     0.999998    0.00011797
  431      -16.3966683162      -0.0000001930     0.999998    0.00011788
  432      -16.3966685086      -0.0000001925     0.999998    0.00011779
  433      -16.3966687006      -0.0000001919     0.999998    0.00011770
  434      -16.3966688920      -0.0000001914     0.999998    0.00011762
  435      -16.3966690828      -0.0000001909     0.999998    0.00011753
  436      -16.3966692732      -0.0000001903     0.999998    0.00011744
  437      -16.3966694630      -0.0000001898     0.999998    0.00011735
  438      -16.3966696523      -0.0000001893     0.999998    0.00011727
  439      -16.3966698411      -0.0000001888     0.999998    0.00011718
  440      -16.3966700294      -0.0000001883     0.999998    0.00011710
  441      -16.3966702172      -0.0000001878     0.999998    0.00011701
  442      -16.3966704045      -0.0000001873     0.999998    0.00011692
  443      -16.3966705913      -0.0000001868     0.999998    0.00011684
  444      -16.3966707776      -0.0000001863     0.999998    0.00011676
  445      -16.3966709634      -0.0000001858     0.999998    0.00011667
  446      -16.3966711487      -0.0000001853     0.999998    0.00011659
  447      -16.3966713336      -0.0000001848     0.999998    0.00011650
  448      -16.3966715179      -0.0000001844     0.999998    0.00011642
  449      -16.3966717018      -0.0000001839     0.999998    0.00011634
  450      -16.3966718852      -0.0000001834     0.999998    0.00011625
  451      -16.3966720682      -0.0000001829     0.999998    0.00011617
  452      -16.3966722506      -0.0000001825     0.999998    0.00011609
  453      -16.3966724326      -0.0000001820     0.999998    0.00011601
  454      -16.3966726142      -0.0000001815     0.999998    0.00011593
  455      -16.3966727953      -0.0000001811     0.999998    0.00011584
  456      -16.3966729759      -0.0000001806     0.999998    0.00011576
  457      -16.3966731560      -0.0000001802     0.999998    0.00011568
  458      -16.3966733358      -0.0000001797     0.999998    0.00011560
  459      -16.3966735150      -0.0000001793     0.999998    0.00011552
  460      -16.3966736939      -0.0000001788     0.999998    0.00011544
  461      -16.3966738723      -0.0000001784     0.999998    0.00011536
  462      -16.3966740502      -0.0000001780     0.999998    0.00011529
  463      -16.3966742277      -0.0000001775     0.999998    0.00011521
  464      -16.3966744048      -0.0000001771     0.999998    0.00011513
  465      -16.3966745815      -0.0000001767     0.999998    0.00011505
  466      -16.3966747577      -0.0000001762     0.999998    0.00011497
  467      -16.3966749335      -0.0000001758     0.999998    0.00011490
  468      -16.3966751089      -0.0000001754     0.999998    0.00011482
  469      -16.3966752838      -0.0000001750     0.999998    0.00011474
  470      -16.3966754584      -0.0000001745     0.999998    0.00011467
  471      -16.3966756325      -0.0000001741     0.999998    0.00011459
  472      -16.3966758063      -0.0000001737     0.999998    0.00011451
  473      -16.3966759796      -0.0000001733     0.999998    0.00011444
  474      -16.3966761525      -0.0000001729     0.999998    0.00011436
  475      -16.3966763250      -0.0000001725     0.999998    0.00011429
  476      -16.3966764971      -0.0000001721     0.999998    0.00011422
  477      -16.3966766688      -0.0000001717     0.999998    0.00011414
  478      -16.3966768402      -0.0000001713     0.999998    0.00011407
  479      -16.3966770111      -0.0000001709     0.999998    0.00011399
  480      -16.3966771817      -0.0000001706     0.999998    0.00011392
  481      -16.3966773518      -0.0000001702     0.999998    0.00011385
  482      -16.3966775216      -0.0000001698     0.999998    0.00011378
  483      -16.3966776910      -0.0000001694     0.999998    0.00011370
  484      -16.3966778600      -0.0000001690     0.999998    0.00011363
  485      -16.3966780287      -0.0000001687     0.999998    0.00011356
  486      -16.3966781970      -0.0000001683     0.999998    0.00011349
  487      -16.3966783649      -0.0000001679     0.999998    0.00011342
  488      -16.3966785324      -0.0000001675     0.999998    0.00011335
  489      -16.3966786996      -0.0000001672     0.999998    0.00011328
  490      -16.3966788664      -0.0000001668     0.999998    0.00011321
  491      -16.3966790329      -0.0000001665     0.999998    0.00011314
  492      -16.3966791990      -0.0000001661     0.999998    0.00011307
  493      -16.3966793647      -0.0000001657     0.999998    0.00011300
  494      -16.3966795301      -0.0000001654     0.999998    0.00011294
  495      -16.3966796952      -0.0000001650     0.999998    0.00011287
  496      -16.3966798599      -0.0000001647     0.999998    0.00011280
  497      -16.3966800242      -0.0000001644     0.999998    0.00011273
  498      -16.3966801882      -0.0000001640     0.999998    0.00011267
  499      -16.3966803519      -0.0000001637     0.999998    0.00011260
  500      -16.3966805152      -0.0000001633     0.999998    0.00011253
  501      -16.3966806782      -0.0000001630     0.999998    0.00011247
  502      -16.3966808409      -0.0000001627     0.999998    0.00011240
  503      -16.3966810032      -0.0000001623     0.999998    0.00011234
  504      -16.3966811652      -0.0000001620     0.999998    0.00011227
  505      -16.3966813269      -0.0000001617     0.999998    0.00011221
  506      -16.3966814882      -0.0000001614     0.999999    0.00011214
  507      -16.3966816493      -0.0000001610     0.999999    0.00011208
  508      -16.3966818100      -0.0000001607     0.999999    0.00011202
  509      -16.3966819704      -0.0000001604     0.999999    0.00011195
  510      -16.3966821304      -0.0000001601     0.999999    0.00011189
  511      -16.3966822902      -0.0000001598     0.999999    0.00011183
  512      -16.3966824497      -0.0000001595     0.999999    0.00011176
  513      -16.3966826088      -0.0000001591     0.999999    0.00011170
  514      -16.3966827676      -0.0000001588     0.999999    0.00011164
  515      -16.3966829262      -0.0000001585     0.999999    0.00011158
  516      -16.3966830844      -0.0000001582     0.999999    0.00011152
  517      -16.3966832423      -0.0000001579     0.999999    0.00011146
  518      -16.3966834000      -0.0000001576     0.999999    0.00011140
  519      -16.3966835573      -0.0000001573     0.999999    0.00011134
  520      -16.3966837143      -0.0000001570     0.999999    0.00011128
  521      -16.3966838711      -0.0000001568     0.999999    0.00011122
  522      -16.3966840276      -0.0000001565     0.999999    0.00011116
  523      -16.3966841837      -0.0000001562     0.999999    0.00011110
  524      -16.3966843396      -0.0000001559     0.999999    0.00011104
  525      -16.3966844952      -0.0000001556     0.999999    0.00011098
  526      -16.3966846505      -0.0000001553     0.999999    0.00011093
  527      -16.3966848056      -0.0000001550     0.999999    0.00011087
  528      -16.3966849604      -0.0000001548     0.999999    0.00011081
  529      -16.3966851148      -0.0000001545     0.999999    0.00011075
  530      -16.3966852691      -0.0000001542     0.999999    0.00011070
  531      -16.3966854230      -0.0000001539     0.999999    0.00011064
  532      -16.3966855767      -0.0000001537     0.999999    0.00011059
  533      -16.3966857301      -0.0000001534     0.999999    0.00011053
  534      -16.3966858832      -0.0000001531     0.999999    0.00011047
  535      -16.3966860361      -0.0000001529     0.999999    0.00011042
  536      -16.3966861887      -0.0000001526     0.999999    0.00011036
  537      -16.3966863410      -0.0000001523     0.999999    0.00011031
  538      -16.3966864931      -0.0000001521     0.999999    0.00011026
  539      -16.3966866450      -0.0000001518     0.999999    0.00011020
  540      -16.3966867965      -0.0000001516     0.999999    0.00011015
  541      -16.3966869479      -0.0000001513     0.999999    0.00011009
  542      -16.3966870989      -0.0000001511     0.999999    0.00011004
  543      -16.3966872497      -0.0000001508     0.999999    0.00010999
  544      -16.3966874003      -0.0000001506     0.999999    0.00010994
  545      -16.3966875506      -0.0000001503     0.999999    0.00010988
  546      -16.3966877007      -0.0000001501     0.999999    0.00010983
  547      -16.3966878506      -0.0000001498     0.999999    0.00010978
  548      -16.3966880001      -0.0000001496     0.999999    0.00010973
  549      -16.3966881495      -0.0000001494     0.999999    0.00010968
  550      -16.3966882986      -0.0000001491     0.999999    0.00010963
  551      -16.3966884475      -0.0000001489     0.999999    0.00010958
  552      -16.3966885961      -0.0000001486     0.999999    0.00010953
  553      -16.3966887445      -0.0000001484     0.999999    0.00010948
  554      -16.3966888927      -0.0000001482     0.999999    0.00010943
  555      -16.3966890407      -0.0000001479     0.999999    0.00010938
  556      -16.3966891884      -0.0000001477     0.999999    0.00010933
  557      -16.3966893359      -0.0000001475     0.999999    0.00010928
  558      -16.3966894831      -0.0000001473     0.999999    0.00010923
  559      -16.3966896302      -0.0000001470     0.999999    0.00010918
  560      -16.3966897770      -0.0000001468     0.999999    0.00010913
  561      -16.3966899236      -0.0000001466     0.999999    0.00010909
  562      -16.3966900700      -0.0000001464     0.999999    0.00010904
  563      -16.3966902162      -0.0000001462     0.999999    0.00010899
  564      -16.3966903621      -0.0000001459     0.999999    0.00010894
  565      -16.3966905078      -0.0000001457     0.999999    0.00010890
  566      -16.3966906533      -0.0000001455     0.999999    0.00010885
  567      -16.3966907987      -0.0000001453     0.999999    0.00010880
  568      -16.3966909437      -0.0000001451     0.999999    0.00010876
  569      -16.3966910886      -0.0000001449     0.999999    0.00010871
  570      -16.3966912333      -0.0000001447     0.999999    0.00010867
  571      -16.3966913778      -0.0000001445     0.999999    0.00010862
  572      -16.3966915221      -0.0000001443     0.999999    0.00010858
  573      -16.3966916661      -0.0000001441     0.999999    0.00010853
  574      -16.3966918100      -0.0000001439     0.999999    0.00010849
  575      -16.3966919536      -0.0000001437     0.999999    0.00010844
  576      -16.3966920971      -0.0000001435     0.999999    0.00010840
  577      -16.3966922404      -0.0000001433     0.999999    0.00010835
  578      -16.3966923834      -0.0000001431     0.999999    0.00010831
  579      -16.3966925263      -0.0000001429     0.999999    0.00010827
  580      -16.3966926690      -0.0000001427     0.999999    0.00010822
  581      -16.3966928115      -0.0000001425     0.999999    0.00010818
  582      -16.3966929538      -0.0000001423     0.999999    0.00010814
  583      -16.3966930959      -0.0000001421     0.999999    0.00010809
  584      -16.3966932378      -0.0000001419     0.999999    0.00010805
  585      -16.3966933795      -0.0000001417     0.999999    0.00010801
  586      -16.3966935211      -0.0000001415     0.999999    0.00010797
  587      -16.3966936624      -0.0000001414     0.999999    0.00010792
  588      -16.3966938036      -0.0000001412     0.999999    0.00010788
  589      -16.3966939446      -0.0000001410     0.999999    0.00010784
  590      -16.3966940854      -0.0000001408     0.999999    0.00010780
  591      -16.3966942260      -0.0000001406     0.999999    0.00010776
  592      -16.3966943665      -0.0000001405     0.999999    0.00010772
  593      -16.3966945068      -0.0000001403     0.999999    0.00010768
  594      -16.3966946468      -0.0000001401     0.999999    0.00010764
  595      -16.3966947868      -0.0000001399     0.999999    0.00010760
  596      -16.3966949265      -0.0000001397     0.999999    0.00010756
  597      -16.3966950661      -0.0000001396     0.999999    0.00010752
  598      -16.3966952055      -0.0000001394     0.999999    0.00010748
  599      -16.3966953447      -0.0000001392     0.999999    0.00010744
  600      -16.3966954838      -0.0000001391     0.999999    0.00010740
  601      -16.3966956227      -0.0000001389     0.999999    0.00010736
  602      -16.3966957614      -0.0000001387     0.999999    0.00010732
  603      -16.3966959000      -0.0000001386     0.999999    0.00010728
  604      -16.3966960383      -0.0000001384     0.999999    0.00010724
  605      -16.3966961766      -0.0000001382     0.999999    0.00010720
  606      -16.3966963146      -0.0000001381     0.999999    0.00010716
  607      -16.3966964525      -0.0000001379     0.999999    0.00010712
  608      -16.3966965903      -0.0000001377     0.999999    0.00010709
  609      -16.3966967279      -0.0000001376     0.999999    0.00010705
  610      -16.3966968653      -0.0000001374     0.999999    0.00010701
  611      -16.3966970025      -0.0000001373     0.999999    0.00010697
  612      -16.3966971396      -0.0000001371     0.999999    0.00010693
  613      -16.3966972766      -0.0000001369     0.999999    0.00010690
  614      -16.3966974134      -0.0000001368     0.999999    0.00010686
  615      -16.3966975500      -0.0000001366     0.999999    0.00010682
  616      -16.3966976865      -0.0000001365     0.999999    0.00010679
  617      -16.3966978228      -0.0000001363     0.999999    0.00010675
  618      -16.3966979590      -0.0000001362     0.999999    0.00010671
  619      -16.3966980950      -0.0000001360     0.999999    0.00010668
  620      -16.3966982309      -0.0000001359     0.999999    0.00010664
  621      -16.3966983666      -0.0000001357     0.999999    0.00010660
  622      -16.3966985022      -0.0000001356     0.999999    0.00010657
  623      -16.3966986376      -0.0000001354     0.999999    0.00010653
  624      -16.3966987729      -0.0000001353     0.999999    0.00010649
  625      -16.3966989081      -0.0000001351     0.999999    0.00010646
  626      -16.3966990431      -0.0000001350     0.999999    0.00010642
  627      -16.3966991779      -0.0000001348     0.999999    0.00010639
  628      -16.3966993126      -0.0000001347     0.999999    0.00010635
  629      -16.3966994472      -0.0000001346     0.999999    0.00010631
  630      -16.3966995816      -0.0000001344     0.999999    0.00010628
  631      -16.3966997159      -0.0000001343     0.999999    0.00010624
  632      -16.3966998500      -0.0000001341     0.999999    0.00010621
  633      -16.3966999840      -0.0000001340     0.999999    0.00010617
  634      -16.3967001179      -0.0000001339     0.999999    0.00010614
  635      -16.3967002516      -0.0000001337     0.999999    0.00010610
  636      -16.3967003852      -0.0000001336     0.999999    0.00010607
  637      -16.3967005186      -0.0000001335     0.999999    0.00010603
  638      -16.3967006520      -0.0000001333     0.999999    0.00010600
  639      -16.3967007851      -0.0000001332     0.999999    0.00010596
  640      -16.3967009182      -0.0000001330     0.999999    0.00010593
  641      -16.3967010511      -0.0000001329     0.999999    0.00010589
  642      -16.3967011839      -0.0000001328     0.999999    0.00010586
  643      -16.3967013165      -0.0000001326     0.999999    0.00010582
  644      -16.3967014490      -0.0000001325     0.999999    0.00010579
  645      -16.3967015814      -0.0000001324     0.999999    0.00010575
  646      -16.3967017137      -0.0000001323     0.999999    0.00010572
  647      -16.3967018458      -0.0000001321     0.999999    0.00010569
  648      -16.3967019778      -0.0000001320     0.999999    0.00010565
  649      -16.3967021097      -0.0000001319     0.999999    0.00010562
  650      -16.3967022414      -0.0000001317     0.999999    0.00010558
  651      -16.3967023730      -0.0000001316     0.999999    0.00010555
  652      -16.3967025045      -0.0000001315     0.999999    0.00010551
  653      -16.3967026358      -0.0000001314     0.999999    0.00010548
  654      -16.3967027671      -0.0000001312     0.999999    0.00010545
  655      -16.3967028982      -0.0000001311     0.999999    0.00010541
  656      -16.3967030292      -0.0000001310     0.999999    0.00010538
  657      -16.3967031600      -0.0000001309     0.999999    0.00010534
  658      -16.3967032907      -0.0000001307     0.999999    0.00010531
  659      -16.3967034214      -0.0000001306     0.999999    0.00010528
  660      -16.3967035518      -0.0000001305     0.999999    0.00010524
  661      -16.3967036822      -0.0000001304     0.999999    0.00010521
  662      -16.3967038125      -0.0000001302     0.999999    0.00010517
  663      -16.3967039426      -0.0000001301     0.999999    0.00010514
  664      -16.3967040726      -0.0000001300     0.999999    0.00010510
  665      -16.3967042025      -0.0000001299     0.999999    0.00010507
  666      -16.3967043322      -0.0000001298     0.999999    0.00010504
  667      -16.3967044619      -0.0000001296     0.999999    0.00010500
  668      -16.3967045914      -0.0000001295     0.999999    0.00010497
  669      -16.3967047208      -0.0000001294     0.999999    0.00010493
  670      -16.3967048501      -0.0000001293     0.999999    0.00010490
  671      -16.3967049792      -0.0000001292     0.999999    0.00010487
  672      -16.3967051083      -0.0000001291     0.999999    0.00010483
  673      -16.3967052372      -0.0000001289     0.999999    0.00010480
  674      -16.3967053660      -0.0000001288     0.999999    0.00010476
  675      -16.3967054947      -0.0000001287     0.999999    0.00010473
  676      -16.3967056233      -0.0000001286     0.999999    0.00010469
  677      -16.3967057518      -0.0000001285     0.999999    0.00010466
  678      -16.3967058802      -0.0000001284     0.999999    0.00010462
  679      -16.3967060084      -0.0000001282     0.999999    0.00010459
  680      -16.3967061365      -0.0000001281     0.999999    0.00010455
  681      -16.3967062645      -0.0000001280     0.999999    0.00010452
  682      -16.3967063924      -0.0000001279     0.999999    0.00010449
  683      -16.3967065202      -0.0000001278     0.999999    0.00010445
  684      -16.3967066479      -0.0000001277     0.999999    0.00010442
  685      -16.3967067754      -0.0000001276     0.999999    0.00010438
  686      -16.3967069029      -0.0000001274     0.999999    0.00010435
  687      -16.3967070302      -0.0000001273     0.999999    0.00010431
  688      -16.3967071574      -0.0000001272     0.999999    0.00010427
  689      -16.3967072845      -0.0000001271     0.999999    0.00010424
  690      -16.3967074115      -0.0000001270     0.999999    0.00010420
  691      -16.3967075384      -0.0000001269     0.999999    0.00010417
  692      -16.3967076652      -0.0000001268     0.999999    0.00010413
  693      -16.3967077918      -0.0000001267     0.999999    0.00010410
  694      -16.3967079184      -0.0000001265     0.999999    0.00010406
  695      -16.3967080448      -0.0000001264     0.999999    0.00010402
  696      -16.3967081711      -0.0000001263     0.999999    0.00010399
  697      -16.3967082974      -0.0000001262     0.999999    0.00010395
  698      -16.3967084235      -0.0000001261     0.999999    0.00010392
  699      -16.3967085495      -0.0000001260     0.999999    0.00010388
  700      -16.3967086753      -0.0000001259     0.999999    0.00010384
  701      -16.3967088011      -0.0000001258     0.999999    0.00010381
  702      -16.3967089268      -0.0000001257     0.999999    0.00010377
  703      -16.3967090523      -0.0000001256     0.999999    0.00010373
  704      -16.3967091778      -0.0000001254     0.999999    0.00010370
  705      -16.3967093031      -0.0000001253     1.000000    0.00010366
  706      -16.3967094283      -0.0000001252     1.000000    0.00010362
  707      -16.3967095534      -0.0000001251     1.000000    0.00010358
  708      -16.3967096784      -0.0000001250     1.000000    0.00010355
  709      -16.3967098033      -0.0000001249     1.000000    0.00010351
  710      -16.3967099281      -0.0000001248     1.000000    0.00010347
  711      -16.3967100528      -0.0000001247     1.000000    0.00010343
  712      -16.3967101774      -0.0000001246     1.000000    0.00010339
  713      -16.3967103018      -0.0000001245     1.000000    0.00010335
  714      -16.3967104262      -0.0000001243     1.000000    0.00010332
  715      -16.3967105504      -0.0000001242     1.000000    0.00010328
  716      -16.3967106745      -0.0000001241     1.000000    0.00010324
  717      -16.3967107985      -0.0000001240     1.000000    0.00010320
  718      -16.3967109225      -0.0000001239     1.000000    0.00010316
  719      -16.3967110462      -0.0000001238     1.000000    0.00010312
  720      -16.3967111699      -0.0000001237     1.000000    0.00010308
  721      -16.3967112935      -0.0000001236     1.000000    0.00010304
  722      -16.3967114170      -0.0000001235     1.000000    0.00010300
  723      -16.3967115403      -0.0000001234     1.000000    0.00010296
  724      -16.3967116636      -0.0000001232     1.000000    0.00010292
  725      -16.3967117867      -0.0000001231     1.000000    0.00010288
  726      -16.3967119098      -0.0000001230     1.000000    0.00010284
  727      -16.3967120327      -0.0000001229     1.000000    0.00010279
  728      -16.3967121555      -0.0000001228     1.000000    0.00010275
  729      -16.3967122782      -0.0000001227     1.000000    0.00010271
  730      -16.3967124008      -0.0000001226     1.000000    0.00010267
  731      -16.3967125232      -0.0000001225     1.000000    0.00010263
  732      -16.3967126456      -0.0000001224     1.000000    0.00010258
  733      -16.3967127678      -0.0000001223     1.000000    0.00010254
  734      -16.3967128900      -0.0000001221     1.000000    0.00010250
  735      -16.3967130120      -0.0000001220     1.000000    0.00010246
  736      -16.3967131339      -0.0000001219     1.000000    0.00010241
  737      -16.3967132557      -0.0000001218     1.000000    0.00010237
  738      -16.3967133774      -0.0000001217     1.000000    0.00010232
  739      -16.3967134990      -0.0000001216     1.000000    0.00010228
  740      -16.3967136205      -0.0000001215     1.000000    0.00010224
  741      -16.3967137418      -0.0000001214     1.000000    0.00010219
  742      -16.3967138631      -0.0000001212     1.000000    0.00010215
  743      -16.3967139842      -0.0000001211     1.000000    0.00010210
  744      -16.3967141052      -0.0000001210     1.000000    0.00010206
  745      -16.3967142261      -0.0000001209     1.000000    0.00010201
  746      -16.3967143469      -0.0000001208     1.000000    0.00010196
  747      -16.3967144676      -0.0000001207     1.000000    0.00010192
  748      -16.3967145881      -0.0000001206     1.000000    0.00010187
  749      -16.3967147086      -0.0000001204     1.000000    0.00010182
  750      -16.3967148289      -0.0000001203     1.000000    0.00010178
  751      -16.3967149491      -0.0000001202     1.000000    0.00010173
  752      -16.3967150692      -0.0000001201     1.000000    0.00010168
  753      -16.3967151892      -0.0000001200     1.000000    0.00010163
  754      -16.3967153090      -0.0000001199     1.000000    0.00010158
  755      -16.3967154288      -0.0000001197     1.000000    0.00010154
  756      -16.3967155484      -0.0000001196     1.000000    0.00010149
  757      -16.3967156679      -0.0000001195     1.000000    0.00010144
  758      -16.3967157873      -0.0000001194     1.000000    0.00010139
  759      -16.3967159066      -0.0000001193     1.000000    0.00010134
  760      -16.3967160257      -0.0000001192     1.000000    0.00010129
  761      -16.3967161448      -0.0000001190     1.000000    0.00010124
  762      -16.3967162637      -0.0000001189     1.000000    0.00010118
  763      -16.3967163825      -0.0000001188     1.000000    0.00010113
  764      -16.3967165011      -0.0000001187     1.000000    0.00010108
  765      -16.3967166197      -0.0000001186     1.000000    0.00010103
  766      -16.3967167381      -0.0000001184     1.000000    0.00010098
  767      -16.3967168564      -0.0000001183     1.000000    0.00010092
  768      -16.3967169746      -0.0000001182     1.000000    0.00010087
  769      -16.3967170927      -0.0000001181     1.000000    0.00010082
  770      -16.3967172106      -0.0000001179     1.000000    0.00010076
  771      -16.3967173284      -0.0000001178     1.000000    0.00010071
  772      -16.3967174461      -0.0000001177     1.000000    0.00010065
  773      -16.3967175637      -0.0000001176     1.000000    0.00010060
  774      -16.3967176811      -0.0000001174     1.000000    0.00010054
  775      -16.3967177984      -0.0000001173     1.000000    0.00010049
  776      -16.3967179156      -0.0000001172     1.000000    0.00010043
  777      -16.3967180327      -0.0000001171     1.000000    0.00010038
  778      -16.3967181496      -0.0000001169     1.000000    0.00010032
  779      -16.3967182664      -0.0000001168     1.000000    0.00010026
  780      -16.3967183831      -0.0000001167     1.000000    0.00010020
  781      -16.3967184997      -0.0000001165     1.000000    0.00010015
  782      -16.3967186161      -0.0000001164     1.000000    0.00010009
  783      -16.3967187324      -0.0000001163     1.000000    0.00010003
  784      -16.3967188485      -0.0000001162     1.000000    0.00009997
  785      -16.3967189646      -0.0000001160     1.000000    0.00009991
  786      -16.3967190805      -0.0000001159     1.000000    0.00009985
  787      -16.3967191962      -0.0000001158     1.000000    0.00009979
  788      -16.3967193119      -0.0000001156     1.000000    0.00009973
  789      -16.3967194274      -0.0000001155     1.000000    0.00009967
  790      -16.3967195427      -0.0000001154     1.000000    0.00009960
  791      -16.3967196579      -0.0000001152     1.000000    0.00009954
  792      -16.3967197730      -0.0000001151     1.000000    0.00009948
  793      -16.3967198880      -0.0000001150     1.000000    0.00009942
  794      -16.3967200028      -0.0000001148     1.000000    0.00009935
  795      -16.3967201175      -0.0000001147     1.000000    0.00009929
  796      -16.3967202320      -0.0000001145     1.000000    0.00009922
  797      -16.3967203465      -0.0000001144     1.000000    0.00009916
  798      -16.3967204607      -0.0000001143     1.000000    0.00009909
  799      -16.3967205748      -0.0000001141     1.000000    0.00009903
  800      -16.3967206888      -0.0000001140     1.000000    0.00009896
  801      -16.3967208027      -0.0000001138     1.000000    0.00009890
  802      -16.3967209164      -0.0000001137     1.000000    0.00009883
  803      -16.3967210299      -0.0000001136     1.000000    0.00009876
  804      -16.3967211434      -0.0000001134     1.000000    0.00009869
  805      -16.3967212566      -0.0000001133     1.000000    0.00009862
  806      -16.3967213698      -0.0000001131     1.000000    0.00009856
  807      -16.3967214827      -0.0000001130     1.000000    0.00009849
  808      -16.3967215956      -0.0000001128     1.000000    0.00009842
  809      -16.3967217083      -0.0000001127     1.000000    0.00009835
  810      -16.3967218208      -0.0000001125     1.000000    0.00009827
  811      -16.3967219332      -0.0000001124     1.000000    0.00009820
  812      -16.3967220455      -0.0000001122     1.000000    0.00009813
  813      -16.3967221576      -0.0000001121     1.000000    0.00009806
  814      -16.3967222695      -0.0000001119     1.000000    0.00009799
  815      -16.3967223813      -0.0000001118     1.000000    0.00009791
  816      -16.3967224929      -0.0000001116     1.000000    0.00009784
  817      -16.3967226044      -0.0000001115     1.000000    0.00009777
  818      -16.3967227158      -0.0000001113     1.000000    0.00009769
  819      -16.3967228269      -0.0000001112     1.000000    0.00009762
  820      -16.3967229380      -0.0000001110     1.000000    0.00009754
  821      -16.3967230488      -0.0000001109     1.000000    0.00009746
  822      -16.3967231595      -0.0000001107     1.000000    0.00009739
  823      -16.3967232701      -0.0000001106     1.000000    0.00009731
  824      -16.3967233805      -0.0000001104     1.000000    0.00009723
  825      -16.3967234907      -0.0000001102     1.000000    0.00009715
  826      -16.3967236008      -0.0000001101     1.000000    0.00009707
  827      -16.3967237107      -0.0000001099     1.000000    0.00009699
  828      -16.3967238205      -0.0000001098     1.000000    0.00009691
  829      -16.3967239301      -0.0000001096     1.000000    0.00009683
  830      -16.3967240395      -0.0000001094     1.000000    0.00009675
  831      -16.3967241488      -0.0000001093     1.000000    0.00009667
  832      -16.3967242579      -0.0000001091     1.000000    0.00009659
  833      -16.3967243668      -0.0000001089     1.000000    0.00009651
  834      -16.3967244756      -0.0000001088     1.000000    0.00009642
  835      -16.3967245842      -0.0000001086     1.000000    0.00009634
  836      -16.3967246926      -0.0000001084     1.000000    0.00009626
  837      -16.3967248009      -0.0000001083     1.000000    0.00009617
  838      -16.3967249089      -0.0000001081     1.000000    0.00009609
  839      -16.3967250169      -0.0000001079     1.000000    0.00009600
  840      -16.3967251246      -0.0000001078     1.000000    0.00009592
  841      -16.3967252322      -0.0000001076     1.000000    0.00009583
  842      -16.3967253396      -0.0000001074     1.000000    0.00009574
  843      -16.3967254468      -0.0000001072     1.000000    0.00009565
  844      -16.3967255539      -0.0000001071     1.000000    0.00009556
  845      -16.3967256608      -0.0000001069     1.000000    0.00009548
  846      -16.3967257675      -0.0000001067     1.000000    0.00009539
  847      -16.3967258740      -0.0000001065     1.000000    0.00009530
  848      -16.3967259803      -0.0000001063     1.000000    0.00009521
  849      -16.3967260865      -0.0000001062     1.000000    0.00009511
  850      -16.3967261925      -0.0000001060     1.000000    0.00009502
  851      -16.3967262983      -0.0000001058     1.000000    0.00009493
  852      -16.3967264039      -0.0000001056     1.000000    0.00009484
  853      -16.3967265094      -0.0000001054     1.000000    0.00009474
  854      -16.3967266146      -0.0000001053     1.000000    0.00009465
  855      -16.3967267197      -0.0000001051     1.000000    0.00009456
  856      -16.3967268246      -0.0000001049     1.000000    0.00009446
  857      -16.3967269293      -0.0000001047     1.000000    0.00009436
  858      -16.3967270338      -0.0000001045     1.000000    0.00009427
  859      -16.3967271381      -0.0000001043     1.000000    0.00009417
  860      -16.3967272422      -0.0000001041     1.000000    0.00009407
  861      -16.3967273462      -0.0000001039     1.000000    0.00009398
  862      -16.3967274499      -0.0000001038     1.000000    0.00009388
  863      -16.3967275535      -0.0000001036     1.000000    0.00009378
  864      -16.3967276568      -0.0000001034     1.000000    0.00009368
  865      -16.3967277600      -0.0000001032     1.000000    0.00009358
  866      -16.3967278630      -0.0000001030     1.000000    0.00009348
  867      -16.3967279658      -0.0000001028     1.000000    0.00009338
  868      -16.3967280684      -0.0000001026     1.000000    0.00009327
  869      -16.3967281707      -0.0000001024     1.000000    0.00009317
  870      -16.3967282729      -0.0000001022     1.000000    0.00009307
  871      -16.3967283749      -0.0000001020     1.000000    0.00009296
  872      -16.3967284767      -0.0000001018     1.000000    0.00009286
  873      -16.3967285783      -0.0000001016     1.000000    0.00009276
  874      -16.3967286797      -0.0000001014     1.000000    0.00009265
  875      -16.3967287809      -0.0000001012     1.000000    0.00009254
  876      -16.3967288818      -0.0000001010     1.000000    0.00009244
  877      -16.3967289826      -0.0000001008     1.000000    0.00009233
  878      -16.3967290832      -0.0000001006     1.000000    0.00009222
  879      -16.3967291835      -0.0000001004     1.000000    0.00009211
  880      -16.3967292837      -0.0000001002     1.000000    0.00009200
  881      -16.3967293836      -0.0000000999     1.000000    0.00009190
  882      -16.3967294834      -0.0000000997     1.000000    0.00009179
  883      -16.3967295829      -0.0000000995     1.000000    0.00009167
  884      -16.3967296822      -0.0000000993     1.000000    0.00009156
  885      -16.3967297813      -0.0000000991     1.000000    0.00009145
  886      -16.3967298802      -0.0000000989     1.000000    0.00009134
  887      -16.3967299789      -0.0000000987     1.000000    0.00009123
  888      -16.3967300773      -0.0000000985     1.000000    0.00009111
  889      -16.3967301756      -0.0000000982     1.000000    0.00009100
  890      -16.3967302736      -0.0000000980     1.000000    0.00009088
  891      -16.3967303714      -0.0000000978     1.000000    0.00009077
  892      -16.3967304690      -0.0000000976     1.000000    0.00009065
  893      -16.3967305664      -0.0000000974     1.000000    0.00009053
  894      -16.3967306636      -0.0000000972     1.000000    0.00009042
  895      -16.3967307605      -0.0000000969     1.000000    0.00009030
  896      -16.3967308572      -0.0000000967     1.000000    0.00009018
  897      -16.3967309537      -0.0000000965     1.000000    0.00009006
  898      -16.3967310500      -0.0000000963     1.000000    0.00008994
  899      -16.3967311460      -0.0000000960     1.000000    0.00008982
  900      -16.3967312418      -0.0000000958     1.000000    0.00008970
  901      -16.3967313374      -0.0000000956     1.000000    0.00008958
  902      -16.3967314328      -0.0000000954     1.000000    0.00008946
  903      -16.3967315279      -0.0000000951     1.000000    0.00008934
  904      -16.3967316228      -0.0000000949     1.000000    0.00008921
  905      -16.3967317175      -0.0000000947     1.000000    0.00008909
  906      -16.3967318119      -0.0000000944     1.000000    0.00008897
  907      -16.3967319061      -0.0000000942     1.000000    0.00008884
  908      -16.3967320001      -0.0000000940     1.000000    0.00008872
  909      -16.3967320939      -0.0000000937     1.000000    0.00008859
  910      -16.3967321874      -0.0000000935     1.000000    0.00008846
  911      -16.3967322806      -0.0000000933     1.000000    0.00008834
  912      -16.3967323737      -0.0000000930     1.000000    0.00008821
  913      -16.3967324665      -0.0000000928     1.000000    0.00008808
  914      -16.3967325591      -0.0000000926     1.000000    0.00008795
  915      -16.3967326514      -0.0000000923     1.000000    0.00008782
  916      -16.3967327435      -0.0000000921     1.000000    0.00008769
  917      -16.3967328353      -0.0000000919     1.000000    0.00008756
  918      -16.3967329270      -0.0000000916     1.000000    0.00008743
  919      -16.3967330183      -0.0000000914     1.000000    0.00008730
  920      -16.3967331095      -0.0000000911     1.000000    0.00008717
  921      -16.3967332003      -0.0000000909     1.000000    0.00008703
  922      -16.3967332910      -0.0000000906     1.000000    0.00008690
  923      -16.3967333814      -0.0000000904     1.000000    0.00008677
  924      -16.3967334715      -0.0000000902     1.000000    0.00008663
  925      -16.3967335614      -0.0000000899     1.000000    0.00008650
  926      -16.3967336511      -0.0000000897     1.000000    0.00008636
  927      -16.3967337405      -0.0000000894     1.000000    0.00008622
  928      -16.3967338297      -0.0000000892     1.000000    0.00008609
  929      -16.3967339186      -0.0000000889     1.000000    0.00008595
  930      -16.3967340073      -0.0000000887     1.000000    0.00008581
  931      -16.3967340957      -0.0000000884     1.000000    0.00008567
  932      -16.3967341838      -0.0000000882     1.000000    0.00008553
  933      -16.3967342718      -0.0000000879     1.000000    0.00008540
  934      -16.3967343594      -0.0000000877     1.000000    0.00008526
  935      -16.3967344468      -0.0000000874     1.000000    0.00008511
  936      -16.3967345340      -0.0000000872     1.000000    0.00008497
  937      -16.3967346209      -0.0000000869     1.000000    0.00008483
  938      -16.3967347075      -0.0000000866     1.000000    0.00008469
  939      -16.3967347939      -0.0000000864     1.000000    0.00008455
  940      -16.3967348800      -0.0000000861     1.000000    0.00008440
  941      -16.3967349659      -0.0000000859     1.000000    0.00008426
  942      -16.3967350515      -0.0000000856     1.000000    0.00008412
  943      -16.3967351369      -0.0000000854     1.000000    0.00008397
  944      -16.3967352220      -0.0000000851     1.000000    0.00008383
  945      -16.3967353068      -0.0000000848     1.000000    0.00008368
  946      -16.3967353914      -0.0000000846     1.000000    0.00008353
  947      -16.3967354757      -0.0000000843     1.000000    0.00008339
  948      -16.3967355597      -0.0000000841     1.000000    0.00008324
  949      -16.3967356435      -0.0000000838     1.000000    0.00008309
  950      -16.3967357270      -0.0000000835     1.000000    0.00008294
  951      -16.3967358103      -0.0000000833     1.000000    0.00008279
  952      -16.3967358933      -0.0000000830     1.000000    0.00008264
  953      -16.3967359760      -0.0000000827     1.000000    0.00008249
  954      -16.3967360585      -0.0000000825     1.000000    0.00008234
  955      -16.3967361407      -0.0000000822     1.000000    0.00008219
  956      -16.3967362226      -0.0000000819     1.000000    0.00008204
  957      -16.3967363043      -0.0000000817     1.000000    0.00008189
  958      -16.3967363857      -0.0000000814     1.000000    0.00008174
  959      -16.3967364668      -0.0000000811     1.000000    0.00008158
  960      -16.3967365477      -0.0000000809     1.000000    0.00008143
  961      -16.3967366283      -0.0000000806     1.000000    0.00008128
  962      -16.3967367086      -0.0000000803     1.000000    0.00008112
  963      -16.3967367886      -0.0000000800     1.000000    0.00008097
  964      -16.3967368684      -0.0000000798     1.000000    0.00008081
  965      -16.3967369479      -0.0000000795     1.000000    0.00008065
  966      -16.3967370272      -0.0000000792     1.000000    0.00008050
  967      -16.3967371061      -0.0000000790     1.000000    0.00008034
  968      -16.3967371848      -0.0000000787     1.000000    0.00008018
  969      -16.3967372632      -0.0000000784     1.000000    0.00008003
  970      -16.3967373414      -0.0000000781     1.000000    0.00007987
  971      -16.3967374192      -0.0000000779     1.000000    0.00007971
  972      -16.3967374968      -0.0000000776     1.000000    0.00007955
  973      -16.3967375741      -0.0000000773     1.000000    0.00007939
  974      -16.3967376512      -0.0000000770     1.000000    0.00007923
  975      -16.3967377280      -0.0000000768     1.000000    0.00007907
  976      -16.3967378044      -0.0000000765     1.000000    0.00007891
  977      -16.3967378807      -0.0000000762     1.000000    0.00007875
  978      -16.3967379566      -0.0000000759     1.000000    0.00007859
  979      -16.3967380323      -0.0000000757     1.000000    0.00007842
  980      -16.3967381076      -0.0000000754     1.000000    0.00007826
  981      -16.3967381827      -0.0000000751     1.000000    0.00007810
  982      -16.3967382576      -0.0000000748     1.000000    0.00007794
  983      -16.3967383321      -0.0000000745     1.000000    0.00007777
  984      -16.3967384064      -0.0000000743     1.000000    0.00007761
  985      -16.3967384804      -0.0000000740     1.000000    0.00007744
  986      -16.3967385541      -0.0000000737     1.000000    0.00007728
  987      -16.3967386275      -0.0000000734     1.000000    0.00007711
  988      -16.3967387006      -0.0000000731     1.000000    0.00007695
  989      -16.3967387735      -0.0000000729     1.000000    0.00007678
  990      -16.3967388461      -0.0000000726     1.000000    0.00007661
  991      -16.3967389184      -0.0000000723     1.000000    0.00007645
  992      -16.3967389904      -0.0000000720     1.000000    0.00007628
  993      -16.3967390622      -0.0000000717     1.000000    0.00007611
  994      -16.3967391336      -0.0000000715     1.000000    0.00007594
  995      -16.3967392048      -0.0000000712     1.000000    0.00007577
  996      -16.3967392757      -0.0000000709     1.000000    0.00007561
  997      -16.3967393463      -0.0000000706     1.000000    0.00007544
  998      -16.3967394167      -0.0000000703     1.000000    0.00007527
  999      -16.3967394867      -0.0000000700     1.000000    0.00007510
 1000      -16.3967395565      -0.0000000698     1.000000    0.00007493

Total Energy:                      -16.3967395565 H         -446.1780 eV
Extrapolated to 0:                 -16.3558736995 H         -445.0660 eV

----------------------------------------------------------------------------------
 Solving CP-REKS equation for  1 state vector...
----------------------------------------------------------------------------------
  CG solver: Constructing Y initial guess
  CG solver: Iteration    1    eps =    0.034349438678
  CG solver: Iteration    2    eps =    0.010638455505
  CG solver: Iteration    3    eps =    0.003035698552
  CG solver: Iteration    4    eps =    0.001449742170
  CG solver: Iteration    5    eps =    0.000403242749
  CG solver: Iteration    6    eps =    0.000506558055
  CG solver: Iteration    7    eps =    0.003168740072
  CG solver: Iteration    8    eps =    0.002708934675
  CG solver: Iteration    9    eps =    0.003250955308
  CG solver: Iteration   10    eps =    0.002471177871
  CG solver: Iteration   11    eps =    0.000548622152
  CG solver: Iteration   12    eps =    0.000061899688
  CG solver: Iteration   13    eps =    0.000014420815
  CG solver: Iteration   14    eps =    0.000001832537
  CG solver: Iteration   15    eps =    0.000000112730
  CG solver: Iteration   16    eps =    0.000000005528
  Convergence reached in CG solver after   16 iterations
  CG solver: Calculating converged R, Z, Q2 matrix
----------------------------------------------------------------------------------

----------------------------------------------------------------------------------
 Solving CP-REKS equation for SI between  1 and  2 state vectors...
----------------------------------------------------------------------------------
  CG solver: Constructing Y initial guess
  CG solver: Iteration    1    eps =    0.026004018757
  CG solver: Iteration    2    eps =    0.001585646006
  CG solver: Iteration    3    eps =    0.000574470745
  CG solver: Iteration    4    eps =    0.008911255466
  CG solver: Iteration    5    eps =    0.004947851886
  CG solver: Iteration    6    eps =    0.014286024925
  CG solver: Iteration    7    eps =    0.033343032670
  CG solver: Iteration    8    eps =    0.006986084152
  CG solver: Iteration    9    eps =    0.001246394551
  CG solver: Iteration   10    eps =    0.000359946937
  CG solver: Iteration   11    eps =    0.000058716614
  CG solver: Iteration   12    eps =    0.000005131532
  CG solver: Iteration   13    eps =    0.000000552393
  CG solver: Iteration   14    eps =    0.000000072884
  CG solver: Iteration   15    eps =    0.000000004380
  Convergence reached in CG solver after   15 iterations
  CG solver: Calculating converged R, Z, Q2 matrix
----------------------------------------------------------------------------------

--------------------------------------------------
 Gradient Information
--------------------------------------------------
           1 st state (SSR)
     0.00000000     0.00000000     0.00000000
     0.00000000     0.00000000     0.00000000
     0.00000000     0.00000000     0.00000000
     0.00000000     0.00000000     0.00000000
     0.00000000     0.00000000     0.00000000
     0.00000000     0.00000000     0.00000000
     0.00000000     0.00000000     0.00000000
     0.00000000     0.00000000     0.00000000
     0.00000000     0.00000000     0.00000000
     0.00000000     0.00000000     0.00000000
     0.00000000     0.00000000     0.00000000
     0.00000000     0.00000000     0.00000000
     0.00000000     0.00000000     0.00000000
     0.00000000     0.00000000     0.00000000

           2 st state (SSR)
     0.00000000     0.00000000     0.00000000
     0.00000000     0.00000000     0.00000000
     0.00000000     0.00000000     0.00000000
     0.00000000     0.00000000     0.00000000
     0.00000000     0.00000000     0.00000000
     0.00000000     0.00000000     0.00000000
     0.00000000     0.00000000     0.00000000
     0.00000000     0.00000000     0.00000000
     0.00000000     0.00000000     0.00000000
     0.00000000     0.00000000     0.00000000
     0.00000000     0.00000000     0.00000000
     0.00000000     0.00000000     0.00000000
     0.00000000     0.00000000     0.00000000
     0.00000000     0.00000000     0.00000000
--------------------------------------------------
 Coupling Information
--------------------------------------------------
 between  1 and  2 states
--------------------------------------------------
 g vector - difference gradient
    -0.00601330    -0.02317703     0.05776236
    -0.21083450    -0.13512483    -0.20644975
    -0.13933514     0.07957281    -0.06152918
     0.26661977    -0.00592236     0.01488640
     0.27120220     0.07401175     0.17409995
    -0.63666963    -0.02542005    -0.03587587
     0.34338286     0.19634054     0.12213258
     0.05983401    -0.02934864    -0.00656669
     0.05961482    -0.05454349    -0.04097243
    -0.26274560    -0.56334873    -0.09615102
    -0.03633110     0.04756505    -0.09552996
     0.26370963     0.44189082     0.15986661
    -0.04725208     0.04932547    -0.00370107
     0.07481806    -0.05182132     0.01802808

 h vector - derivative coupling
     0.08000524    -0.21523102     0.12172309
    -0.02266235     0.22872154    -0.08487967
    -0.24760025     0.02736773    -0.05782074
     0.20409094    -0.02109733     0.13978511
    -0.30384640    -0.04279674    -0.09452631
     0.79810429     0.04424096     0.02472128
    -0.24081465    -0.28428008     0.08842419
    -0.11994881     0.10106494     0.01819280
    -0.00658445    -0.01189540     0.00886322
    -0.08697179     0.36581210    -0.20077060
    -0.04134417     0.01016241     0.02218899
    -0.02539435    -0.18436540     0.01309296
     0.04152931    -0.04437626     0.00204141
    -0.02856255     0.02667256    -0.00103572

 G vector - GDV
     0.00000000     0.00000000     0.00000000
     0.00000000     0.00000000     0.00000000
     0.00000000     0.00000000     0.00000000
     0.00000000     0.00000000     0.00000000
     0.00000000     0.00000000     0.00000000
     0.00000000     0.00000000     0.00000000
     0.00000000     0.00000000     0.00000000
     0.00000000     0.00000000     0.00000000
     0.00000000     0.00000000     0.00000000
     0.00000000     0.00000000     0.00000000
     0.00000000     0.00000000     0.00000000
     0.00000000     0.00000000     0.00000000
     0.00000000     0.00000000     0.00000000
     0.00000000     0.00000000     0.00000000

 H vector - DCV - non-adiabatic coupling
     0.00000000     0.00000000     0.00000000
     0.00000000     0.00000000     0.00000000
     0.00000000     0.00000000     0.00000000
     0.00000000     0.00000000     0.00000000
     0.00000000     0.00000000     0.00000000
     0.00000000     0.00000000     0.00000000
     0.00000000     0.00000000     0.00000000
     0.00000000     0.00000000     0.00000000
     0.00000000     0.00000000     0.00000000
     0.00000000     0.00000000     0.00000000
     0.00000000     0.00000000     0.00000000
     0.00000000     0.00000000     0.00000000
     0.00000000     0.00000000     0.00000000
     0.00000000     0.00000000     0.00000000
--------------------------------------------------

WARNING!
-> SCC is NOT converged, maximal SCC iterations exceeded

--------------------------------------------------------------------------------
DFTB+ running times                          cpu [s]             wall clock [s]
--------------------------------------------------------------------------------
SCC                                    +     1.42  ( 77.6%)      1.42  ( 77.5%)
      Sparse to dense                        0.07  (  4.1%)      0.07  (  3.8%)
      Dense to sparse                        0.26  ( 14.0%)      0.26  ( 13.9%)
      Range separated Hamiltonian            0.12  (  6.8%)      0.12  (  6.4%)
  Density matrix creation                    0.15  (  8.4%)      0.15  (  8.0%)
  Force calculation                          0.41  ( 22.3%)      0.41  ( 22.2%)
--------------------------------------------------------------------------------
Missing                                +     0.41  ( 22.4%)      0.41  ( 22.5%)
Total                                  =     1.83  (100.0%)      1.84  (100.0%)
--------------------------------------------------------------------------------
