    14
  Step:     0            Position(A)                                  Velocity(au)
C        -6.03121870    -0.83720381    -0.00209031    -0.00011178    -0.00015737     0.00000388
C        -4.68760615    -0.67315126     0.18163443    -0.00018996    -0.00026655     0.00003948
H        -6.71338203    -0.10984552    -0.53815271     0.00032890     0.00005640    -0.00003176
H        -6.47811136    -1.81772533     0.28949484    -0.00061093     0.00144985     0.00033914
H        -4.15198521    -1.55348660     0.61797674     0.00008545    -0.00021307    -0.00041825
C        -3.91150500     0.44437706    -0.26184335    -0.00016961     0.00026427    -0.00012666
C        -2.60784217     0.58193976     0.15148857     0.00005610    -0.00023810     0.00007338
H        -4.43278058     1.24162465    -0.85315323     0.00120747    -0.00067472    -0.00049321
H        -2.13553631    -0.19417326     0.69770775    -0.00001625     0.00061539     0.00003989
C        -1.73891013     1.73356495    -0.07259040     0.00017974     0.00013599     0.00011599
H        -2.28029894     2.52275697    -0.60440355     0.00003760    -0.00039083     0.00013406
N        -0.54483314     1.73524792     0.31043486     0.00000353     0.00020876     0.00001897
H         0.08344884     2.50065462     0.19202604     0.00015228    -0.00068874    -0.00038502
H        -0.16153504     1.04802937     0.93889303     0.00157262     0.00006388    -0.00071242
    14
  Step:     1            Position(A)                                  Velocity(au)
C        -6.03270304    -0.83897521    -0.00212870    -0.00015814    -0.00016344    -0.00001131
C        -4.68950829    -0.67612420     0.18207789    -0.00015699    -0.00027490     0.00004042
H        -6.70874141    -0.10996980    -0.53756311     0.00051428    -0.00007414     0.00013470
H        -6.48468867    -1.80088062     0.29292642    -0.00060504     0.00159021     0.00029913
H        -4.15123310    -1.55475033     0.61339485     0.00005329    -0.00002224    -0.00041568
C        -3.91379477     0.44727955    -0.26335767    -0.00024605     0.00026216    -0.00014736
C        -2.60673676     0.57957311     0.15233625     0.00014402    -0.00019199     0.00007992
H        -4.41890027     1.23353492    -0.85799139     0.00130623    -0.00077609    -0.00040997
H        -2.13539913    -0.18879062     0.69880033     0.00005007     0.00034792     0.00017316
C        -1.73801776     1.73485260    -0.07155982    -0.00001661     0.00009719     0.00007322
H        -2.27857318     2.51909300    -0.60295361     0.00027134    -0.00026707     0.00012456
N        -0.54410278     1.73756352     0.31086160     0.00012984     0.00021255     0.00006003
H         0.08551854     2.49412485     0.18741696     0.00024232    -0.00047876    -0.00046453
H        -0.14448152     1.04810033     0.93126440     0.00153192    -0.00004444    -0.00069129
    14
  Step:     2            Position(A)                                  Velocity(au)
C        -6.03467826    -0.84077948    -0.00233780    -0.00020013    -0.00016328    -0.00002712
C        -4.69104053    -0.67916515     0.18251867    -0.00012325    -0.00027868     0.00003875
H        -6.70213122    -0.11146745    -0.53520591     0.00068317    -0.00018857     0.00028684
H        -6.49134783    -1.78293655     0.29603894    -0.00062963     0.00164458     0.00028352
H        -4.15081938    -1.55397304     0.60888284     0.00002643     0.00015534    -0.00040322
C        -3.91688785     0.45011239    -0.26506723    -0.00031561     0.00025102    -0.00016167
C        -2.60469140     0.57773963     0.15323688     0.00022745    -0.00014190     0.00008349
H        -4.40420431     1.22464618    -0.86212210     0.00135232    -0.00081445    -0.00037000
H        -2.13444092    -0.18656177     0.70149596     0.00012839     0.00005112     0.00032495
C        -1.73927359     1.73569112    -0.07098847    -0.00020849     0.00005417     0.00003334
H        -2.27436293     2.51691420    -0.60167858     0.00048738    -0.00011882     0.00010035
N        -0.54199275     1.73989779     0.31174821     0.00025307     0.00021270     0.00010194
H         0.08875001     2.49018084     0.18186347     0.00035814    -0.00022570    -0.00055554
H        -0.12802130     1.04705726     0.92376981     0.00146525    -0.00013840    -0.00068778
    14
  Step:     3            Position(A)                                  Velocity(au)
C        -6.03708135    -0.84254737    -0.00272207    -0.00023515    -0.00015699    -0.00004307
C        -4.69220462    -0.68222095     0.18292553    -0.00009055    -0.00027734     0.00003401
H        -6.69379578    -0.11409522    -0.53128805     0.00082409    -0.00027463     0.00041555
H        -6.49846306    -1.76490227     0.29912901    -0.00069076     0.00160381     0.00029677
H        -4.15065493    -1.55135196     0.60457358     0.00001043     0.00031050    -0.00037652
C        -3.92069945     0.45277102    -0.26689442    -0.00037691     0.00022997    -0.00016838
C        -2.60176075     0.57646885     0.15416273     0.00030571    -0.00009045     0.00008512
H        -4.38931570     1.21571728    -0.86608575     0.00133903    -0.00077939    -0.00038404
H        -2.13259035    -0.18767228     0.70590921     0.00020682    -0.00024892     0.00047796
C        -1.74257890     1.73603760    -0.07083037    -0.00038731     0.00000760    -0.00000121
H        -2.26791083     2.51649367    -0.60075828     0.00067777     0.00005383     0.00005880
N        -0.53856636     1.74221666     0.31309175     0.00036821     0.00021052     0.00014245
H         0.09335346     2.48918715     0.17526340     0.00048431     0.00004830    -0.00065305
H        -0.11242645     1.04507249     0.91621799     0.00137591    -0.00021648    -0.00070040
    14
  Step:     4            Position(A)                                  Velocity(au)
C        -6.03982256    -0.84421387    -0.00328002    -0.00026108    -0.00014535    -0.00005853
C        -4.69302147    -0.68523257     0.18326266    -0.00006046    -0.00027035     0.00002583
H        -6.68410272    -0.11747560    -0.52611491     0.00092618    -0.00032025     0.00051221
H        -6.50645955    -1.74785010     0.30253138    -0.00079086     0.00146701     0.00034085
H        -4.15059115    -1.54718019     0.60064577     0.00001040     0.00043523    -0.00033165
C        -3.92513342     0.45514344    -0.26875095    -0.00042947     0.00019861    -0.00016689
C        -2.59800335     0.57576076     0.15509903     0.00037878    -0.00004022     0.00008606
H        -4.37491042     1.20759545    -0.87052368     0.00126437    -0.00066664    -0.00045851
H        -2.12991625    -0.19200741     0.71195232     0.00027314    -0.00052561     0.00061394
C        -1.74774669     1.73585735    -0.07101504    -0.00054583    -0.00004168    -0.00002851
H        -2.25953545     2.51809180    -0.60039224     0.00083695     0.00024819    -0.00000079
N        -0.53393741     1.74450335     0.31486457     0.00047120     0.00020773     0.00017940
H         0.09934512     2.49123744     0.16757682     0.00060233     0.00031762    -0.00075093
H        -0.09792063     1.04232144     0.90844728     0.00126910    -0.00027938    -0.00072567
    14
  Step:     5            Position(A)                                  Velocity(au)
C        -6.04279296    -0.84572719    -0.00400247    -0.00027668    -0.00013006    -0.00007269
C        -4.69352736    -0.68813539     0.18349063    -0.00003415    -0.00025722     0.00001394
H        -6.67353377    -0.12110133    -0.52008251     0.00097995    -0.00031434     0.00056918
H        -6.51576473    -1.73280863     0.30658579    -0.00092689     0.00124437     0.00041398
H        -4.15042750    -1.54183041     0.59731819     0.00003042     0.00052337    -0.00026542
C        -3.93009503     0.45711604    -0.27054535    -0.00047410     0.00015720    -0.00015735
C        -2.59347420     0.57558900     0.15604544     0.00044725     0.00000670     0.00008757
H        -4.36165527     1.20113320    -0.87611656     0.00113277    -0.00048129    -0.00059245
H        -2.12661487    -0.19917106     0.71934027     0.00031740    -0.00075593     0.00071664
C        -1.75452005     1.73512575    -0.07145413    -0.00067883    -0.00009264    -0.00004734
H        -2.24960104     2.52192329    -0.60077547     0.00096250     0.00045819    -0.00007647
N        -0.52825787     1.74676105     0.31701649     0.00055922     0.00020609     0.00021096
H         0.10653067     2.49613561     0.15883544     0.00069404     0.00055698    -0.00084254
H        -0.08466250     1.03896052     0.90034255     0.00115127    -0.00032958    -0.00075889
    14
  Step:     6            Position(A)                                  Velocity(au)
C        -6.04587554    -0.84705920    -0.00487027    -0.00028186    -0.00011365    -0.00008459
C        -4.69376853    -0.69085966     0.18356766    -0.00001221    -0.00023756    -0.00000179
H        -6.66266451    -0.12435232    -0.51366300     0.00097861    -0.00024842     0.00058090
H        -6.52673702    -1.72062703     0.31158796    -0.00108913     0.00095817     0.00050979
H        -4.14992569    -1.53573039     0.59483913     0.00007295     0.00057151    -0.00017592
C        -3.93550525     0.45858247    -0.27219326    -0.00051267     0.00010689    -0.00014092
C        -2.58821895     0.57590737     0.15701487     0.00051198     0.00004882     0.00009071
H        -4.35012897     1.19706629    -0.88348472     0.00095575    -0.00023993    -0.00077510
H        -2.12297259    -0.20854491     0.72763025     0.00033369    -0.00092341     0.00077436
C        -1.76259731     1.73383058    -0.07205061    -0.00078340    -0.00014399    -0.00005736
H        -2.23847882     2.52811548    -0.60206510     0.00105546     0.00067374    -0.00016320
N        -0.52170331     1.74901206     0.31947962     0.00063078     0.00020719     0.00023579
H         0.11452849     2.50342254     0.14914471     0.00074486     0.00074532    -0.00092148
H        -0.07273442     1.03511129     0.89184516     0.00102947    -0.00037061    -0.00079488
    14
  Step:     7            Position(A)                                  Velocity(au)
C        -6.04895911    -0.84821360    -0.00585306    -0.00027776    -0.00009916    -0.00009322
C        -4.69379442    -0.69333237     0.18345149     0.00000532    -0.00021132    -0.00002127
H        -6.65212489    -0.12653591    -0.50737429     0.00091978    -0.00011879     0.00054515
H        -6.53959144    -1.71184691     0.31773849    -0.00126170     0.00064053     0.00061767
H        -4.14883159    -1.52932759     0.59346949     0.00013814     0.00057972    -0.00006309
C        -3.94131075     0.45945436    -0.27362827    -0.00054743     0.00004988    -0.00011962
C        -2.58227369     0.57665700     0.15802991     0.00057335     0.00008514     0.00009609
H        -4.34074645     1.19588436    -0.89307331     0.00075064     0.00003013    -0.00098561
H        -2.11931475    -0.21937238     0.73628090     0.00032080    -0.00101946     0.00078127
C        -1.77165848     1.73197562    -0.07270905    -0.00085893    -0.00019398    -0.00005922
H        -2.22651080     2.53666260    -0.60434574     0.00111969     0.00088093    -0.00025302
N        -0.51445825     1.75129365     0.32217494     0.00068567     0.00021207     0.00025324
H         0.12282599     2.51244094     0.13867623     0.00074625     0.00086853    -0.00098244
H        -0.06214081     1.03085282     0.88295295     0.00091058    -0.00040632    -0.00082885
    14
  Step:     8            Position(A)                                  Velocity(au)
C        -6.05195205    -0.84922849    -0.00690953    -0.00026661    -0.00008943    -0.00009770
C        -4.69365225    -0.69548270     0.18310239     0.00001866    -0.00017918    -0.00004407
H        -6.64254249    -0.12695111    -0.50173678     0.00080716     0.00007105     0.00046445
H        -6.55433923    -1.70661426     0.32510073    -0.00142493     0.00032826     0.00072426
H        -4.14690353    -1.52304793     0.59345889     0.00022337     0.00055198     0.00007068
C        -3.94748123     0.45967376    -0.27481021    -0.00057958    -0.00001048    -0.00009598
C        -2.57567593     0.57777005     0.15911706     0.00063016     0.00011472     0.00010376
H        -4.33370732     1.19772535    -0.90504683     0.00053744     0.00029488    -0.00119575
H        -2.11595458    -0.23084758     0.74472201     0.00028149    -0.00104285     0.00073760
C        -1.78138806     1.72958686    -0.07334610    -0.00090647    -0.00024017    -0.00005441
H        -2.21398352     2.54738746    -0.60760030     0.00116067     0.00106322    -0.00033595
N        -0.50670296     1.75365144     0.32501971     0.00072473     0.00022117     0.00026327
H         0.13085414     2.52242335     0.12765190     0.00069639     0.00092068    -0.00102177
H        -0.05281376     1.02622222     0.87371251     0.00080061    -0.00044017    -0.00085700
    14
  Step:     9            Position(A)                                  Velocity(au)
C        -6.05479167    -0.85017000    -0.00799041    -0.00025118    -0.00008637    -0.00009758
C        -4.69338628    -0.69725219     0.18248734     0.00002797    -0.00014276    -0.00006939
H        -6.63446680    -0.12498158    -0.49721353     0.00065133     0.00030878     0.00034699
H        -6.57076458    -1.70466570     0.33358308    -0.00155904     0.00005578     0.00081594
H        -4.14394497    -1.51725196     0.59501574     0.00032301     0.00049626     0.00022027
C        -3.95399015     0.45922498    -0.27572800    -0.00060853    -0.00007013    -0.00007253
C        -2.56848782     0.57916681     0.16029992     0.00067927     0.00013627     0.00011324
H        -4.32898892     1.20233545    -0.91923265     0.00033470     0.00052038    -0.00137547
H        -2.11315662    -0.24218677     0.75241722     0.00022127    -0.00099807     0.00064855
C        -1.79148920     1.72672153    -0.07389948    -0.00092789    -0.00027938    -0.00004507
H        -2.20111884     2.55992250    -0.61169523     0.00118394     0.00120366    -0.00040162
N        -0.49860342     1.75613206     0.32793443     0.00074943     0.00023426     0.00026639
H         0.13806086     2.53258253     0.11632306     0.00059968     0.00090360    -0.00103784
H        -0.04462603     1.02122321     0.86420443     0.00070416    -0.00047451    -0.00087708
    14
  Step:    10            Position(A)                                  Velocity(au)
C        -6.05744709    -0.85111799    -0.00904434    -0.00023431    -0.00009043    -0.00009303
C        -4.69304029    -0.69860589     0.18158441     0.00003331    -0.00010444    -0.00009609
H        -6.62829342    -0.12019593    -0.49414564     0.00046906     0.00057351     0.00020655
H        -6.58844612    -1.70539402     0.34295105    -0.00164791    -0.00015097     0.00088132
H        -4.13983710    -1.51219130     0.59827775     0.00042873     0.00042409     0.00037832
C        -3.96079393     0.45813963    -0.27639698    -0.00063249    -0.00012506    -0.00005142
C        -2.56081566     0.58075122     0.16159431     0.00071669     0.00014834     0.00012376
H        -4.32638508     1.20910956    -0.93513793     0.00015613     0.00067935    -0.00149936
H        -2.11111398    -0.25268224     0.75891017     0.00014712    -0.00089372     0.00052241
C        -1.80168736     1.72347496    -0.07433210    -0.00092521    -0.00030823    -0.00003340
H        -2.18808254     2.57371981    -0.61638641     0.00119360     0.00128765    -0.00044115
N        -0.49030774     1.75877634     0.33084753     0.00076138     0.00025059     0.00026347
H         0.14397337     2.54219136     0.10494726     0.00046539     0.00082556    -0.00103112
H        -0.03740901     1.01584136     0.85452481     0.00062402    -0.00051010    -0.00088852
    14
  Step:    11            Position(A)                                  Velocity(au)
C        -6.05991760    -0.85214841    -0.01002567    -0.00021859    -0.00010058    -0.00008489
C        -4.69265750    -0.69953701     0.18038512     0.00003486    -0.00006672    -0.00012295
H        -6.62420527    -0.11243487    -0.49269479     0.00028093     0.00083823     0.00006079
H        -6.60681583    -1.70796838     0.35286363    -0.00168148    -0.00027759     0.00091289
H        -4.13456568    -1.50797409     0.60329221     0.00053044     0.00034929     0.00053621
C        -3.96782717     0.45648896    -0.27685300    -0.00064981    -0.00017236    -0.00003419
C        -2.55280895     0.58241197     0.16300742     0.00073918     0.00014981     0.00013464
H        -4.32557335     1.21719743    -0.95203395     0.00000907     0.00075542    -0.00155106
H        -2.10993810    -0.26173854     0.76384585     0.00006650    -0.00074101     0.00036877
C        -1.81172986     1.71997848    -0.07463025    -0.00090048    -0.00032388    -0.00002134
H        -2.17500649     2.58809227    -0.62134617     0.00119160     0.00130537    -0.00044870
N        -0.48194685     1.76161421     0.33369827     0.00076210     0.00026901     0.00025557
H         0.14824209     2.55064319     0.09376524     0.00030595     0.00069944    -0.00100406
H        -0.03097446     1.01006374     0.84476631     0.00056112    -0.00054595    -0.00089238
    14
  Step:    12            Position(A)                                  Velocity(au)
C        -6.06222920    -0.85331827    -0.01090137    -0.00020618    -0.00011466    -0.00007446
C        -4.69227766    -0.70006550     0.17889472     0.00003307    -0.00003184    -0.00014873
H        -6.62214750    -0.10185807    -0.49281570     0.00010777     0.00107425    -0.00007196
H        -6.62523165    -1.71146682     0.36292237    -0.00165626    -0.00032116     0.00090767
H        -4.12823273    -1.50454999     0.61000835     0.00061770     0.00028585     0.00068514
C        -3.97500988     0.45436898    -0.27714502    -0.00065947    -0.00021041    -0.00002168
C        -2.54464472     0.58402862     0.16453974     0.00074491     0.00014019     0.00014532
H        -4.32618659     1.22563591    -0.96907037    -0.00010504     0.00074403    -0.00152462
H        -2.10965915    -0.26889319     0.76697769    -0.00001335    -0.00055272     0.00019764
C        -1.82138705     1.71638957    -0.07479902    -0.00085586    -0.00032448    -0.00001036
H        -2.16201411     2.60227730    -0.62620265     0.00117776     0.00125307    -0.00042213
N        -0.47363544     1.76466150     0.33643862     0.00075302     0.00028814     0.00024392
H         0.15066659     2.55749290     0.08298154     0.00013552     0.00054113    -0.00096069
H        -0.02513348     1.00389771     0.83500218     0.00051476    -0.00057940    -0.00089096
    14
  Step:    13            Position(A)                                  Velocity(au)
C        -6.06442829    -0.85465690    -0.01165453    -0.00019857    -0.00013013    -0.00006318
C        -4.69193404    -0.70023363     0.17713130     0.00002856    -0.00000162    -0.00017236
H        -6.62184762    -0.08893351    -0.49426916    -0.00003318     0.00125641    -0.00017621
H        -6.64304972    -1.71499434     0.37272060    -0.00157455    -0.00028774     0.00086659
H        -4.12105234    -1.50172053     0.61828089     0.00068117     0.00024581     0.00081710
C        -3.98225438     0.45188584    -0.27732732    -0.00066098    -0.00023877    -0.00001410
C        -2.53651254     0.58547881     0.16618655     0.00073326     0.00011958     0.00015537
H        -4.32787140     1.23347453    -0.98538788    -0.00018909     0.00065035    -0.00142296
H        -2.11023017    -0.27383035     0.76816955    -0.00008573    -0.00034260     0.00001909
C        -1.83045354     1.71287989    -0.07485678    -0.00079357    -0.00030926    -0.00000139
H        -2.14924066     2.61550561    -0.63058117     0.00115046     0.00113312    -0.00036290
N        -0.46547310     1.76791775     0.33903440     0.00073543     0.00030643     0.00022976
H         0.15120676     2.56248141     0.07274832    -0.00003130     0.00036814    -0.00090634
H        -0.01971306     0.99738818     0.82527478     0.00048297    -0.00060650    -0.00088734
    14
  Step:    14            Position(A)                                  Velocity(au)
C        -6.06657331    -0.85616505    -0.01228362    -0.00019644    -0.00014455    -0.00005232
C        -4.69165278    -0.70010086     0.17512410     0.00002195     0.00002265    -0.00019290
H        -6.62287348    -0.07437179    -0.49667064    -0.00013079     0.00136692    -0.00024173
H        -6.65967789    -1.71776171     0.38188078    -0.00144277    -0.00018916     0.00079357
H        -4.11333092    -1.49917233     0.62788388     0.00071381     0.00023752     0.00092569
C        -3.98947003     0.44914554    -0.27745342    -0.00065419    -0.00025773    -0.00001118
C        -2.52860321     0.58664475     0.16793865     0.00070448     0.00008874     0.00016435
H        -4.33032332     1.23986350    -1.00020030    -0.00024826     0.00048603    -0.00125511
H        -2.11153457    -0.27638829     0.76739537    -0.00014461    -0.00012499    -0.00015681
C        -1.83874799     1.70962386    -0.07482952    -0.00071580    -0.00027848     0.00000508
H        -2.13684563     2.62706644    -0.63414174     0.00110732     0.00095325    -0.00027545
N        -0.45754646     1.77136524     0.34146517     0.00071041     0.00032233     0.00021433
H         0.14998182     2.56554672     0.06315355    -0.00018042     0.00019842    -0.00084723
H        -0.01456766     0.99062936     0.81558984     0.00046293    -0.00062251    -0.00088487
    14
  Step:    15            Position(A)                                  Velocity(au)
C        -6.06872587    -0.85781911    -0.01279923    -0.00019972    -0.00015603    -0.00004278
C        -4.69145376    -0.69973815     0.17291116     0.00001371     0.00004015    -0.00020969
H        -6.62470901    -0.05902952    -0.49955736    -0.00018085     0.00139732    -0.00026434
H        -6.67461308    -1.71913262     0.39008151    -0.00126989    -0.00004018     0.00069430
H        -4.10543647    -1.49652443     0.63853215     0.00071155     0.00026488     0.00100667
C        -3.99656609     0.44624751    -0.27757199    -0.00063924    -0.00026807    -0.00001240
C        -2.52110066     0.58742019     0.16978196     0.00065952     0.00004906     0.00017178
H        -4.33330263     1.24410729    -1.01284585    -0.00028852     0.00026608    -0.00103357
H        -2.11339376    -0.27656465     0.76473897    -0.00018460     0.00008532    -0.00032009
C        -1.84611303     1.70678753    -0.07474568    -0.00062473    -0.00023337     0.00000905
H        -2.12501587     2.63635974    -0.63660716     0.00104607     0.00072514    -0.00016630
N        -0.44993149     1.77496930     0.34372335     0.00067881     0.00033436     0.00019871
H         0.14725970     2.56682213     0.05421356    -0.00029913     0.00004914    -0.00079000
H        -0.00958565     0.98376952     0.80591655     0.00045155    -0.00062273    -0.00088658
    14
  Step:    16            Position(A)                                  Velocity(au)
C        -6.07094262    -0.85957860    -0.01321953    -0.00020769    -0.00016336    -0.00003508
C        -4.69135288    -0.69922249     0.17053668     0.00000411     0.00005058    -0.00022228
H        -6.62682998    -0.04380267    -0.50245363    -0.00018518     0.00134792    -0.00024525
H        -6.68745910    -1.71864078     0.39706996    -0.00106614     0.00014345     0.00057542
H        -4.09776439    -1.49337753     0.64990665     0.00067336     0.00032758     0.00105807
C        -4.00345471     0.44328102    -0.27772479    -0.00061648    -0.00027081    -0.00001706
C        -2.51417487     0.58771811     0.17169664     0.00059990     0.00000266     0.00017707
H        -4.33663531     1.24568452    -1.02281160    -0.00031568     0.00000668    -0.00077232
H        -2.11557308    -0.27452184     0.76039285    -0.00020086     0.00027311    -0.00046089
C        -1.85241525     1.70451855    -0.07463151    -0.00052256    -0.00017602     0.00001091
H        -2.11396084     2.64293017    -0.63777989     0.00096496     0.00046309    -0.00004322
N        -0.44269628     1.77868004     0.34581244     0.00064124     0.00034130     0.00018381
H         0.14343772     2.56662165     0.04587068    -0.00037699    -0.00006456    -0.00074125
H        -0.00468912     0.97700597     0.79619418     0.00044597    -0.00060332    -0.00089470
    14
  Step:    17            Position(A)                                  Velocity(au)
C        -6.07326952    -0.86139289    -0.01356656    -0.00021920    -0.00016584    -0.00002944
C        -4.69136391    -0.69863168     0.16804828    -0.00000673     0.00005405    -0.00023048
H        -6.62876016    -0.02954121    -0.50492274    -0.00014984     0.00122575    -0.00018959
H        -6.69793698    -1.71599439     0.40266984    -0.00084244     0.00034593     0.00044407
H        -4.09070545    -1.48935807     0.66167952     0.00060091     0.00042163     0.00108014
C        -4.01005285     0.44032297    -0.27794531    -0.00058641    -0.00026716    -0.00002437
C        -2.50797673     0.58747833     0.17365563     0.00052752    -0.00004773     0.00017949
H        -4.34020876     1.24425333    -1.02974179    -0.00033504    -0.00027595    -0.00048574
H        -2.11778798    -0.27058985     0.75465620    -0.00018915     0.00042324    -0.00056974
C        -1.85754510     1.70293681    -0.07450703    -0.00041148    -0.00010934     0.00001137
H        -2.10390550     2.64649072    -0.63755266     0.00086295     0.00018317     0.00008528
N        -0.43590324     1.78243579     0.34774448     0.00059818     0.00034229     0.00017026
H         0.13901229     2.56540969     0.03799726    -0.00040683    -0.00013114    -0.00070678
H         0.00017089     0.97057078     0.78634326     0.00044392    -0.00056207    -0.00091032
    14
  Step:    18            Position(A)                                  Velocity(au)
C        -6.07573793    -0.86320659    -0.01386356    -0.00023281    -0.00016317    -0.00002592
C        -4.69150017    -0.69803998     0.16549444    -0.00001882     0.00005105    -0.00023431
H        -6.63010808    -0.01698695    -0.50660120    -0.00008333     0.00104226    -0.00010476
H        -6.70588906    -1.71107282     0.40678483    -0.00060997     0.00055184     0.00030766
H        -4.08461844    -1.48415352     0.67353674     0.00049801     0.00054041     0.00107495
C        -4.01628350     0.43743645    -0.27825792    -0.00054959    -0.00025843    -0.00003344
C        -2.50263441     0.58667398     0.17562332     0.00044457    -0.00009885     0.00017824
H        -4.34396500     1.23964763    -1.03343799    -0.00035139    -0.00056582    -0.00018826
H        -2.11971100    -0.26526269     0.74792863    -0.00014594     0.00052130    -0.00063804
C        -1.86141722     1.70212656    -0.07438274    -0.00029367    -0.00003687     0.00001143
H        -2.09508218     2.64693729    -0.63591417     0.00073969    -0.00009748     0.00021028
N        -0.42960998     1.78616822     0.34953716     0.00055008     0.00033704     0.00015842
H         0.13453752     2.56375260     0.03040858    -0.00038585    -0.00014446    -0.00069070
H         0.00502258     0.96470971     0.77627915     0.00044395    -0.00049886    -0.00093330
    14
  Step:    19            Position(A)                                  Velocity(au)
C        -6.07836275    -0.86496264    -0.01413370    -0.00024699    -0.00015529    -0.00002451
C        -4.69177571    -0.69751491     0.16292237    -0.00003225     0.00004229    -0.00023395
H        -6.63058311    -0.00673987    -0.50721464     0.00000491     0.00081118     0.00000078
H        -6.71128121    -1.70392188     0.40940059    -0.00038015     0.00074608     0.00017381
H        -4.07981053    -1.47753560     0.68519607     0.00036995     0.00067564     0.00104599
C        -4.02207620     0.43466939    -0.27867678    -0.00050663    -0.00024608    -0.00004327
C        -2.49825101     0.58531591     0.17755486     0.00035340    -0.00014723     0.00017250
H        -4.34789608     1.23187487    -1.03386036    -0.00036920    -0.00084706     0.00010545
H        -2.12098060    -0.25918544     0.74069784    -0.00006889     0.00055518    -0.00065899
C        -1.86396968     1.70213017    -0.07425695    -0.00017122     0.00003738     0.00001229
H        -2.08772344     2.64435805    -0.63295228     0.00059540    -0.00036103     0.00032265
N        -0.42386929     1.78980911     0.35121013     0.00049744     0.00032592     0.00014828
H         0.13057107     2.56224935     0.02288696    -0.00031656    -0.00010538    -0.00069444
H         0.00988308     0.95965732     0.76592549     0.00044545    -0.00041586    -0.00096236
    14
  Step:    20            Position(A)                                  Velocity(au)
C        -6.08114132    -0.86660388    -0.01439971    -0.00026011    -0.00014221    -0.00002516
C        -4.69220578    -0.69711487     0.16037633    -0.00004714     0.00002869    -0.00022975
H        -6.63000065     0.00075926    -0.50658408     0.00010523     0.00054742     0.00011831
H        -6.71420565    -1.69475090     0.41058733    -0.00016469     0.00091378     0.00005038
H        -4.07652497    -1.46937264     0.69641977     0.00022297     0.00081819     0.00099780
C        -4.02736691     0.43205307    -0.27920455    -0.00045807    -0.00023171    -0.00005275
C        -2.49490310     0.58345298     0.17939712     0.00025648    -0.00018962     0.00016166
H        -4.35204206     1.22111659    -1.03113098    -0.00039292    -0.00110358     0.00038032
H        -2.12121815    -0.25311717     0.73351188     0.00004237     0.00051730    -0.00062907
C        -1.86516301     1.70294435    -0.07411395    -0.00004611     0.00010921     0.00001525
H        -2.08205660     2.63903901    -0.62885566     0.00043075    -0.00058941     0.00041320
N        -0.41872763     1.79329831     0.35278106     0.00044094     0.00031002     0.00013949