|===============================================================================
|
|  DFTB+ release 20.1
|
|  Copyright (C) 2006 - 2020  DFTB+ developers group
|
|===============================================================================
|
|  When publishing results obtained with DFTB+, please cite the following
|  reference:
|
|  * DFTB+, a software package for efficient approximate density functional
|    theory based atomistic simulations, J. Chem. Phys. 152, 124101 (2020).
|    [doi: 10.1063/1.5143190]
|
|  You should also cite additional publications crediting the parametrization
|  data you use. Please consult the documentation of the SK-files for the
|  references.
|
|===============================================================================

Reading input file 'dftb_in.hsd'
Parser version: 8

--------------------------------------------------------------------------------
Reading SK-files:
Done.


Processed input in HSD format written to 'dftb_pin.hsd'

Starting initialization...
--------------------------------------------------------------------------------
OpenMP threads:              1
Chosen random seed:          501059220
Mode:                        Static calculation
Self consistent charges:     Yes
SCC-tolerance:                 0.100000E-05
Max. scc iterations:                   1000
Shell resolved Hubbard:      No
Spin polarisation:           No
Nr. of up electrons:            16.000000
Nr. of down electrons:          16.000000
Periodic boundaries:         No
Electronic solver:           Relatively robust
Maximal SCC-cycles:                    1000
Initial charges:             Set automatically (system chrg:   0.100E+01)
Included shells:             C:  s, p
                             H:  s
                             N:  s, p
Spin coupling constants:     C   1(s)-1(s):  -0.455900E-01
                             C   1(s)-2(p):  -0.293000E-01
                             C   2(p)-1(s):  -0.293000E-01
                             C   2(p)-2(p):  -0.275500E-01
                             H   1(s)-1(s):  -0.792500E-01
                             N   1(s)-1(s):  -0.468700E-01
                             N   1(s)-2(p):  -0.317000E-01
                             N   2(p)-1(s):  -0.317000E-01
                             N   2(p)-2(p):  -0.307200E-01
Range separated hybrid:      Yes
  Screening parameter omega:   0.300000E+00
  Range separated algorithm:   MatrixBased
Extra options:
                             Mulliken analysis
                             Force calculation
Force type                   original
                             Eigenvector printing


REKS Calcuation:             Yes
SSR(2,2) Calcuation:         Yes
Energy Functional:           (PPS+OSS)/2
Number of Core Orbitals:                 15
Number of Active Orbitals:                2
Number of Basis:                         32
Number of States:                         2
State-Averaging Weight:          0.500000
                                 0.500000
State of Interest:                        1
Initial Guess:               Diagonalize H0 matrix
Newton-Raphson for FON opt:  Yes
NR max. Iterations:                      50
Level Shifting:              Yes
Shift Value:                     0.300000
W Scale Factor:              C  =    3.200000
                             H  =    3.200000
                             N  =    3.200000
Transition Dipole:           No
Gradient of Microstate:      No
CP-REKS Solver:              Preconditioned Conjugate-Gradient
CG max. Iterations:                     100
CG Tolerance:                  0.100000E-07
Memory for A and Hxc:        Direct Updating Without Saving
Non-Adiabatic Coupling:      Yes

--------------------------------------------------------------------------------

***  Geometry step: 0

  iSCC       reks energy        Diff energy         x_a       SCC error   
    1      -16.3979083194       0.0000000000     0.998702    1.18781756
    2      -16.4156987119      -0.0177903925     0.999827    0.04351980
    3      -16.4196825854      -0.0039838735     0.999945    0.02048968
    4      -16.4209889807      -0.0013063953     0.999972    0.01219001
    5      -16.4215296914      -0.0005407107     0.999982    0.00754352
    6      -16.4217832806      -0.0002535892     0.999987    0.00485944
    7      -16.4219114816      -0.0001282010     0.999989    0.00322451
    8      -16.4219797899      -0.0000683083     0.999991    0.00218971
    9      -16.4220178422      -0.0000380522     0.999992    0.00151740
   10      -16.4220399950      -0.0000221528     0.999992    0.00107199
   11      -16.4220535140      -0.0000135190     0.999993    0.00077210
   12      -16.4220621955      -0.0000086815     0.999993    0.00058791
   13      -16.4220680787      -0.0000058833     0.999993    0.00048476
   14      -16.4220722892      -0.0000042105     0.999993    0.00040459
   15      -16.4220754656      -0.0000031764     0.999993    0.00034214
   16      -16.4220779810      -0.0000025154     0.999993    0.00029332
   17      -16.4220800600      -0.0000020789     0.999993    0.00025496
   18      -16.4220818416      -0.0000017816     0.999993    0.00022465
   19      -16.4220834147      -0.0000015731     0.999993    0.00020056
   20      -16.4220848373      -0.0000014227     0.999993    0.00018129
   21      -16.4220861486      -0.0000013113     0.999993    0.00017356
   22      -16.4220873752      -0.0000012266     0.999993    0.00017697
   23      -16.4220885359      -0.0000011607     0.999993    0.00017875
   24      -16.4220896441      -0.0000011082     0.999993    0.00017938
   25      -16.4220907094      -0.0000010653     0.999993    0.00017922
   26      -16.4220917388      -0.0000010294     0.999993    0.00017853
   27      -16.4220927377      -0.0000009989     0.999993    0.00017748
   28      -16.4220937100      -0.0000009723     0.999993    0.00017620
   29      -16.4220946587      -0.0000009487     0.999993    0.00017478
   30      -16.4220955862      -0.0000009275     0.999993    0.00017328
   31      -16.4220964943      -0.0000009081     0.999993    0.00017175
   32      -16.4220973845      -0.0000008902     0.999993    0.00017020
   33      -16.4220982580      -0.0000008735     0.999993    0.00016866
   34      -16.4220991158      -0.0000008578     0.999993    0.00016715
   35      -16.4220999586      -0.0000008428     0.999993    0.00016567
   36      -16.4221007872      -0.0000008286     0.999993    0.00016422
   37      -16.4221016022      -0.0000008150     0.999993    0.00016281
   38      -16.4221024040      -0.0000008018     0.999993    0.00016144
   39      -16.4221031932      -0.0000007892     0.999993    0.00016011
   40      -16.4221039702      -0.0000007770     0.999993    0.00015881
   41      -16.4221047354      -0.0000007651     0.999993    0.00015755
   42      -16.4221054890      -0.0000007537     0.999993    0.00015632
   43      -16.4221062315      -0.0000007425     0.999993    0.00015513
   44      -16.4221069632      -0.0000007317     0.999993    0.00015396
   45      -16.4221076844      -0.0000007211     0.999993    0.00015282
   46      -16.4221083952      -0.0000007109     0.999993    0.00015172
   47      -16.4221090961      -0.0000007009     0.999993    0.00015063
   48      -16.4221097873      -0.0000006911     0.999993    0.00014958
   49      -16.4221104689      -0.0000006816     0.999993    0.00014854
   50      -16.4221111413      -0.0000006724     0.999993    0.00014753
   51      -16.4221118047      -0.0000006634     0.999993    0.00014653
   52      -16.4221124592      -0.0000006545     0.999993    0.00014556
   53      -16.4221131051      -0.0000006459     0.999993    0.00014461
   54      -16.4221137427      -0.0000006375     0.999993    0.00014367
   55      -16.4221143720      -0.0000006294     0.999993    0.00014276
   56      -16.4221149934      -0.0000006214     0.999993    0.00014186
   57      -16.4221156069      -0.0000006135     0.999993    0.00014097
   58      -16.4221162128      -0.0000006059     0.999993    0.00014011
   59      -16.4221168113      -0.0000005985     0.999993    0.00013925
   60      -16.4221174025      -0.0000005912     0.999993    0.00013841
   61      -16.4221179865      -0.0000005841     0.999993    0.00013759
   62      -16.4221185636      -0.0000005771     0.999993    0.00013678
   63      -16.4221191339      -0.0000005703     0.999993    0.00013598
   64      -16.4221196976      -0.0000005637     0.999993    0.00013520
   65      -16.4221202548      -0.0000005572     0.999993    0.00013443
   66      -16.4221208056      -0.0000005508     0.999993    0.00013367
   67      -16.4221213502      -0.0000005446     0.999993    0.00013293
   68      -16.4221218888      -0.0000005386     0.999993    0.00013219
   69      -16.4221224214      -0.0000005326     0.999993    0.00013147
   70      -16.4221229482      -0.0000005268     0.999993    0.00013076
   71      -16.4221234693      -0.0000005211     0.999993    0.00013006
   72      -16.4221239849      -0.0000005156     0.999992    0.00012937
   73      -16.4221244951      -0.0000005102     0.999992    0.00012869
   74      -16.4221249999      -0.0000005048     0.999992    0.00012802
   75      -16.4221254996      -0.0000004996     0.999992    0.00012736
   76      -16.4221259942      -0.0000004946     0.999992    0.00012672
   77      -16.4221264837      -0.0000004896     0.999992    0.00012608
   78      -16.4221269684      -0.0000004847     0.999992    0.00012545
   79      -16.4221274484      -0.0000004799     0.999992    0.00012483
   80      -16.4221279237      -0.0000004753     0.999992    0.00012422
   81      -16.4221283944      -0.0000004707     0.999992    0.00012362
   82      -16.4221288606      -0.0000004662     0.999992    0.00012303
   83      -16.4221293224      -0.0000004618     0.999992    0.00012245
   84      -16.4221297800      -0.0000004576     0.999992    0.00012188
   85      -16.4221302334      -0.0000004534     0.999992    0.00012131
   86      -16.4221306826      -0.0000004492     0.999992    0.00012076
   87      -16.4221311278      -0.0000004452     0.999992    0.00012021
   88      -16.4221315691      -0.0000004413     0.999992    0.00011967
   89      -16.4221320065      -0.0000004374     0.999992    0.00011914
   90      -16.4221324402      -0.0000004336     0.999992    0.00011861
   91      -16.4221328701      -0.0000004299     0.999992    0.00011810
   92      -16.4221332964      -0.0000004263     0.999992    0.00011759
   93      -16.4221337191      -0.0000004227     0.999992    0.00011709
   94      -16.4221341384      -0.0000004193     0.999992    0.00011659
   95      -16.4221345542      -0.0000004158     0.999992    0.00011611
   96      -16.4221349667      -0.0000004125     0.999992    0.00011563
   97      -16.4221353759      -0.0000004092     0.999992    0.00011515
   98      -16.4221357819      -0.0000004060     0.999992    0.00011469
   99      -16.4221361848      -0.0000004029     0.999992    0.00011423
  100      -16.4221365845      -0.0000003998     0.999992    0.00011378
  101      -16.4221369813      -0.0000003967     0.999992    0.00011333
  102      -16.4221373750      -0.0000003938     0.999992    0.00011290
  103      -16.4221377659      -0.0000003909     0.999992    0.00011246
  104      -16.4221381539      -0.0000003880     0.999992    0.00011204
  105      -16.4221385392      -0.0000003852     0.999992    0.00011162
  106      -16.4221389217      -0.0000003825     0.999992    0.00011121
  107      -16.4221393015      -0.0000003798     0.999992    0.00011080
  108      -16.4221396787      -0.0000003772     0.999992    0.00011040
  109      -16.4221400533      -0.0000003746     0.999992    0.00011000
  110      -16.4221404254      -0.0000003721     0.999992    0.00010961
  111      -16.4221407950      -0.0000003696     0.999992    0.00010923
  112      -16.4221411622      -0.0000003672     0.999992    0.00010885
  113      -16.4221415270      -0.0000003648     0.999992    0.00010848
  114      -16.4221418895      -0.0000003625     0.999992    0.00010811
  115      -16.4221422497      -0.0000003602     0.999992    0.00010775
  116      -16.4221426076      -0.0000003579     0.999992    0.00010739
  117      -16.4221429634      -0.0000003557     0.999992    0.00010704
  118      -16.4221433170      -0.0000003536     0.999992    0.00010669
  119      -16.4221436684      -0.0000003515     0.999992    0.00010635
  120      -16.4221440178      -0.0000003494     0.999992    0.00010602
  121      -16.4221443652      -0.0000003474     0.999992    0.00010568
  122      -16.4221447106      -0.0000003454     0.999992    0.00010536
  123      -16.4221450540      -0.0000003434     0.999992    0.00010504
  124      -16.4221453955      -0.0000003415     0.999992    0.00010472
  125      -16.4221457352      -0.0000003396     0.999992    0.00010441
  126      -16.4221460730      -0.0000003378     0.999992    0.00010410
  127      -16.4221464090      -0.0000003360     0.999992    0.00010380
  128      -16.4221467432      -0.0000003342     0.999992    0.00010350
  129      -16.4221470757      -0.0000003325     0.999992    0.00010320
  130      -16.4221474065      -0.0000003308     0.999992    0.00010291
  131      -16.4221477356      -0.0000003291     0.999992    0.00010263
  132      -16.4221480631      -0.0000003275     0.999992    0.00010235
  133      -16.4221483890      -0.0000003259     0.999992    0.00010207
  134      -16.4221487134      -0.0000003243     0.999992    0.00010180
  135      -16.4221490361      -0.0000003228     0.999992    0.00010153
  136      -16.4221493574      -0.0000003213     0.999992    0.00010126
  137      -16.4221496772      -0.0000003198     0.999992    0.00010100
  138      -16.4221499956      -0.0000003184     0.999992    0.00010074
  139      -16.4221503125      -0.0000003169     0.999992    0.00010049
  140      -16.4221506281      -0.0000003156     0.999992    0.00010024
  141      -16.4221509423      -0.0000003142     0.999992    0.00010000
  142      -16.4221512551      -0.0000003129     0.999992    0.00009975
  143      -16.4221515667      -0.0000003116     0.999992    0.00009952
  144      -16.4221518770      -0.0000003103     0.999992    0.00009928
  145      -16.4221521860      -0.0000003090     0.999992    0.00009905
  146      -16.4221524938      -0.0000003078     0.999992    0.00009882
  147      -16.4221528004      -0.0000003066     0.999992    0.00009860
  148      -16.4221531058      -0.0000003054     0.999992    0.00009838
  149      -16.4221534100      -0.0000003043     0.999992    0.00009816
  150      -16.4221537132      -0.0000003031     0.999992    0.00009795
  151      -16.4221540152      -0.0000003020     0.999992    0.00009773
  152      -16.4221543161      -0.0000003009     0.999992    0.00009753
  153      -16.4221546160      -0.0000002999     0.999992    0.00009732
  154      -16.4221549148      -0.0000002988     0.999992    0.00009712
  155      -16.4221552127      -0.0000002978     0.999992    0.00009692
  156      -16.4221555095      -0.0000002968     0.999992    0.00009673
  157      -16.4221558054      -0.0000002959     0.999992    0.00009654
  158      -16.4221561003      -0.0000002949     0.999992    0.00009635
  159      -16.4221563943      -0.0000002940     0.999992    0.00009616
  160      -16.4221566874      -0.0000002931     0.999992    0.00009598
  161      -16.4221569796      -0.0000002922     0.999992    0.00009580
  162      -16.4221572709      -0.0000002913     0.999992    0.00009562
  163      -16.4221575614      -0.0000002905     0.999992    0.00009545
  164      -16.4221578510      -0.0000002896     0.999992    0.00009527
  165      -16.4221581399      -0.0000002888     0.999992    0.00009510
  166      -16.4221584279      -0.0000002880     0.999992    0.00009494
  167      -16.4221587152      -0.0000002873     0.999992    0.00009477
  168      -16.4221590017      -0.0000002865     0.999992    0.00009461
  169      -16.4221592875      -0.0000002858     0.999992    0.00009445
  170      -16.4221595726      -0.0000002851     0.999992    0.00009430
  171      -16.4221598569      -0.0000002844     0.999992    0.00009414
  172      -16.4221601406      -0.0000002837     0.999992    0.00009399
  173      -16.4221604236      -0.0000002830     0.999992    0.00009384
  174      -16.4221607060      -0.0000002824     0.999992    0.00009370
  175      -16.4221609877      -0.0000002817     0.999992    0.00009356
  176      -16.4221612688      -0.0000002811     0.999992    0.00009341
  177      -16.4221615493      -0.0000002805     0.999992    0.00009327
  178      -16.4221618293      -0.0000002799     0.999992    0.00009314
  179      -16.4221621086      -0.0000002794     0.999992    0.00009300
  180      -16.4221623874      -0.0000002788     0.999992    0.00009287
  181      -16.4221626657      -0.0000002783     0.999992    0.00009274
  182      -16.4221629434      -0.0000002777     0.999992    0.00009261
  183      -16.4221632207      -0.0000002772     0.999992    0.00009249
  184      -16.4221634974      -0.0000002767     0.999992    0.00009236
  185      -16.4221637737      -0.0000002763     0.999992    0.00009224
  186      -16.4221640495      -0.0000002758     0.999992    0.00009212
  187      -16.4221643248      -0.0000002753     0.999992    0.00009201
  188      -16.4221645997      -0.0000002749     0.999992    0.00009189
  189      -16.4221648742      -0.0000002745     0.999992    0.00009178
  190      -16.4221651482      -0.0000002741     0.999992    0.00009167
  191      -16.4221654219      -0.0000002737     0.999992    0.00009156
  192      -16.4221656952      -0.0000002733     0.999992    0.00009145
  193      -16.4221659681      -0.0000002729     0.999992    0.00009135
  194      -16.4221662406      -0.0000002725     0.999992    0.00009124
  195      -16.4221665128      -0.0000002722     0.999992    0.00009114
  196      -16.4221667847      -0.0000002719     0.999992    0.00009104
  197      -16.4221670562      -0.0000002715     0.999992    0.00009094
  198      -16.4221673275      -0.0000002712     0.999992    0.00009085
  199      -16.4221675984      -0.0000002709     0.999992    0.00009075
  200      -16.4221678691      -0.0000002707     0.999992    0.00009066
  201      -16.4221681394      -0.0000002704     0.999992    0.00009057
  202      -16.4221684096      -0.0000002701     0.999992    0.00009048
  203      -16.4221686794      -0.0000002699     0.999992    0.00009039
  204      -16.4221689491      -0.0000002696     0.999992    0.00009030
  205      -16.4221692185      -0.0000002694     0.999992    0.00009022
  206      -16.4221694876      -0.0000002692     0.999992    0.00009013
  207      -16.4221697566      -0.0000002690     0.999992    0.00009005
  208      -16.4221700254      -0.0000002688     0.999992    0.00008997
  209      -16.4221702940      -0.0000002686     0.999992    0.00008989
  210      -16.4221705624      -0.0000002684     0.999992    0.00008982
  211      -16.4221708306      -0.0000002683     0.999992    0.00008974
  212      -16.4221710987      -0.0000002681     0.999992    0.00008967
  213      -16.4221713667      -0.0000002680     0.999992    0.00008960
  214      -16.4221716345      -0.0000002678     0.999992    0.00008952
  215      -16.4221719022      -0.0000002677     0.999992    0.00008945
  216      -16.4221721698      -0.0000002676     0.999992    0.00008939
  217      -16.4221724373      -0.0000002675     0.999992    0.00008932
  218      -16.4221727046      -0.0000002674     0.999992    0.00008925
  219      -16.4221729719      -0.0000002673     0.999992    0.00008922
  220      -16.4221732392      -0.0000002672     0.999992    0.00008933
  221      -16.4221735063      -0.0000002671     0.999992    0.00008944
  222      -16.4221737734      -0.0000002671     0.999992    0.00008955
  223      -16.4221740404      -0.0000002670     0.999992    0.00008967
  224      -16.4221743074      -0.0000002670     0.999992    0.00008978
  225      -16.4221745744      -0.0000002670     0.999992    0.00008990
  226      -16.4221748413      -0.0000002669     0.999992    0.00009001
  227      -16.4221751083      -0.0000002669     0.999992    0.00009013
  228      -16.4221753752      -0.0000002669     0.999992    0.00009025
  229      -16.4221756421      -0.0000002669     0.999992    0.00009037
  230      -16.4221759090      -0.0000002669     0.999992    0.00009049
  231      -16.4221761760      -0.0000002669     0.999992    0.00009061
  232      -16.4221764430      -0.0000002670     0.999992    0.00009073
  233      -16.4221767100      -0.0000002670     0.999992    0.00009086
  234      -16.4221769770      -0.0000002670     0.999992    0.00009098
  235      -16.4221772441      -0.0000002671     0.999992    0.00009111
  236      -16.4221775113      -0.0000002672     0.999992    0.00009123
  237      -16.4221777785      -0.0000002672     0.999992    0.00009136
  238      -16.4221780458      -0.0000002673     0.999992    0.00009149
  239      -16.4221783131      -0.0000002674     0.999992    0.00009162
  240      -16.4221785806      -0.0000002675     0.999992    0.00009175
  241      -16.4221788481      -0.0000002675     0.999992    0.00009188
  242      -16.4221791158      -0.0000002676     0.999992    0.00009201
  243      -16.4221793835      -0.0000002678     0.999992    0.00009215
  244      -16.4221796514      -0.0000002679     0.999992    0.00009228
  245      -16.4221799194      -0.0000002680     0.999992    0.00009242
  246      -16.4221801875      -0.0000002681     0.999992    0.00009255
  247      -16.4221804557      -0.0000002682     0.999992    0.00009269
  248      -16.4221807241      -0.0000002684     0.999992    0.00009283
  249      -16.4221809926      -0.0000002685     0.999992    0.00009297
  250      -16.4221812613      -0.0000002687     0.999992    0.00009311
  251      -16.4221815302      -0.0000002688     0.999992    0.00009325
  252      -16.4221817992      -0.0000002690     0.999992    0.00009339
  253      -16.4221820683      -0.0000002692     0.999992    0.00009353
  254      -16.4221823377      -0.0000002693     0.999992    0.00009367
  255      -16.4221826072      -0.0000002695     0.999992    0.00009382
  256      -16.4221828769      -0.0000002697     0.999992    0.00009396
  257      -16.4221831468      -0.0000002699     0.999992    0.00009411
  258      -16.4221834169      -0.0000002701     0.999992    0.00009425
  259      -16.4221836872      -0.0000002703     0.999992    0.00009440
  260      -16.4221839577      -0.0000002705     0.999992    0.00009455
  261      -16.4221842285      -0.0000002707     0.999992    0.00009470
  262      -16.4221844994      -0.0000002709     0.999992    0.00009484
  263      -16.4221847706      -0.0000002712     0.999992    0.00009499
  264      -16.4221850420      -0.0000002714     0.999992    0.00009514
  265      -16.4221853136      -0.0000002716     0.999992    0.00009529
  266      -16.4221855855      -0.0000002719     0.999992    0.00009545
  267      -16.4221858576      -0.0000002721     0.999992    0.00009560
  268      -16.4221861299      -0.0000002724     0.999992    0.00009575
  269      -16.4221864025      -0.0000002726     0.999992    0.00009590
  270      -16.4221866754      -0.0000002729     0.999992    0.00009606
  271      -16.4221869485      -0.0000002731     0.999992    0.00009621
  272      -16.4221872219      -0.0000002734     0.999992    0.00009637
  273      -16.4221874956      -0.0000002737     0.999992    0.00009652
  274      -16.4221877695      -0.0000002739     0.999992    0.00009668
  275      -16.4221880437      -0.0000002742     0.999992    0.00009683
  276      -16.4221883182      -0.0000002745     0.999992    0.00009699
  277      -16.4221885929      -0.0000002748     0.999992    0.00009715
  278      -16.4221888680      -0.0000002750     0.999992    0.00009730
  279      -16.4221891433      -0.0000002753     0.999992    0.00009746
  280      -16.4221894189      -0.0000002756     0.999992    0.00009762
  281      -16.4221896949      -0.0000002759     0.999992    0.00009778
  282      -16.4221899711      -0.0000002762     0.999992    0.00009794
  283      -16.4221902476      -0.0000002765     0.999992    0.00009810
  284      -16.4221905244      -0.0000002768     0.999992    0.00009826
  285      -16.4221908016      -0.0000002771     0.999992    0.00009842
  286      -16.4221910790      -0.0000002774     0.999992    0.00009858
  287      -16.4221913568      -0.0000002778     0.999992    0.00009874
  288      -16.4221916348      -0.0000002781     0.999992    0.00009890
  289      -16.4221919132      -0.0000002784     0.999992    0.00009906
  290      -16.4221921919      -0.0000002787     0.999992    0.00009922
  291      -16.4221924710      -0.0000002790     0.999992    0.00009938
  292      -16.4221927503      -0.0000002794     0.999992    0.00009955
  293      -16.4221930300      -0.0000002797     0.999992    0.00009971
  294      -16.4221933100      -0.0000002800     0.999992    0.00009987
  295      -16.4221935904      -0.0000002803     0.999992    0.00010003
  296      -16.4221938710      -0.0000002807     0.999992    0.00010019
  297      -16.4221941520      -0.0000002810     0.999992    0.00010036
  298      -16.4221944334      -0.0000002813     0.999992    0.00010052
  299      -16.4221947150      -0.0000002817     0.999992    0.00010068
  300      -16.4221949970      -0.0000002820     0.999992    0.00010084
  301      -16.4221952794      -0.0000002823     0.999992    0.00010101
  302      -16.4221955620      -0.0000002827     0.999992    0.00010117
  303      -16.4221958451      -0.0000002830     0.999992    0.00010133
  304      -16.4221961284      -0.0000002834     0.999992    0.00010149
  305      -16.4221964121      -0.0000002837     0.999992    0.00010165
  306      -16.4221966962      -0.0000002840     0.999992    0.00010182
  307      -16.4221969805      -0.0000002844     0.999992    0.00010198
  308      -16.4221972653      -0.0000002847     0.999992    0.00010214
  309      -16.4221975503      -0.0000002851     0.999992    0.00010230
  310      -16.4221978357      -0.0000002854     0.999992    0.00010246
  311      -16.4221981214      -0.0000002857     0.999992    0.00010262
  312      -16.4221984075      -0.0000002861     0.999992    0.00010279
  313      -16.4221986940      -0.0000002864     0.999992    0.00010295
  314      -16.4221989807      -0.0000002868     0.999992    0.00010311
  315      -16.4221992678      -0.0000002871     0.999992    0.00010327
  316      -16.4221995553      -0.0000002874     0.999992    0.00010343
  317      -16.4221998430      -0.0000002878     0.999992    0.00010358
  318      -16.4222001311      -0.0000002881     0.999992    0.00010374
  319      -16.4222004196      -0.0000002884     0.999992    0.00010390
  320      -16.4222007084      -0.0000002888     0.999992    0.00010406
  321      -16.4222009975      -0.0000002891     0.999992    0.00010422
  322      -16.4222012869      -0.0000002894     0.999992    0.00010438
  323      -16.4222015767      -0.0000002898     0.999992    0.00010453
  324      -16.4222018668      -0.0000002901     0.999992    0.00010469
  325      -16.4222021572      -0.0000002904     0.999992    0.00010484
  326      -16.4222024480      -0.0000002908     0.999992    0.00010500
  327      -16.4222027391      -0.0000002911     0.999992    0.00010515
  328      -16.4222030304      -0.0000002914     0.999992    0.00010531
  329      -16.4222033222      -0.0000002917     0.999992    0.00010546
  330      -16.4222036142      -0.0000002920     0.999992    0.00010561
  331      -16.4222039065      -0.0000002923     0.999992    0.00010576
  332      -16.4222041992      -0.0000002926     0.999992    0.00010591
  333      -16.4222044921      -0.0000002930     0.999992    0.00010606
  334      -16.4222047854      -0.0000002933     0.999992    0.00010621
  335      -16.4222050789      -0.0000002936     0.999992    0.00010636
  336      -16.4222053728      -0.0000002938     0.999992    0.00010651
  337      -16.4222056669      -0.0000002941     0.999992    0.00010666
  338      -16.4222059613      -0.0000002944     0.999992    0.00010680
  339      -16.4222062561      -0.0000002947     0.999992    0.00010695
  340      -16.4222065511      -0.0000002950     0.999992    0.00010709
  341      -16.4222068463      -0.0000002953     0.999992    0.00010723
  342      -16.4222071419      -0.0000002956     0.999992    0.00010738
  343      -16.4222074377      -0.0000002958     0.999992    0.00010752
  344      -16.4222077338      -0.0000002961     0.999992    0.00010766
  345      -16.4222080301      -0.0000002963     0.999992    0.00010780
  346      -16.4222083267      -0.0000002966     0.999992    0.00010793
  347      -16.4222086236      -0.0000002969     0.999993    0.00010807
  348      -16.4222089207      -0.0000002971     0.999993    0.00010821
  349      -16.4222092180      -0.0000002973     0.999993    0.00010834
  350      -16.4222095156      -0.0000002976     0.999993    0.00010847
  351      -16.4222098134      -0.0000002978     0.999993    0.00010860
  352      -16.4222101114      -0.0000002980     0.999993    0.00010873
  353      -16.4222104097      -0.0000002982     0.999993    0.00010886
  354      -16.4222107082      -0.0000002985     0.999993    0.00010899
  355      -16.4222110068      -0.0000002987     0.999993    0.00010912
  356      -16.4222113057      -0.0000002989     0.999993    0.00010924
  357      -16.4222116048      -0.0000002991     0.999993    0.00010937
  358      -16.4222119040      -0.0000002993     0.999993    0.00010949
  359      -16.4222122035      -0.0000002994     0.999993    0.00010961
  360      -16.4222125031      -0.0000002996     0.999993    0.00010973
  361      -16.4222128029      -0.0000002998     0.999993    0.00010985
  362      -16.4222131028      -0.0000002999     0.999993    0.00010996
  363      -16.4222134029      -0.0000003001     0.999993    0.00011008
  364      -16.4222137031      -0.0000003002     0.999993    0.00011019
  365      -16.4222140035      -0.0000003004     0.999993    0.00011030
  366      -16.4222143041      -0.0000003005     0.999993    0.00011041
  367      -16.4222146047      -0.0000003006     0.999993    0.00011052
  368      -16.4222149055      -0.0000003008     0.999993    0.00011062
  369      -16.4222152064      -0.0000003009     0.999993    0.00011073
  370      -16.4222155073      -0.0000003010     0.999993    0.00011083
  371      -16.4222158084      -0.0000003011     0.999993    0.00011093
  372      -16.4222161096      -0.0000003012     0.999993    0.00011103
  373      -16.4222164108      -0.0000003012     0.999993    0.00011113
  374      -16.4222167121      -0.0000003013     0.999993    0.00011122
  375      -16.4222170135      -0.0000003014     0.999993    0.00011132
  376      -16.4222173149      -0.0000003014     0.999993    0.00011141
  377      -16.4222176164      -0.0000003015     0.999993    0.00011150
  378      -16.4222179179      -0.0000003015     0.999993    0.00011159
  379      -16.4222182194      -0.0000003015     0.999993    0.00011167
  380      -16.4222185210      -0.0000003015     0.999993    0.00011175
  381      -16.4222188225      -0.0000003016     0.999993    0.00011183
  382      -16.4222191241      -0.0000003016     0.999993    0.00011191
  383      -16.4222194256      -0.0000003015     0.999993    0.00011199
  384      -16.4222197271      -0.0000003015     0.999993    0.00011207
  385      -16.4222200286      -0.0000003015     0.999993    0.00011214
  386      -16.4222203301      -0.0000003014     0.999993    0.00011221
  387      -16.4222206315      -0.0000003014     0.999993    0.00011228
  388      -16.4222209328      -0.0000003013     0.999993    0.00011234
  389      -16.4222212341      -0.0000003013     0.999993    0.00011241
  390      -16.4222215353      -0.0000003012     0.999993    0.00011247
  391      -16.4222218363      -0.0000003011     0.999993    0.00011253
  392      -16.4222221373      -0.0000003010     0.999993    0.00011258
  393      -16.4222224382      -0.0000003009     0.999993    0.00011264
  394      -16.4222227390      -0.0000003008     0.999993    0.00011269
  395      -16.4222230396      -0.0000003006     0.999993    0.00011274
  396      -16.4222233401      -0.0000003005     0.999993    0.00011278
  397      -16.4222236404      -0.0000003003     0.999993    0.00011283
  398      -16.4222239406      -0.0000003002     0.999993    0.00011287
  399      -16.4222242405      -0.0000003000     0.999993    0.00011291
  400      -16.4222245403      -0.0000002998     0.999993    0.00011295
  401      -16.4222248399      -0.0000002996     0.999993    0.00011298
  402      -16.4222251393      -0.0000002994     0.999993    0.00011301
  403      -16.4222254384      -0.0000002992     0.999993    0.00011304
  404      -16.4222257374      -0.0000002989     0.999993    0.00011307
  405      -16.4222260360      -0.0000002987     0.999993    0.00011309
  406      -16.4222263345      -0.0000002984     0.999993    0.00011311
  407      -16.4222266326      -0.0000002981     0.999993    0.00011313
  408      -16.4222269305      -0.0000002979     0.999993    0.00011315
  409      -16.4222272280      -0.0000002976     0.999993    0.00011316
  410      -16.4222275253      -0.0000002973     0.999993    0.00011317
  411      -16.4222278223      -0.0000002969     0.999993    0.00011318
  412      -16.4222281189      -0.0000002966     0.999993    0.00011318
  413      -16.4222284151      -0.0000002963     0.999993    0.00011318
  414      -16.4222287111      -0.0000002959     0.999993    0.00011318
  415      -16.4222290066      -0.0000002956     0.999993    0.00011318
  416      -16.4222293018      -0.0000002952     0.999993    0.00011317
  417      -16.4222295966      -0.0000002948     0.999993    0.00011316
  418      -16.4222298910      -0.0000002944     0.999993    0.00011315
  419      -16.4222301850      -0.0000002940     0.999993    0.00011313
  420      -16.4222304785      -0.0000002935     0.999993    0.00011311
  421      -16.4222307716      -0.0000002931     0.999993    0.00011309
  422      -16.4222310643      -0.0000002927     0.999993    0.00011307
  423      -16.4222313564      -0.0000002922     0.999993    0.00011304
  424      -16.4222316482      -0.0000002917     0.999993    0.00011301
  425      -16.4222319394      -0.0000002912     0.999993    0.00011297
  426      -16.4222322301      -0.0000002907     0.999993    0.00011294
  427      -16.4222325203      -0.0000002902     0.999993    0.00011290
  428      -16.4222328100      -0.0000002897     0.999993    0.00011285
  429      -16.4222330991      -0.0000002891     0.999993    0.00011281
  430      -16.4222333877      -0.0000002886     0.999993    0.00011276
  431      -16.4222336757      -0.0000002880     0.999993    0.00011271
  432      -16.4222339631      -0.0000002874     0.999993    0.00011265
  433      -16.4222342500      -0.0000002868     0.999993    0.00011259
  434      -16.4222345362      -0.0000002862     0.999993    0.00011253
  435      -16.4222348218      -0.0000002856     0.999993    0.00011247
  436      -16.4222351068      -0.0000002850     0.999993    0.00011240
  437      -16.4222353912      -0.0000002844     0.999993    0.00011233
  438      -16.4222356749      -0.0000002837     0.999993    0.00011226
  439      -16.4222359579      -0.0000002830     0.999993    0.00011218
  440      -16.4222362402      -0.0000002824     0.999993    0.00011210
  441      -16.4222365219      -0.0000002817     0.999993    0.00011201
  442      -16.4222368029      -0.0000002810     0.999993    0.00011193
  443      -16.4222370831      -0.0000002802     0.999993    0.00011184
  444      -16.4222373626      -0.0000002795     0.999994    0.00011175
  445      -16.4222376414      -0.0000002788     0.999994    0.00011165
  446      -16.4222379194      -0.0000002780     0.999994    0.00011155
  447      -16.4222381967      -0.0000002773     0.999994    0.00011145
  448      -16.4222384732      -0.0000002765     0.999994    0.00011134
  449      -16.4222387488      -0.0000002757     0.999994    0.00011123
  450      -16.4222390237      -0.0000002749     0.999994    0.00011112
  451      -16.4222392978      -0.0000002741     0.999994    0.00011100
  452      -16.4222395710      -0.0000002732     0.999994    0.00011089
  453      -16.4222398435      -0.0000002724     0.999994    0.00011076
  454      -16.4222401150      -0.0000002716     0.999994    0.00011064
  455      -16.4222403857      -0.0000002707     0.999994    0.00011051
  456      -16.4222406555      -0.0000002698     0.999994    0.00011038
  457      -16.4222409245      -0.0000002689     0.999994    0.00011024
  458      -16.4222411925      -0.0000002680     0.999994    0.00011011
  459      -16.4222414597      -0.0000002671     0.999994    0.00010997
  460      -16.4222417259      -0.0000002662     0.999994    0.00010982
  461      -16.4222419912      -0.0000002653     0.999994    0.00010967
  462      -16.4222422556      -0.0000002644     0.999994    0.00010952
  463      -16.4222425190      -0.0000002634     0.999994    0.00010937
  464      -16.4222427814      -0.0000002624     0.999994    0.00010921
  465      -16.4222430429      -0.0000002615     0.999994    0.00010905
  466      -16.4222433034      -0.0000002605     0.999994    0.00010889
  467      -16.4222435629      -0.0000002595     0.999994    0.00010872
  468      -16.4222438213      -0.0000002585     0.999994    0.00010855
  469      -16.4222440788      -0.0000002575     0.999994    0.00010838
  470      -16.4222443353      -0.0000002564     0.999994    0.00010821
  471      -16.4222445907      -0.0000002554     0.999994    0.00010803
  472      -16.4222448451      -0.0000002544     0.999994    0.00010785
  473      -16.4222450984      -0.0000002533     0.999994    0.00010766
  474      -16.4222453506      -0.0000002522     0.999994    0.00010747
  475      -16.4222456018      -0.0000002512     0.999994    0.00010728
  476      -16.4222458519      -0.0000002501     0.999994    0.00010709
  477      -16.4222461009      -0.0000002490     0.999994    0.00010689
  478      -16.4222463488      -0.0000002479     0.999994    0.00010669
  479      -16.4222465956      -0.0000002468     0.999994    0.00010649
  480      -16.4222468412      -0.0000002457     0.999994    0.00010628
  481      -16.4222470858      -0.0000002445     0.999994    0.00010607
  482      -16.4222473292      -0.0000002434     0.999994    0.00010586
  483      -16.4222475714      -0.0000002423     0.999994    0.00010565
  484      -16.4222478125      -0.0000002411     0.999994    0.00010543
  485      -16.4222480525      -0.0000002399     0.999994    0.00010521
  486      -16.4222482912      -0.0000002388     0.999994    0.00010498
  487      -16.4222485288      -0.0000002376     0.999994    0.00010476
  488      -16.4222487652      -0.0000002364     0.999994    0.00010453
  489      -16.4222490005      -0.0000002352     0.999994    0.00010430
  490      -16.4222492345      -0.0000002340     0.999994    0.00010406
  491      -16.4222494673      -0.0000002328     0.999994    0.00010382
  492      -16.4222496989      -0.0000002316     0.999994    0.00010358
  493      -16.4222499292      -0.0000002304     0.999994    0.00010334
  494      -16.4222501584      -0.0000002291     0.999994    0.00010309
  495      -16.4222503863      -0.0000002279     0.999994    0.00010284
  496      -16.4222506129      -0.0000002267     0.999994    0.00010259
  497      -16.4222508384      -0.0000002254     0.999994    0.00010234
  498      -16.4222510625      -0.0000002242     0.999994    0.00010208
  499      -16.4222512854      -0.0000002229     0.999994    0.00010182
  500      -16.4222515071      -0.0000002216     0.999994    0.00010156
  501      -16.4222517274      -0.0000002204     0.999994    0.00010130
  502      -16.4222519465      -0.0000002191     0.999994    0.00010103
  503      -16.4222521644      -0.0000002178     0.999994    0.00010076
  504      -16.4222523809      -0.0000002165     0.999994    0.00010049
  505      -16.4222525961      -0.0000002152     0.999994    0.00010021
  506      -16.4222528101      -0.0000002139     0.999994    0.00009994
  507      -16.4222530227      -0.0000002126     0.999994    0.00009966
  508      -16.4222532341      -0.0000002113     0.999994    0.00009938
  509      -16.4222534441      -0.0000002100     0.999994    0.00009909
  510      -16.4222536528      -0.0000002087     0.999994    0.00009881
  511      -16.4222538602      -0.0000002074     0.999994    0.00009852
  512      -16.4222540663      -0.0000002061     0.999994    0.00009823
  513      -16.4222542711      -0.0000002048     0.999994    0.00009793
  514      -16.4222544745      -0.0000002034     0.999994    0.00009764
  515      -16.4222546766      -0.0000002021     0.999994    0.00009734
  516      -16.4222548774      -0.0000002008     0.999994    0.00009704
  517      -16.4222550768      -0.0000001994     0.999994    0.00009674
  518      -16.4222552750      -0.0000001981     0.999994    0.00009644
  519      -16.4222554717      -0.0000001968     0.999994    0.00009613
  520      -16.4222556672      -0.0000001954     0.999994    0.00009582
  521      -16.4222558612      -0.0000001941     0.999994    0.00009551
  522      -16.4222560540      -0.0000001927     0.999994    0.00009520
  523      -16.4222562454      -0.0000001914     0.999994    0.00009489
  524      -16.4222564354      -0.0000001900     0.999994    0.00009457
  525      -16.4222566241      -0.0000001887     0.999994    0.00009425
  526      -16.4222568115      -0.0000001874     0.999994    0.00009393
  527      -16.4222569975      -0.0000001860     0.999994    0.00009361
  528      -16.4222571821      -0.0000001846     0.999994    0.00009329
  529      -16.4222573654      -0.0000001833     0.999994    0.00009297
  530      -16.4222575474      -0.0000001819     0.999994    0.00009264
  531      -16.4222577280      -0.0000001806     0.999994    0.00009231
  532      -16.4222579072      -0.0000001792     0.999994    0.00009198
  533      -16.4222580851      -0.0000001779     0.999994    0.00009165
  534      -16.4222582616      -0.0000001765     0.999994    0.00009132
  535      -16.4222584368      -0.0000001752     0.999995    0.00009098
  536      -16.4222586107      -0.0000001738     0.999995    0.00009065
  537      -16.4222587831      -0.0000001725     0.999995    0.00009031
  538      -16.4222589543      -0.0000001711     0.999995    0.00008997
  539      -16.4222591241      -0.0000001698     0.999995    0.00008963
  540      -16.4222592925      -0.0000001684     0.999995    0.00008929
  541      -16.4222594596      -0.0000001671     0.999995    0.00008894
  542      -16.4222596254      -0.0000001658     0.999995    0.00008860
  543      -16.4222597898      -0.0000001644     0.999995    0.00008825
  544      -16.4222599528      -0.0000001631     0.999995    0.00008790
  545      -16.4222601146      -0.0000001617     0.999995    0.00008756
  546      -16.4222602750      -0.0000001604     0.999995    0.00008721
  547      -16.4222604340      -0.0000001591     0.999995    0.00008686
  548      -16.4222605918      -0.0000001577     0.999995    0.00008650
  549      -16.4222607482      -0.0000001564     0.999995    0.00008615
  550      -16.4222609033      -0.0000001551     0.999995    0.00008580
  551      -16.4222610570      -0.0000001538     0.999995    0.00008544
  552      -16.4222612095      -0.0000001524     0.999995    0.00008508
  553      -16.4222613606      -0.0000001511     0.999995    0.00008473
  554      -16.4222615104      -0.0000001498     0.999995    0.00008437
  555      -16.4222616589      -0.0000001485     0.999995    0.00008401
  556      -16.4222618061      -0.0000001472     0.999995    0.00008365
  557      -16.4222619520      -0.0000001459     0.999995    0.00008329
  558      -16.4222620966      -0.0000001446     0.999995    0.00008293
  559      -16.4222622399      -0.0000001433     0.999995    0.00008257
  560      -16.4222623819      -0.0000001420     0.999995    0.00008220
  561      -16.4222625226      -0.0000001407     0.999995    0.00008184
  562      -16.4222626620      -0.0000001394     0.999995    0.00008147
  563      -16.4222628002      -0.0000001382     0.999995    0.00008111
  564      -16.4222629371      -0.0000001369     0.999995    0.00008074
  565      -16.4222630727      -0.0000001356     0.999995    0.00008038
  566      -16.4222632071      -0.0000001344     0.999995    0.00008001
  567      -16.4222633402      -0.0000001331     0.999995    0.00007964
  568      -16.4222634720      -0.0000001319     0.999995    0.00007927
  569      -16.4222636027      -0.0000001306     0.999995    0.00007891
  570      -16.4222637320      -0.0000001294     0.999995    0.00007854
  571      -16.4222638601      -0.0000001281     0.999995    0.00007817
  572      -16.4222639870      -0.0000001269     0.999995    0.00007780
  573      -16.4222641127      -0.0000001257     0.999995    0.00007743
  574      -16.4222642371      -0.0000001244     0.999995    0.00007706
  575      -16.4222643604      -0.0000001232     0.999995    0.00007669
  576      -16.4222644824      -0.0000001220     0.999995    0.00007632
  577      -16.4222646032      -0.0000001208     0.999995    0.00007594
  578      -16.4222647228      -0.0000001196     0.999995    0.00007557
  579      -16.4222648412      -0.0000001184     0.999995    0.00007520
  580      -16.4222649585      -0.0000001172     0.999995    0.00007483
  581      -16.4222650746      -0.0000001161     0.999995    0.00007446
  582      -16.4222651894      -0.0000001149     0.999995    0.00007409
  583      -16.4222653032      -0.0000001137     0.999995    0.00007372
  584      -16.4222654157      -0.0000001126     0.999995    0.00007334
  585      -16.4222655271      -0.0000001114     0.999995    0.00007297
  586      -16.4222656374      -0.0000001103     0.999995    0.00007260
  587      -16.4222657465      -0.0000001091     0.999995    0.00007223
  588      -16.4222658545      -0.0000001080     0.999995    0.00007186
  589      -16.4222659614      -0.0000001069     0.999995    0.00007149
  590      -16.4222660671      -0.0000001057     0.999995    0.00007111
  591      -16.4222661717      -0.0000001046     0.999995    0.00007074
  592      -16.4222662752      -0.0000001035     0.999995    0.00007037
  593      -16.4222663777      -0.0000001024     0.999995    0.00007000
  594      -16.4222664790      -0.0000001013     0.999995    0.00006963
  595      -16.4222665792      -0.0000001002     0.999995    0.00006926
  596      -16.4222666784      -0.0000000992     0.999995    0.00006889
  597      -16.4222667765      -0.0000000981     0.999995    0.00006852
  598      -16.4222668735      -0.0000000970     0.999995    0.00006815
  599      -16.4222669695      -0.0000000960     0.999995    0.00006778
  600      -16.4222670644      -0.0000000949     0.999995    0.00006741
  601      -16.4222671582      -0.0000000939     0.999995    0.00006705
  602      -16.4222672511      -0.0000000928     0.999995    0.00006668
  603      -16.4222673429      -0.0000000918     0.999995    0.00006631
  604      -16.4222674337      -0.0000000908     0.999995    0.00006594
  605      -16.4222675234      -0.0000000898     0.999995    0.00006558
  606      -16.4222676122      -0.0000000888     0.999995    0.00006521
  607      -16.4222677000      -0.0000000878     0.999995    0.00006485
  608      -16.4222677868      -0.0000000868     0.999995    0.00006448
  609      -16.4222678726      -0.0000000858     0.999995    0.00006412
  610      -16.4222679574      -0.0000000848     0.999995    0.00006375
  611      -16.4222680412      -0.0000000839     0.999995    0.00006339
  612      -16.4222681241      -0.0000000829     0.999995    0.00006303
  613      -16.4222682061      -0.0000000819     0.999995    0.00006267
  614      -16.4222682870      -0.0000000810     0.999995    0.00006231
  615      -16.4222683671      -0.0000000801     0.999995    0.00006195
  616      -16.4222684462      -0.0000000791     0.999995    0.00006159
  617      -16.4222685244      -0.0000000782     0.999995    0.00006123
  618      -16.4222686017      -0.0000000773     0.999995    0.00006087
  619      -16.4222686781      -0.0000000764     0.999995    0.00006051
  620      -16.4222687535      -0.0000000755     0.999995    0.00006016
  621      -16.4222688281      -0.0000000746     0.999995    0.00005980
  622      -16.4222689018      -0.0000000737     0.999995    0.00005945
  623      -16.4222689746      -0.0000000728     0.999995    0.00005909
  624      -16.4222690466      -0.0000000719     0.999995    0.00005874
  625      -16.4222691177      -0.0000000711     0.999995    0.00005839
  626      -16.4222691879      -0.0000000702     0.999995    0.00005804
  627      -16.4222692573      -0.0000000694     0.999995    0.00005769
  628      -16.4222693258      -0.0000000685     0.999995    0.00005734
  629      -16.4222693935      -0.0000000677     0.999995    0.00005699
  630      -16.4222694604      -0.0000000669     0.999995    0.00005664
  631      -16.4222695265      -0.0000000661     0.999995    0.00005630
  632      -16.4222695917      -0.0000000653     0.999995    0.00005595
  633      -16.4222696562      -0.0000000645     0.999995    0.00005561
  634      -16.4222697198      -0.0000000637     0.999995    0.00005526
  635      -16.4222697827      -0.0000000629     0.999995    0.00005492
  636      -16.4222698448      -0.0000000621     0.999995    0.00005458
  637      -16.4222699061      -0.0000000613     0.999995    0.00005424
  638      -16.4222699666      -0.0000000606     0.999995    0.00005390
  639      -16.4222700264      -0.0000000598     0.999995    0.00005356
  640      -16.4222700855      -0.0000000590     0.999995    0.00005323
  641      -16.4222701438      -0.0000000583     0.999995    0.00005289
  642      -16.4222702013      -0.0000000576     0.999995    0.00005256
  643      -16.4222702582      -0.0000000568     0.999995    0.00005222
  644      -16.4222703143      -0.0000000561     0.999995    0.00005189
  645      -16.4222703697      -0.0000000554     0.999995    0.00005156
  646      -16.4222704244      -0.0000000547     0.999995    0.00005123
  647      -16.4222704784      -0.0000000540     0.999995    0.00005090
  648      -16.4222705316      -0.0000000533     0.999995    0.00005057
  649      -16.4222705843      -0.0000000526     0.999995    0.00005025
  650      -16.4222706362      -0.0000000519     0.999995    0.00004992
  651      -16.4222706874      -0.0000000513     0.999995    0.00004960
  652      -16.4222707380      -0.0000000506     0.999995    0.00004928
  653      -16.4222707880      -0.0000000499     0.999995    0.00004895
  654      -16.4222708373      -0.0000000493     0.999995    0.00004863
  655      -16.4222708859      -0.0000000486     0.999995    0.00004832
  656      -16.4222709339      -0.0000000480     0.999995    0.00004800
  657      -16.4222709813      -0.0000000474     0.999995    0.00004768
  658      -16.4222710280      -0.0000000467     0.999995    0.00004737
  659      -16.4222710741      -0.0000000461     0.999995    0.00004705
  660      -16.4222711197      -0.0000000455     0.999995    0.00004674
  661      -16.4222711646      -0.0000000449     0.999995    0.00004643
  662      -16.4222712089      -0.0000000443     0.999995    0.00004612
  663      -16.4222712526      -0.0000000437     0.999995    0.00004581
  664      -16.4222712958      -0.0000000431     0.999995    0.00004550
  665      -16.4222713383      -0.0000000426     0.999995    0.00004520
  666      -16.4222713803      -0.0000000420     0.999995    0.00004489
  667      -16.4222714218      -0.0000000414     0.999995    0.00004459
  668      -16.4222714626      -0.0000000409     0.999995    0.00004429
  669      -16.4222715029      -0.0000000403     0.999995    0.00004399
  670      -16.4222715427      -0.0000000398     0.999995    0.00004369
  671      -16.4222715819      -0.0000000392     0.999995    0.00004339
  672      -16.4222716206      -0.0000000387     0.999995    0.00004309
  673      -16.4222716588      -0.0000000382     0.999995    0.00004280
  674      -16.4222716965      -0.0000000376     0.999995    0.00004250
  675      -16.4222717336      -0.0000000371     0.999996    0.00004221
  676      -16.4222717702      -0.0000000366     0.999996    0.00004192
  677      -16.4222718063      -0.0000000361     0.999996    0.00004163
  678      -16.4222718420      -0.0000000356     0.999996    0.00004134
  679      -16.4222718771      -0.0000000351     0.999996    0.00004106
  680      -16.4222719117      -0.0000000346     0.999996    0.00004077
  681      -16.4222719459      -0.0000000342     0.999996    0.00004049
  682      -16.4222719796      -0.0000000337     0.999996    0.00004021
  683      -16.4222720128      -0.0000000332     0.999996    0.00003992
  684      -16.4222720456      -0.0000000328     0.999996    0.00003964
  685      -16.4222720778      -0.0000000323     0.999996    0.00003937
  686      -16.4222721097      -0.0000000318     0.999996    0.00003909
  687      -16.4222721411      -0.0000000314     0.999996    0.00003881
  688      -16.4222721721      -0.0000000310     0.999996    0.00003854
  689      -16.4222722026      -0.0000000305     0.999996    0.00003827
  690      -16.4222722327      -0.0000000301     0.999996    0.00003800
  691      -16.4222722623      -0.0000000297     0.999996    0.00003773
  692      -16.4222722916      -0.0000000292     0.999996    0.00003746
  693      -16.4222723204      -0.0000000288     0.999996    0.00003719
  694      -16.4222723488      -0.0000000284     0.999996    0.00003692
  695      -16.4222723768      -0.0000000280     0.999996    0.00003666
  696      -16.4222724045      -0.0000000276     0.999996    0.00003640
  697      -16.4222724317      -0.0000000272     0.999996    0.00003614
  698      -16.4222724585      -0.0000000268     0.999996    0.00003588
  699      -16.4222724850      -0.0000000264     0.999996    0.00003562
  700      -16.4222725110      -0.0000000261     0.999996    0.00003536
  701      -16.4222725367      -0.0000000257     0.999996    0.00003510
  702      -16.4222725621      -0.0000000253     0.999996    0.00003485
  703      -16.4222725870      -0.0000000250     0.999996    0.00003460
  704      -16.4222726116      -0.0000000246     0.999996    0.00003435
  705      -16.4222726358      -0.0000000242     0.999996    0.00003410
  706      -16.4222726597      -0.0000000239     0.999996    0.00003385
  707      -16.4222726833      -0.0000000235     0.999996    0.00003360
  708      -16.4222727065      -0.0000000232     0.999996    0.00003335
  709      -16.4222727293      -0.0000000229     0.999996    0.00003311
  710      -16.4222727519      -0.0000000225     0.999996    0.00003287
  711      -16.4222727741      -0.0000000222     0.999996    0.00003262
  712      -16.4222727959      -0.0000000219     0.999996    0.00003238
  713      -16.4222728175      -0.0000000216     0.999996    0.00003215
  714      -16.4222728387      -0.0000000212     0.999996    0.00003191
  715      -16.4222728597      -0.0000000209     0.999996    0.00003167
  716      -16.4222728803      -0.0000000206     0.999996    0.00003144
  717      -16.4222729006      -0.0000000203     0.999996    0.00003120
  718      -16.4222729206      -0.0000000200     0.999996    0.00003097
  719      -16.4222729403      -0.0000000197     0.999996    0.00003074
  720      -16.4222729597      -0.0000000194     0.999996    0.00003051
  721      -16.4222729789      -0.0000000191     0.999996    0.00003029
  722      -16.4222729977      -0.0000000189     0.999996    0.00003006
  723      -16.4222730163      -0.0000000186     0.999996    0.00002983
  724      -16.4222730346      -0.0000000183     0.999996    0.00002961
  725      -16.4222730526      -0.0000000180     0.999996    0.00002939
  726      -16.4222730704      -0.0000000178     0.999996    0.00002917
  727      -16.4222730878      -0.0000000175     0.999996    0.00002895
  728      -16.4222731051      -0.0000000172     0.999996    0.00002873
  729      -16.4222731220      -0.0000000170     0.999996    0.00002851
  730      -16.4222731387      -0.0000000167     0.999996    0.00002830
  731      -16.4222731552      -0.0000000165     0.999996    0.00002808
  732      -16.4222731714      -0.0000000162     0.999996    0.00002787
  733      -16.4222731874      -0.0000000160     0.999996    0.00002766
  734      -16.4222732031      -0.0000000157     0.999996    0.00002745
  735      -16.4222732186      -0.0000000155     0.999996    0.00002724
  736      -16.4222732338      -0.0000000153     0.999996    0.00002703
  737      -16.4222732489      -0.0000000150     0.999996    0.00002683
  738      -16.4222732637      -0.0000000148     0.999996    0.00002662
  739      -16.4222732782      -0.0000000146     0.999996    0.00002642
  740      -16.4222732926      -0.0000000143     0.999996    0.00002622
  741      -16.4222733067      -0.0000000141     0.999996    0.00002602
  742      -16.4222733206      -0.0000000139     0.999996    0.00002582
  743      -16.4222733343      -0.0000000137     0.999996    0.00002562
  744      -16.4222733478      -0.0000000135     0.999996    0.00002542
  745      -16.4222733611      -0.0000000133     0.999996    0.00002523
  746      -16.4222733742      -0.0000000131     0.999996    0.00002503
  747      -16.4222733871      -0.0000000129     0.999996    0.00002484
  748      -16.4222733997      -0.0000000127     0.999996    0.00002465
  749      -16.4222734122      -0.0000000125     0.999996    0.00002446
  750      -16.4222734245      -0.0000000123     0.999996    0.00002427
  751      -16.4222734366      -0.0000000121     0.999996    0.00002408
  752      -16.4222734486      -0.0000000119     0.999996    0.00002389
  753      -16.4222734603      -0.0000000117     0.999996    0.00002371
  754      -16.4222734719      -0.0000000116     0.999996    0.00002352
  755      -16.4222734832      -0.0000000114     0.999996    0.00002334
  756      -16.4222734944      -0.0000000112     0.999996    0.00002316
  757      -16.4222735055      -0.0000000110     0.999996    0.00002298
  758      -16.4222735163      -0.0000000109     0.999996    0.00002280
  759      -16.4222735270      -0.0000000107     0.999996    0.00002262
  760      -16.4222735375      -0.0000000105     0.999996    0.00002244
  761      -16.4222735479      -0.0000000104     0.999996    0.00002227
  762      -16.4222735581      -0.0000000102     0.999996    0.00002209
  763      -16.4222735681      -0.0000000100     0.999996    0.00002192
  764      -16.4222735780      -0.0000000099     0.999996    0.00002175
  765      -16.4222735877      -0.0000000097     0.999996    0.00002158
  766      -16.4222735973      -0.0000000096     0.999996    0.00002141
  767      -16.4222736067      -0.0000000094     0.999996    0.00002124
  768      -16.4222736160      -0.0000000093     0.999996    0.00002107
  769      -16.4222736251      -0.0000000091     0.999996    0.00002090
  770      -16.4222736341      -0.0000000090     0.999996    0.00002074
  771      -16.4222736430      -0.0000000088     0.999996    0.00002058
  772      -16.4222736517      -0.0000000087     0.999996    0.00002041
  773      -16.4222736602      -0.0000000086     0.999996    0.00002025
  774      -16.4222736687      -0.0000000084     0.999996    0.00002009
  775      -16.4222736770      -0.0000000083     0.999996    0.00001993
  776      -16.4222736852      -0.0000000082     0.999996    0.00001977
  777      -16.4222736932      -0.0000000080     0.999996    0.00001962
  778      -16.4222737011      -0.0000000079     0.999996    0.00001946
  779      -16.4222737089      -0.0000000078     0.999996    0.00001931
  780      -16.4222737166      -0.0000000077     0.999996    0.00001915
  781      -16.4222737241      -0.0000000075     0.999996    0.00001900
  782      -16.4222737315      -0.0000000074     0.999996    0.00001885
  783      -16.4222737388      -0.0000000073     0.999996    0.00001870
  784      -16.4222737460      -0.0000000072     0.999996    0.00001855
  785      -16.4222737531      -0.0000000071     0.999996    0.00001840
  786      -16.4222737601      -0.0000000070     0.999996    0.00001825
  787      -16.4222737669      -0.0000000069     0.999996    0.00001811
  788      -16.4222737737      -0.0000000067     0.999996    0.00001796
  789      -16.4222737803      -0.0000000066     0.999996    0.00001782
  790      -16.4222737868      -0.0000000065     0.999996    0.00001767
  791      -16.4222737933      -0.0000000064     0.999996    0.00001753
  792      -16.4222737996      -0.0000000063     0.999996    0.00001739
  793      -16.4222738058      -0.0000000062     0.999996    0.00001725
  794      -16.4222738119      -0.0000000061     0.999996    0.00001711
  795      -16.4222738180      -0.0000000060     0.999996    0.00001697
  796      -16.4222738239      -0.0000000059     0.999996    0.00001684
  797      -16.4222738297      -0.0000000058     0.999996    0.00001670
  798      -16.4222738355      -0.0000000057     0.999996    0.00001657
  799      -16.4222738411      -0.0000000056     0.999996    0.00001643
  800      -16.4222738467      -0.0000000056     0.999996    0.00001630
  801      -16.4222738521      -0.0000000055     0.999996    0.00001617
  802      -16.4222738575      -0.0000000054     0.999996    0.00001604
  803      -16.4222738628      -0.0000000053     0.999996    0.00001591
  804      -16.4222738680      -0.0000000052     0.999996    0.00001578
  805      -16.4222738731      -0.0000000051     0.999996    0.00001565
  806      -16.4222738782      -0.0000000050     0.999996    0.00001552
  807      -16.4222738831      -0.0000000050     0.999996    0.00001540
  808      -16.4222738880      -0.0000000049     0.999996    0.00001527
  809      -16.4222738928      -0.0000000048     0.999996    0.00001515
  810      -16.4222738975      -0.0000000047     0.999996    0.00001502
  811      -16.4222739022      -0.0000000046     0.999996    0.00001490
  812      -16.4222739067      -0.0000000046     0.999996    0.00001478
  813      -16.4222739112      -0.0000000045     0.999996    0.00001466
  814      -16.4222739157      -0.0000000044     0.999996    0.00001454
  815      -16.4222739200      -0.0000000044     0.999996    0.00001442
  816      -16.4222739243      -0.0000000043     0.999996    0.00001430
  817      -16.4222739285      -0.0000000042     0.999996    0.00001418
  818      -16.4222739326      -0.0000000041     0.999996    0.00001407
  819      -16.4222739367      -0.0000000041     0.999996    0.00001395
  820      -16.4222739407      -0.0000000040     0.999996    0.00001384
  821      -16.4222739447      -0.0000000039     0.999996    0.00001373
  822      -16.4222739485      -0.0000000039     0.999996    0.00001361
  823      -16.4222739524      -0.0000000038     0.999996    0.00001350
  824      -16.4222739561      -0.0000000038     0.999996    0.00001339
  825      -16.4222739598      -0.0000000037     0.999996    0.00001328
  826      -16.4222739634      -0.0000000036     0.999996    0.00001317
  827      -16.4222739670      -0.0000000036     0.999996    0.00001306
  828      -16.4222739705      -0.0000000035     0.999996    0.00001296
  829      -16.4222739740      -0.0000000035     0.999996    0.00001285
  830      -16.4222739774      -0.0000000034     0.999996    0.00001274
  831      -16.4222739807      -0.0000000033     0.999996    0.00001264
  832      -16.4222739840      -0.0000000033     0.999996    0.00001253
  833      -16.4222739872      -0.0000000032     0.999996    0.00001243
  834      -16.4222739904      -0.0000000032     0.999996    0.00001233
  835      -16.4222739936      -0.0000000031     0.999996    0.00001223
  836      -16.4222739966      -0.0000000031     0.999996    0.00001212
  837      -16.4222739997      -0.0000000030     0.999996    0.00001202
  838      -16.4222740026      -0.0000000030     0.999996    0.00001192
  839      -16.4222740056      -0.0000000029     0.999996    0.00001183
  840      -16.4222740084      -0.0000000029     0.999996    0.00001173
  841      -16.4222740113      -0.0000000028     0.999996    0.00001163
  842      -16.4222740141      -0.0000000028     0.999996    0.00001153
  843      -16.4222740168      -0.0000000027     0.999996    0.00001144
  844      -16.4222740195      -0.0000000027     0.999996    0.00001134
  845      -16.4222740221      -0.0000000027     0.999996    0.00001125
  846      -16.4222740248      -0.0000000026     0.999996    0.00001116
  847      -16.4222740273      -0.0000000026     0.999996    0.00001106
  848      -16.4222740298      -0.0000000025     0.999996    0.00001097
  849      -16.4222740323      -0.0000000025     0.999996    0.00001088
  850      -16.4222740348      -0.0000000024     0.999996    0.00001079
  851      -16.4222740372      -0.0000000024     0.999996    0.00001070
  852      -16.4222740395      -0.0000000024     0.999996    0.00001061
  853      -16.4222740418      -0.0000000023     0.999996    0.00001052
  854      -16.4222740441      -0.0000000023     0.999996    0.00001043
  855      -16.4222740464      -0.0000000022     0.999996    0.00001035
  856      -16.4222740486      -0.0000000022     0.999996    0.00001026
  857      -16.4222740507      -0.0000000022     0.999996    0.00001018
  858      -16.4222740529      -0.0000000021     0.999996    0.00001009
  859      -16.4222740550      -0.0000000021     0.999996    0.00001001
  860      -16.4222740570      -0.0000000021     0.999996    0.00000992
  861      -16.4222740590      -0.0000000020     0.999996    0.00000984
  862      -16.4222740610      -0.0000000020     0.999996    0.00000976
  863      -16.4222740630      -0.0000000020     0.999996    0.00000968
  864      -16.4222740649      -0.0000000019     0.999996    0.00000960
  865      -16.4222740668      -0.0000000019     0.999996    0.00000951
  866      -16.4222740687      -0.0000000019     0.999996    0.00000944
  867      -16.4222740705      -0.0000000018     0.999996    0.00000936
  868      -16.4222740723      -0.0000000018     0.999996    0.00000928
  869      -16.4222740741      -0.0000000018     0.999996    0.00000920
  870      -16.4222740758      -0.0000000017     0.999996    0.00000912
  871      -16.4222740776      -0.0000000017     0.999996    0.00000905
  872      -16.4222740792      -0.0000000017     0.999996    0.00000897
  873      -16.4222740809      -0.0000000017     0.999996    0.00000889
  874      -16.4222740825      -0.0000000016     0.999996    0.00000882
  875      -16.4222740841      -0.0000000016     0.999996    0.00000875
  876      -16.4222740857      -0.0000000016     0.999996    0.00000867
  877      -16.4222740873      -0.0000000015     0.999996    0.00000860
  878      -16.4222740888      -0.0000000015     0.999996    0.00000853
  879      -16.4222740903      -0.0000000015     0.999996    0.00000846
  880      -16.4222740918      -0.0000000015     0.999996    0.00000838
  881      -16.4222740932      -0.0000000014     0.999996    0.00000831
  882      -16.4222740946      -0.0000000014     0.999996    0.00000824
  883      -16.4222740960      -0.0000000014     0.999996    0.00000817
  884      -16.4222740974      -0.0000000014     0.999996    0.00000811
  885      -16.4222740988      -0.0000000014     0.999996    0.00000804
  886      -16.4222741001      -0.0000000013     0.999996    0.00000797
  887      -16.4222741014      -0.0000000013     0.999996    0.00000790
  888      -16.4222741027      -0.0000000013     0.999996    0.00000783
  889      -16.4222741040      -0.0000000013     0.999996    0.00000777
  890      -16.4222741052      -0.0000000012     0.999996    0.00000770
  891      -16.4222741064      -0.0000000012     0.999996    0.00000764
  892      -16.4222741076      -0.0000000012     0.999996    0.00000757
  893      -16.4222741088      -0.0000000012     0.999996    0.00000751
  894      -16.4222741100      -0.0000000012     0.999996    0.00000745
  895      -16.4222741111      -0.0000000011     0.999996    0.00000738
  896      -16.4222741122      -0.0000000011     0.999996    0.00000732
  897      -16.4222741133      -0.0000000011     0.999996    0.00000726
  898      -16.4222741144      -0.0000000011     0.999996    0.00000720
  899      -16.4222741155      -0.0000000011     0.999996    0.00000714
  900      -16.4222741165      -0.0000000010     0.999996    0.00000708
  901      -16.4222741176      -0.0000000010     0.999996    0.00000702
  902      -16.4222741186      -0.0000000010     0.999996    0.00000696
  903      -16.4222741196      -0.0000000010     0.999996    0.00000690
  904      -16.4222741206      -0.0000000010     0.999996    0.00000684
  905      -16.4222741215      -0.0000000010     0.999996    0.00000678
  906      -16.4222741225      -0.0000000009     0.999996    0.00000672
  907      -16.4222741234      -0.0000000009     0.999996    0.00000667
  908      -16.4222741243      -0.0000000009     0.999996    0.00000661
  909      -16.4222741252      -0.0000000009     0.999996    0.00000655
  910      -16.4222741261      -0.0000000009     0.999996    0.00000650
  911      -16.4222741270      -0.0000000009     0.999996    0.00000644
  912      -16.4222741278      -0.0000000009     0.999996    0.00000639
  913      -16.4222741287      -0.0000000008     0.999996    0.00000633
  914      -16.4222741295      -0.0000000008     0.999996    0.00000628
  915      -16.4222741303      -0.0000000008     0.999996    0.00000623
  916      -16.4222741311      -0.0000000008     0.999996    0.00000617
  917      -16.4222741319      -0.0000000008     0.999996    0.00000612
  918      -16.4222741327      -0.0000000008     0.999996    0.00000607
  919      -16.4222741334      -0.0000000008     0.999996    0.00000602
  920      -16.4222741342      -0.0000000007     0.999996    0.00000597
  921      -16.4222741349      -0.0000000007     0.999996    0.00000591
  922      -16.4222741356      -0.0000000007     0.999996    0.00000586
  923      -16.4222741363      -0.0000000007     0.999996    0.00000581
  924      -16.4222741370      -0.0000000007     0.999996    0.00000576
  925      -16.4222741377      -0.0000000007     0.999996    0.00000572
  926      -16.4222741384      -0.0000000007     0.999996    0.00000567
  927      -16.4222741391      -0.0000000007     0.999996    0.00000562
  928      -16.4222741397      -0.0000000007     0.999996    0.00000557
  929      -16.4222741403      -0.0000000006     0.999996    0.00000552
  930      -16.4222741410      -0.0000000006     0.999996    0.00000548
  931      -16.4222741416      -0.0000000006     0.999996    0.00000543
  932      -16.4222741422      -0.0000000006     0.999996    0.00000538
  933      -16.4222741428      -0.0000000006     0.999996    0.00000534
  934      -16.4222741434      -0.0000000006     0.999996    0.00000529
  935      -16.4222741440      -0.0000000006     0.999996    0.00000525
  936      -16.4222741445      -0.0000000006     0.999996    0.00000520
  937      -16.4222741451      -0.0000000006     0.999996    0.00000516
  938      -16.4222741456      -0.0000000005     0.999996    0.00000511
  939      -16.4222741462      -0.0000000005     0.999996    0.00000507
  940      -16.4222741467      -0.0000000005     0.999996    0.00000503
  941      -16.4222741472      -0.0000000005     0.999996    0.00000498
  942      -16.4222741477      -0.0000000005     0.999996    0.00000494
  943      -16.4222741482      -0.0000000005     0.999996    0.00000490
  944      -16.4222741487      -0.0000000005     0.999996    0.00000486
  945      -16.4222741492      -0.0000000005     0.999996    0.00000481
  946      -16.4222741497      -0.0000000005     0.999996    0.00000477
  947      -16.4222741502      -0.0000000005     0.999996    0.00000473
  948      -16.4222741506      -0.0000000005     0.999996    0.00000469
  949      -16.4222741511      -0.0000000005     0.999996    0.00000465
  950      -16.4222741515      -0.0000000004     0.999996    0.00000461
  951      -16.4222741520      -0.0000000004     0.999996    0.00000457
  952      -16.4222741524      -0.0000000004     0.999996    0.00000453
  953      -16.4222741528      -0.0000000004     0.999996    0.00000449
  954      -16.4222741532      -0.0000000004     0.999996    0.00000446
  955      -16.4222741536      -0.0000000004     0.999996    0.00000442
  956      -16.4222741541      -0.0000000004     0.999996    0.00000438
  957      -16.4222741544      -0.0000000004     0.999996    0.00000434
  958      -16.4222741548      -0.0000000004     0.999996    0.00000430
  959      -16.4222741552      -0.0000000004     0.999996    0.00000427
  960      -16.4222741556      -0.0000000004     0.999996    0.00000423
  961      -16.4222741560      -0.0000000004     0.999996    0.00000419
  962      -16.4222741563      -0.0000000004     0.999996    0.00000416
  963      -16.4222741567      -0.0000000004     0.999996    0.00000412
  964      -16.4222741570      -0.0000000004     0.999996    0.00000409
  965      -16.4222741574      -0.0000000003     0.999996    0.00000405
  966      -16.4222741577      -0.0000000003     0.999996    0.00000402
  967      -16.4222741580      -0.0000000003     0.999996    0.00000398
  968      -16.4222741584      -0.0000000003     0.999996    0.00000395
  969      -16.4222741587      -0.0000000003     0.999996    0.00000391
  970      -16.4222741590      -0.0000000003     0.999996    0.00000388
  971      -16.4222741593      -0.0000000003     0.999996    0.00000385
  972      -16.4222741596      -0.0000000003     0.999996    0.00000381
  973      -16.4222741599      -0.0000000003     0.999996    0.00000378
  974      -16.4222741602      -0.0000000003     0.999996    0.00000375
  975      -16.4222741605      -0.0000000003     0.999996    0.00000372
  976      -16.4222741608      -0.0000000003     0.999996    0.00000368
  977      -16.4222741611      -0.0000000003     0.999996    0.00000365
  978      -16.4222741614      -0.0000000003     0.999996    0.00000362
  979      -16.4222741616      -0.0000000003     0.999996    0.00000359
  980      -16.4222741619      -0.0000000003     0.999996    0.00000356
  981      -16.4222741621      -0.0000000003     0.999996    0.00000353
  982      -16.4222741624      -0.0000000003     0.999996    0.00000350
  983      -16.4222741627      -0.0000000003     0.999996    0.00000347
  984      -16.4222741629      -0.0000000002     0.999996    0.00000344
  985      -16.4222741632      -0.0000000002     0.999996    0.00000341
  986      -16.4222741634      -0.0000000002     0.999996    0.00000338
  987      -16.4222741636      -0.0000000002     0.999996    0.00000335
  988      -16.4222741639      -0.0000000002     0.999996    0.00000332
  989      -16.4222741641      -0.0000000002     0.999996    0.00000329
  990      -16.4222741643      -0.0000000002     0.999996    0.00000326
  991      -16.4222741645      -0.0000000002     0.999996    0.00000324
  992      -16.4222741647      -0.0000000002     0.999996    0.00000321
  993      -16.4222741650      -0.0000000002     0.999996    0.00000318
  994      -16.4222741652      -0.0000000002     0.999996    0.00000315
  995      -16.4222741654      -0.0000000002     0.999996    0.00000313
  996      -16.4222741656      -0.0000000002     0.999996    0.00000310
  997      -16.4222741658      -0.0000000002     0.999996    0.00000307
  998      -16.4222741660      -0.0000000002     0.999996    0.00000305
  999      -16.4222741662      -0.0000000002     0.999996    0.00000302
 1000      -16.4222741663      -0.0000000002     0.999996    0.00000299

Total Energy:                      -16.4222741663 H         -446.8728 eV
Extrapolated to 0:                 -16.3897120321 H         -445.9868 eV

----------------------------------------------------------------------------------
 Solving CP-REKS equation for  1 state vector...
----------------------------------------------------------------------------------
  CG solver: Constructing Y initial guess
  CG solver: Iteration    1    eps =    0.054730031885
  CG solver: Iteration    2    eps =    0.008376936882
  CG solver: Iteration    3    eps =    0.004253285218
  CG solver: Iteration    4    eps =    0.016857031609
  CG solver: Iteration    5    eps =    0.019639983367
  CG solver: Iteration    6    eps =    0.004987933942
  CG solver: Iteration    7    eps =    0.004203888943
  CG solver: Iteration    8    eps =    0.001836418386
  CG solver: Iteration    9    eps =    0.000252683917
  CG solver: Iteration   10    eps =    0.000091795450
  CG solver: Iteration   11    eps =    0.000017990752
  CG solver: Iteration   12    eps =    0.000002365686
  CG solver: Iteration   13    eps =    0.000000675660
  CG solver: Iteration   14    eps =    0.000000057039
  CG solver: Iteration   15    eps =    0.000000002524
  Convergence reached in CG solver after   15 iterations
  CG solver: Calculating converged R, Z, Q2 matrix
----------------------------------------------------------------------------------

----------------------------------------------------------------------------------
 Solving CP-REKS equation for SI between  1 and  2 state vectors...
----------------------------------------------------------------------------------
  CG solver: Constructing Y initial guess
  CG solver: Iteration    1    eps =    0.043849484704
  CG solver: Iteration    2    eps =    0.002323248517
  CG solver: Iteration    3    eps =    0.001222972789
  CG solver: Iteration    4    eps =    0.002124000401
  CG solver: Iteration    5    eps =    0.001588715072
  CG solver: Iteration    6    eps =    0.004487271752
  CG solver: Iteration    7    eps =    0.002247949282
  CG solver: Iteration    8    eps =    0.000176921254
  CG solver: Iteration    9    eps =    0.000020000519
  CG solver: Iteration   10    eps =    0.000005633836
  CG solver: Iteration   11    eps =    0.000000766789
  CG solver: Iteration   12    eps =    0.000000043825
  CG solver: Iteration   13    eps =    0.000000008562
  Convergence reached in CG solver after   13 iterations
  CG solver: Calculating converged R, Z, Q2 matrix
----------------------------------------------------------------------------------

--------------------------------------------------
 Gradient Information
--------------------------------------------------
           1 st state (SSR)
     0.00000000     0.00000000     0.00000000
     0.00000000     0.00000000     0.00000000
     0.00000000     0.00000000     0.00000000
     0.00000000     0.00000000     0.00000000
     0.00000000     0.00000000     0.00000000
     0.00000000     0.00000000     0.00000000
     0.00000000     0.00000000     0.00000000
     0.00000000     0.00000000     0.00000000
     0.00000000     0.00000000     0.00000000
     0.00000000     0.00000000     0.00000000
     0.00000000     0.00000000     0.00000000
     0.00000000     0.00000000     0.00000000
     0.00000000     0.00000000     0.00000000
     0.00000000     0.00000000     0.00000000

           2 st state (SSR)
     0.00000000     0.00000000     0.00000000
     0.00000000     0.00000000     0.00000000
     0.00000000     0.00000000     0.00000000
     0.00000000     0.00000000     0.00000000
     0.00000000     0.00000000     0.00000000
     0.00000000     0.00000000     0.00000000
     0.00000000     0.00000000     0.00000000
     0.00000000     0.00000000     0.00000000
     0.00000000     0.00000000     0.00000000
     0.00000000     0.00000000     0.00000000
     0.00000000     0.00000000     0.00000000
     0.00000000     0.00000000     0.00000000
     0.00000000     0.00000000     0.00000000
     0.00000000     0.00000000     0.00000000
--------------------------------------------------
 Coupling Information
--------------------------------------------------
 between  1 and  2 states
--------------------------------------------------
 g vector - difference gradient
     0.01949616     0.02731008     0.07132643
    -0.03699920    -0.13537810     0.10033534
    -0.12518841     0.10355310    -0.14042981
    -0.00859486    -0.08792555    -0.03628422
    -0.10545749     0.29804232    -0.09424346
     0.42970145    -0.04189621     0.19759916
    -0.08673601    -0.10768614     0.02950311
    -0.04894190    -0.05296771    -0.01680046
     0.01310129    -0.00248022     0.04700341
    -0.04627699    -0.18092019    -0.19666816
    -0.04668302     0.08902627     0.05586626
     0.11872013     0.01949536     0.00831798
     0.00665626    -0.05237506     0.03773621
    -0.08279742     0.12420205    -0.06326179

 h vector - derivative coupling
    -0.06858677    -0.02550346     0.00614434
     0.05705043     0.06622205    -0.02735530
     0.05748471    -0.01967906     0.03317983
    -0.03631209     0.01489870    -0.03256784
     0.05134787    -0.04944163     0.03229266
    -0.21590624    -0.01202344    -0.05552422
     0.11471784     0.03250556     0.01224791
     0.02213584    -0.00402796    -0.00272147
    -0.00426268    -0.02557800     0.01194950
    -0.00220498     0.01483508     0.02492606
     0.02135788    -0.00305763     0.00005967
     0.00294488     0.01025415    -0.00063125
     0.00252040    -0.00412730     0.00364148
    -0.00228710     0.00472294    -0.00564137

 G vector - GDV
     0.00000000     0.00000000     0.00000000
     0.00000000     0.00000000     0.00000000
     0.00000000     0.00000000     0.00000000
     0.00000000     0.00000000     0.00000000
     0.00000000     0.00000000     0.00000000
     0.00000000     0.00000000     0.00000000
     0.00000000     0.00000000     0.00000000
     0.00000000     0.00000000     0.00000000
     0.00000000     0.00000000     0.00000000
     0.00000000     0.00000000     0.00000000
     0.00000000     0.00000000     0.00000000
     0.00000000     0.00000000     0.00000000
     0.00000000     0.00000000     0.00000000
     0.00000000     0.00000000     0.00000000

 H vector - DCV - non-adiabatic coupling
     0.00000000     0.00000000     0.00000000
     0.00000000     0.00000000     0.00000000
     0.00000000     0.00000000     0.00000000
     0.00000000     0.00000000     0.00000000
     0.00000000     0.00000000     0.00000000
     0.00000000     0.00000000     0.00000000
     0.00000000     0.00000000     0.00000000
     0.00000000     0.00000000     0.00000000
     0.00000000     0.00000000     0.00000000
     0.00000000     0.00000000     0.00000000
     0.00000000     0.00000000     0.00000000
     0.00000000     0.00000000     0.00000000
     0.00000000     0.00000000     0.00000000
     0.00000000     0.00000000     0.00000000
--------------------------------------------------

WARNING!
-> SCC is NOT converged, maximal SCC iterations exceeded

--------------------------------------------------------------------------------
DFTB+ running times                          cpu [s]             wall clock [s]
--------------------------------------------------------------------------------
SCC                                    +     1.57  ( 80.5%)      1.57  ( 80.3%)
      Sparse to dense                        0.07  (  3.8%)      0.06  (  3.3%)
      Dense to sparse                        0.26  ( 13.3%)      0.24  ( 12.4%)
      Range separated Hamiltonian            0.13  (  6.5%)      0.12  (  6.3%)
  Density matrix creation                    0.16  (  8.1%)      0.16  (  8.2%)
  Force calculation                          0.37  ( 19.2%)      0.37  ( 19.1%)
--------------------------------------------------------------------------------
Missing                                +     0.38  ( 19.5%)      0.38  ( 19.7%)
Total                                  =     1.95  (100.0%)      1.96  (100.0%)
--------------------------------------------------------------------------------
