 Fermi distribution function

Calculation with static geometry


********************************************************************************
 iSCC Total electronic   Diff electronic      SCC error    
   13   -0.52814248E+01   -0.28561153E-10    0.29068389E-07
********************************************************************************

 Total charge:     1.00000000

 Atomic gross charges (e)
 Atom           Charge
    1       0.31416240
    2      -0.20259858
    3       0.18334704
    4       0.27406037
    5       0.25946134
    6       0.17156744

Nr. of electrons (up):     12.00000000
Atom populations (up)
 Atom       Population
    1       3.68583760
    2       5.20259858
    3       0.81665296
    4       0.72593963
    5       0.74053866
    6       0.82843256

l-shell populations (up)
 Atom Sh.   l       Population
    1   1   0       1.39592241
    1   2   1       2.28991519
    2   1   0       1.51182893
    2   2   1       3.69076965
    3   1   0       0.81665296
    4   1   0       0.72593963
    5   1   0       0.74053866
    6   1   0       0.82843256

Orbital populations (up)
 Atom Sh.   l   m       Population  Label
    1   1   0   0       1.39592241  s
    1   2   1  -1       0.46394789  p_y
    1   2   1   0       0.86691760  p_z
    1   2   1   1       0.95904969  p_x
    2   1   0   0       1.51182893  s
    2   2   1  -1       1.39528065  p_y
    2   2   1   0       1.06816007  p_z
    2   2   1   1       1.22732893  p_x
    3   1   0   0       0.81665296  s
    4   1   0   0       0.72593963  s
    5   1   0   0       0.74053866  s
    6   1   0   0       0.82843256  s

Fermi level:                        -0.5110414989 H          -13.9061 eV
Band energy:                        -8.6706632467 H         -235.9408 eV
TS:                                  0.0000000000 H            0.0000 eV
Band free energy (E-TS):            -8.6706632467 H         -235.9408 eV
Extrapolated E(0K):                 -8.6706632467 H         -235.9408 eV
Input / Output electrons (q):     12.0000000000     12.0000000000

Energy H0:                          -5.4169507564 H         -147.4027 eV
Energy SCC:                          0.1355259182 H            3.6878 eV
Total Electronic energy:            -5.2814248381 H         -143.7149 eV
Repulsive energy:                    0.1371168296 H            3.7311 eV
Total energy:                       -5.1443080086 H         -139.9837 eV
Extrapolated to 0:                  -5.1443080086 H         -139.9837 eV
Total Mermin free energy:           -5.1443080086 H         -139.9837 eV
Force related energy:               -5.1443080086 H         -139.9837 eV

SCC converged

Excitation Energy:                   0.0982961179 H            2.6748 eV

Total Forces
    1     -0.007218591368      0.002049695878      0.053097330481
    2      0.005187950165      0.014104098055     -0.052619584643
    3     -0.001963485963     -0.012238630488      0.000147579825
    4     -0.010011488329      0.004867083750     -0.002891505193
    5      0.004565635800     -0.014516923992     -0.001872168786
    6      0.009439979695      0.005734676797      0.004138348316

Maximal derivative component:        0.530973E-01 au


