     6
  Step:     0            Position(A)                                  Velocity(au)
C        -0.03531192     0.01139466     0.03674559    -0.00009373    -0.00011633     0.00009048
N        -0.04612971    -0.06066126     1.28118659     0.00022167     0.00004472    -0.00015659
H         0.89160136     0.03553946    -0.53191926     0.00008312     0.00051611    -0.00006256
H         0.82211948    -0.07077523     1.86371466    -0.00211916    -0.00014164    -0.00050469
H        -0.89444525     0.01390162     1.82702443    -0.00078757     0.00009916     0.00078914
H        -0.97039959     0.05874732    -0.50846048     0.00086006     0.00029106     0.00087603
     6
  Step:     1            Position(A)                                  Velocity(au)
C        -0.03581964     0.01075995     0.03680263    -0.00009064    -0.00011591    -0.00006987
N        -0.04489312    -0.06046248     1.28071406     0.00022765     0.00002808    -0.00001563
H         0.89238257     0.03850661    -0.53228160     0.00019829     0.00056904    -0.00006842
H         0.81054378    -0.07140894     1.86083450    -0.00208962    -0.00008969    -0.00053481
H        -0.89911715     0.01462309     1.83147021    -0.00090418     0.00016279     0.00082544
H        -0.96606741     0.06049295    -0.50377666     0.00071194     0.00034880     0.00082761
     6
  Step:     2            Position(A)                                  Velocity(au)
C        -0.03630354     0.01012652     0.03598121    -0.00008500    -0.00011583    -0.00022989
N        -0.04363905    -0.06035405     1.28101556     0.00022777     0.00001170     0.00012555
H         0.89377074     0.04176511    -0.53266784     0.00030321     0.00062220    -0.00007122
H         0.79925787    -0.07175644     1.85786357    -0.00201019    -0.00003688    -0.00053547
H        -0.90433743     0.01568268     1.83605519    -0.00098716     0.00022270     0.00083998
H        -0.96261056     0.06256333    -0.49940598     0.00054176     0.00040959     0.00076145
     6
  Step:     3            Position(A)                                  Velocity(au)
C        -0.03674995     0.00949222     0.03428644    -0.00007697    -0.00011611    -0.00038797
N        -0.04240015    -0.06033447     1.28208824     0.00022184    -0.00000434     0.00026512
H         0.89570119     0.04531665    -0.53306108     0.00039492     0.00067525    -0.00007104
H         0.78854212    -0.07181261     1.85497374    -0.00187844     0.00001666    -0.00050310
H        -0.90992174     0.01706054     1.84066382    -0.00103655     0.00027873     0.00083408
H        -0.96013783     0.06497599    -0.49544256     0.00035447     0.00047323     0.00067900
     6
  Step:     4            Position(A)                                  Velocity(au)
C        -0.03714645     0.00885494     0.03173256    -0.00006684    -0.00011670    -0.00054212
N        -0.04120968    -0.06040157     1.28391887     0.00020980    -0.00001986     0.00040094
H         0.89809554     0.04915979    -0.53344580     0.00047138     0.00072716    -0.00006829
H         0.77868693    -0.07157402     1.85235405    -0.00169311     0.00007034    -0.00043523
H        -0.91568871     0.01873509     1.84518929    -0.00105312     0.00033029     0.00080936
H        -0.95872869     0.06774566    -0.49197021     0.00015573     0.00053869     0.00058248
     6
  Step:     5            Position(A)                                  Velocity(au)
C        -0.03748246     0.00821324     0.02834494    -0.00005497    -0.00011740    -0.00068986
N        -0.04010075    -0.06055211     1.28648248     0.00019177    -0.00003462     0.00053056
H         0.90086746     0.05328616    -0.53380957     0.00053164     0.00077629    -0.00006363
H         0.76998593    -0.07104169     1.85020367    -0.00145476     0.00012313    -0.00033115
H        -0.92146372     0.02068046     1.84953425    -0.00103830     0.00037636     0.00076749
H        -0.95843102     0.07087990    -0.48905867    -0.00004851     0.00060423     0.00047483
     6
  Step:     6            Position(A)                                  Velocity(au)
C        -0.03774964     0.00756675     0.02416297    -0.00004183    -0.00011800    -0.00082816
N        -0.03910541    -0.06078146     1.28974056     0.00016808    -0.00004835     0.00065118
H         0.90392905     0.05767776    -0.53414401     0.00057581     0.00082069    -0.00005784
H         0.76272426    -0.07022297     1.84872048    -0.00116672     0.00017380    -0.00019261
H        -0.92708169     0.02286479     1.85361068    -0.00099414     0.00041579     0.00071022
H        -0.95926100     0.07437565    -0.48676006    -0.00025227     0.00066764     0.00035965
     6
  Step:     7            Position(A)                                  Velocity(au)
C        -0.03794219     0.00691629     0.01924271    -0.00002791    -0.00011830    -0.00095360
N        -0.03825339    -0.06108349     1.29363954     0.00013934    -0.00006076     0.00075981
H         0.90719613     0.06230621    -0.53444523     0.00060481     0.00085841    -0.00005173
H         0.75716271    -0.06913144     1.84808669    -0.00083575     0.00022129    -0.00002430
H        -0.93239024     0.02525037     1.85734021    -0.00092337     0.00044758     0.00063953
H        -0.96120368     0.07821783    -0.48510576    -0.00044950     0.00072661     0.00024113
     6
  Step:     8            Position(A)                                  Velocity(au)
C        -0.03805705     0.00626367     0.01365865    -0.00001374    -0.00011811    -0.00106262
N        -0.03757052    -0.06145074     1.29811018     0.00010649    -0.00007162     0.00085351
H         0.91059125     0.06713354    -0.53471388     0.00061993     0.00088780    -0.00004615
H         0.75351813    -0.06778539     1.84845285    -0.00047260     0.00026480     0.00016615
H        -0.93725298     0.02779503     1.86065537    -0.00082947     0.00047104     0.00055778
H        -0.96421246     0.08237957    -0.48410396    -0.00063401     0.00077896     0.00012376
     6
  Step:     9            Position(A)                                  Velocity(au)
C        -0.03809398     0.00561155     0.00750395     0.00000011    -0.00011731    -0.00115196
N        -0.03707697    -0.06187468     1.30306830     0.00007083    -0.00008076     0.00092976
H         0.91404454     0.07211372    -0.53495501     0.00062265     0.00090756    -0.00004185
H         0.75194186    -0.06620616     1.84992217    -0.00009194     0.00030384     0.00036842
H        -0.94155338     0.03045389     1.86350196    -0.00071680     0.00048587     0.00046786
H        -0.96820761     0.08682303    -0.48373853    -0.00079953     0.00082278     0.00001209
     6
  Step:    10            Position(A)                                  Velocity(au)
C        -0.03805577     0.00496321     0.00088846     0.00001310    -0.00011582    -0.00121917
N        -0.03678537    -0.06234599     1.30841719     0.00003394    -0.00008806     0.00098684
H         0.91749375     0.07719446    -0.53517776     0.00061453     0.00091697    -0.00003949
H         0.75249890    -0.06441708     1.85253702     0.00028850     0.00033810     0.00057039
H        -0.94519912     0.03318119     1.86584191    -0.00059057     0.00049220     0.00037323
H        -0.97307581     0.09150062    -0.48396990    -0.00094027     0.00085657    -0.00008983
     6
  Step:    11            Position(A)                                  Velocity(au)
C        -0.03794814     0.00432241    -0.00606586     0.00002472    -0.00011363    -0.00126321
N        -0.03669920    -0.06285484     1.31405215    -0.00000239    -0.00009353     0.00102427
H         0.92088449     0.08231986    -0.53539449     0.00059735     0.00091603    -0.00003950
H         0.75515296    -0.06244298     1.85627077     0.00064985     0.00036745     0.00075962
H        -0.94812666     0.03593226     1.86765612    -0.00045679     0.00049067     0.00027773
H        -0.97867314     0.09635693    -0.48473835    -0.00105179     0.00087952    -0.00017891
     6
  Step:    12            Position(A)                                  Velocity(au)
C        -0.03777947     0.00369298    -0.01323234     0.00003457    -0.00011083    -0.00128496
N        -0.03681206    -0.06339146     1.31986697    -0.00003642    -0.00009727     0.00104319
H         0.92417116     0.08743426    -0.53561934     0.00057316     0.00090580    -0.00004202
H         0.75976317    -0.06030954     1.86102834     0.00097488     0.00039206     0.00092528
H        -0.95030528     0.03866608     1.86894655    -0.00032179     0.00048250     0.00018533
H        -0.98483316     0.10133236    -0.48596985    -0.00113198     0.00089191    -0.00025350
     6
  Step:    13            Position(A)                                  Velocity(au)
C        -0.03756014     0.00307833    -0.02048986     0.00004243    -0.00010761    -0.00128747
N        -0.03710808    -0.06394670     1.32576227    -0.00006675    -0.00009956     0.00104649
H         0.92731831     0.09248765    -0.53586620     0.00054437     0.00088843    -0.00004691
H         0.76609625    -0.05804201     1.86665731     0.00125096     0.00041251     0.00106002
H        -0.95173886     0.04134848     1.86973649    -0.00019164     0.00046957     0.00009960
H        -0.99137995     0.10636883    -0.48758393    -0.00118175     0.00089525    -0.00031359
     6
  Step:    14            Position(A)                                  Velocity(au)
C        -0.03730154     0.00248080    -0.02773478     0.00004829    -0.00010427    -0.00127563
N        -0.03756392    -0.06451289     1.33165500    -0.00009246    -0.00010079     0.00103848
H         0.93030314     0.09744177    -0.53614776     0.00051365     0.00086696    -0.00005405
H         0.77385431    -0.05566295     1.87296874     0.00147183     0.00042982     0.00116087
H        -0.95246403     0.04395543     1.87006844    -0.00007133     0.00045413     0.00002328
H        -0.99814478     0.11141675    -0.48950222    -0.00120477     0.00089220    -0.00036070
     6
  Step:    15            Position(A)                                  Velocity(au)
C        -0.03701501     0.00190117    -0.03489062     0.00005228    -0.00010112    -0.00125497
N        -0.03815182    -0.06508454     1.33748582    -0.00011321    -0.00010142     0.00102387
H         0.93311701     0.10227495    -0.53647640     0.00048344     0.00084465    -0.00006342
H         0.78271204    -0.05318972     1.87976258     0.00163738     0.00044528     0.00122876
H        -0.95254415     0.04647523     1.86999929     0.00003572     0.00043848    -0.00004196
H        -1.00498081     0.11644107    -0.49165590    -0.00120626     0.00088587    -0.00039725
     6
  Step:    16            Position(A)                                  Velocity(au)
C        -0.03671098     0.00133855    -0.04191119     0.00008305    -0.00014958    -0.00187051
N        -0.03884281    -0.06565859     1.34322095    -0.00019628    -0.00015485     0.00153058
H         0.93576423     0.10698312    -0.53686414     0.00069256     0.00125298    -0.00011400
H         0.79235061    -0.05063295     1.88684914     0.00266263     0.00069950     0.00192602
H        -0.95206051     0.04890866     1.86959441     0.00019400     0.00064542    -0.00014506
H        -1.01177105     0.12142381    -0.49398961    -0.00181124     0.00133636    -0.00064724
     6
  Step:    17            Position(A)                                  Velocity(au)
C        -0.03624795     0.00050116    -0.05202183     0.00007914    -0.00014536    -0.00168854
N        -0.03996904    -0.06650082     1.35153102    -0.00019678    -0.00014175     0.00139462
H         0.93981478     0.11394500    -0.53785791     0.00072958     0.00119876    -0.00023125
H         0.80746539    -0.04682948     1.89774289     0.00262011     0.00064019     0.00188437
H        -0.95079526     0.05243023     1.86870147     0.00024045     0.00059603    -0.00016092
H        -1.02206866     0.12881911    -0.49799726    -0.00179860     0.00126679    -0.00075150
     6
  Step:    18            Position(A)                                  Velocity(au)
C        -0.03581092    -0.00031465    -0.06111571     0.00007408    -0.00014194    -0.00151446
N        -0.04108090    -0.06727072     1.35908253    -0.00019171    -0.00012948     0.00126489
H         0.94406204     0.12061720    -0.53949427     0.00076085     0.00115122    -0.00033960
H         0.82215024    -0.04335176     1.90828095     0.00251773     0.00058481     0.00180552
H        -0.94932578     0.05568752     1.86776423     0.00026650     0.00055276    -0.00016149
H        -1.03222727     0.13583162    -0.50253677    -0.00176376     0.00120186    -0.00083537
     6
  Step:    19            Position(A)                                  Velocity(au)
C        -0.03540563    -0.00111276    -0.06924166     0.00003770    -0.00007695    -0.00074642
N        -0.04214885    -0.06797306     1.36591316    -0.00010060    -0.00006530     0.00063171
H         0.94846583     0.12703474    -0.54171924     0.00043376     0.00061370    -0.00024239
H         0.83609275    -0.04018005     1.91827218     0.00130863     0.00029461     0.00093855
H        -0.94776511     0.05871525     1.86686530     0.00015127     0.00028517    -0.00008210
H        -1.04212314     0.14248460    -0.50749561    -0.00094490     0.00063098    -0.00049811
     6
  Step:    20            Position(A)                                  Velocity(au)
C        -0.03520307    -0.00154232    -0.07339950     0.00003406    -0.00007588    -0.00073250
N        -0.04270747    -0.06834647     1.36944638    -0.00009688    -0.00006750     0.00062499
H         0.95080967     0.13046638    -0.54310136     0.00039950     0.00060739    -0.00024890
H         0.84324241    -0.03846240     1.92335569     0.00122376     0.00031566     0.00086439
H        -0.94684165     0.06032781     1.86638672     0.00017144     0.00028939    -0.00008447
H        -1.04719119     0.14603036    -0.51027203    -0.00085428     0.00062984    -0.00048757
     6
  Step:    21            Position(A)                                  Velocity(au)
C        -0.03502280    -0.00196562    -0.07747418     0.00003008    -0.00007532    -0.00072259
N        -0.04323772    -0.06873172     1.37293739    -0.00009140    -0.00007008     0.00062160
H         0.95295579     0.13386114    -0.54451659     0.00036646     0.00060531    -0.00025625
H         0.84984649    -0.03663238     1.92798699     0.00112555     0.00033731     0.00078519
H        -0.94583827     0.06196770     1.86591592     0.00018133     0.00029722    -0.00008015
H        -1.05172434     0.14956334    -0.51297541    -0.00076160     0.00063152    -0.00047632
     6
  Step:    22            Position(A)                                  Velocity(au)
C        -0.03486638    -0.00238542    -0.08148809     0.00002573    -0.00007498    -0.00071415
N        -0.04373062    -0.06913094     1.37640449    -0.00008410    -0.00007284     0.00061932
H         0.95491173     0.13724206    -0.54596981     0.00033326     0.00060521    -0.00026374
H         0.85584167    -0.03468659     1.93214493     0.00101297     0.00035875     0.00069977
H        -0.94481184     0.06365484     1.86548958     0.00018078     0.00030766    -0.00006913
H        -1.05571635     0.15309950    -0.51560389    -0.00066498     0.00063402    -0.00046336
     6
  Step:    23            Position(A)                                  Velocity(au)
C        -0.03473546    -0.00280300    -0.08544960     0.00002106    -0.00007471    -0.00070572
N        -0.04417688    -0.06954514     1.37985379    -0.00007507    -0.00007565     0.00061684
H         0.95667753     0.14061995    -0.54746197     0.00029930     0.00060575    -0.00027096
H         0.86115900    -0.03262603     1.93580187     0.00088711     0.00037947     0.00060857
H        -0.94381942     0.06540360     1.86514394     0.00016998     0.00032006    -0.00005166
H        -1.05915059     0.15664391    -0.51815005    -0.00056422     0.00063624    -0.00044837
     6
  Step:    24            Position(A)                                  Velocity(au)
C        -0.03463144    -0.00321874    -0.08935913     0.00001617    -0.00007443    -0.00069652
N        -0.04456788    -0.06997467     1.38328423    -0.00006455    -0.00007844     0.00061341
H         0.95824987     0.14399818    -0.54899186     0.00026440     0.00060614    -0.00027770
H         0.86573580    -0.03045429     1.93893246     0.00075039     0.00039924     0.00051290
H        -0.94291599     0.06722459     1.86491345     0.00014960     0.00033394    -0.00002822
H        -1.06200924     0.16019563    -0.52060467    -0.00046007     0.00063764    -0.00043146
     6
  Step:    25            Position(A)                                  Velocity(au)
C        -0.03455524    -0.00363256    -0.09321275     0.00001115    -0.00007408    -0.00068617
N        -0.04489633    -0.07041945     1.38669071    -0.00005284    -0.00008118     0.00060867
H         0.95962450     0.14737575    -0.55055713     0.00022866     0.00060589    -0.00028390
H         0.86952260    -0.02817623     1.94151849     0.00060589     0.00041799     0.00041452
H        -0.94215203     0.06912560     1.86482937     0.00012068     0.00034890     0.00000046
H        -1.06427840     0.16375088    -0.52295900    -0.00035375     0.00063805    -0.00041297
     6
  Step:    26            Position(A)                                  Velocity(au)
C        -0.03450723    -0.00404415    -0.09700450     0.00000611    -0.00007365    -0.00067454
N        -0.04515666    -0.07087918     1.39006612    -0.00004029    -0.00008384     0.00060245
H         0.96079760     0.15074907    -0.55215508     0.00019227     0.00060474    -0.00028957
H         0.87248669    -0.02579696     1.94355117     0.00045696     0.00043579     0.00031537
H        -0.94157131     0.07111204     1.86491857     0.00008464     0.00036457     0.00003351
H        -1.06595080     0.16730494    -0.52520605    -0.00024672     0.00063753    -0.00039335
     6
  Step:    27            Position(A)                                  Velocity(au)
C        -0.03448720    -0.00445309    -0.10072766     0.00000116    -0.00007314    -0.00066163
N        -0.04534524    -0.07135345     1.39340251    -0.00002728    -0.00008640     0.00059474
H         0.96176656     0.15411305    -0.55378316     0.00015553     0.00060255    -0.00029480
H         0.87461350    -0.02332115     1.94503201     0.00030700     0.00045280     0.00021737
H        -0.94120904     0.07318715     1.86520267     0.00004316     0.00038058     0.00006991
H        -1.06702707     0.17085345    -0.52734125    -0.00014049     0.00063625    -0.00037311
     6
  Step:    28            Position(A)                                  Velocity(au)
C        -0.03449429    -0.00485897    -0.10437549    -0.00000358    -0.00007256    -0.00064753
N        -0.04546053    -0.07184174     1.39669186    -0.00001417    -0.00008887     0.00058559
H         0.96253028     0.15746179    -0.55543931     0.00011874     0.00059922    -0.00029971
H         0.87590683    -0.02075249     1.94597285     0.00015930     0.00046925     0.00012237
H        -0.94109048     0.07535197     1.86569737    -0.00000189     0.00039657     0.00010856
H        -1.06751600     0.17439315    -0.52936272    -0.00003656     0.00063450    -0.00035276
     6
  Step:    29            Position(A)                                  Velocity(au)
C        -0.03452711    -0.00526145    -0.10794169    -0.00000803    -0.00007192    -0.00063235
N        -0.04550309    -0.07234351     1.39992647    -0.00000135    -0.00009124     0.00057511
H         0.96308937     0.16078886    -0.55712214     0.00008220     0.00059471    -0.00030443
H         0.87638824    -0.01809326     1.94639528     0.00001699     0.00048545     0.00003205
H        -0.94123010     0.07760523     1.86641213    -0.00004853     0.00041210     0.00014835
H        -1.06743435     0.17792238    -0.53127125     0.00006369     0.00063263    -0.00033277
     6
  Step:    30            Position(A)                                  Velocity(au)
C        -0.03458370    -0.00566026    -0.11142058    -0.00001207    -0.00007125    -0.00061620
N        -0.04547554    -0.07285824     1.40309922     0.00001083    -0.00009351     0.00056341
H         0.96344611     0.16408754    -0.55883103     0.00004623     0.00058897    -0.00030913
H         0.87609611    -0.01534398     1.94632992    -0.00011702     0.00050174    -0.00005204
H        -0.94163120     0.07994327     1.86735018    -0.00009478     0.00042676     0.00018818
H        -1.06680645     0.18144137    -0.53307017     0.00015894     0.00063099    -0.00031360
     6
  Step:    31            Position(A)                                  Velocity(au)
C        -0.03466158    -0.00605526    -0.11480707    -0.00001563    -0.00007056    -0.00059922
N        -0.04538247    -0.07338536     1.40620362     0.00002201    -0.00009569     0.00055061
H         0.96360441     0.16735081    -0.56056631     0.00001109     0.00058195    -0.00031399
H         0.87508448    -0.01250315     1.94581553    -0.00024004     0.00051852    -0.00012851
H        -0.94228610     0.08235989     1.86850868    -0.00013872     0.00044007     0.00022700
H        -1.06566356     0.18495253    -0.53476515     0.00024801     0.00063000    -0.00029563
     6
  Step:    32            Position(A)                                  Velocity(au)
C        -0.03475781    -0.00644642    -0.11809673    -0.00001862    -0.00006988    -0.00058150
N        -0.04523032    -0.07392435     1.40923379     0.00003189    -0.00009777     0.00053682
H         0.96356972     0.17057131    -0.56232930    -0.00002293     0.00057358    -0.00031919
H         0.87342176    -0.00956695     1.94489813    -0.00034962     0.00053622    -0.00019617
H        -0.94317677     0.08484623     1.86987927    -0.00017859     0.00045155     0.00026389
H        -1.06404321     0.18846051    -0.53636390     0.00032985     0.00063009    -0.00027921
     6
  Step:    33            Position(A)                                  Velocity(au)
C        -0.03486899    -0.00683385    -0.12128564    -0.00002096    -0.00006924    -0.00056312
N        -0.04502721    -0.07447469     1.41218443     0.00004018    -0.00009977     0.00052213
H         0.96334892     0.17374121    -0.56412245    -0.00005561     0.00056376    -0.00032495
H         0.87118926    -0.00652900     1.94362994    -0.00044361     0.00055534    -0.00025400
H        -0.94427583     0.08739070     1.87144869    -0.00021284     0.00046070     0.00029804
H        -1.06198863     0.19197247    -0.53787589     0.00040349     0.00063171    -0.00026463
     6
  Step:    34            Position(A)                                  Velocity(au)
C        -0.03499131    -0.00721779    -0.12437031    -0.00002258    -0.00006866    -0.00054416
N        -0.04478273    -0.07503589     1.41505072     0.00004663    -0.00010169     0.00050662
H         0.96295019     0.17685203    -0.56594949    -0.00008671     0.00055235    -0.00033153
H         0.86847963    -0.00338002     1.94206836    -0.00052013     0.00057644    -0.00030119
H        -0.94554796     0.08997879     1.87319969    -0.00024019     0.00046700     0.00032884
H        -1.05954804     0.19549825    -0.53931208     0.00046810     0.00063539    -0.00025213
     6
  Step:    35            Position(A)                                  Velocity(au)
C        -0.03512054    -0.00759867    -0.12734752    -0.00002341    -0.00006816    -0.00052463
N        -0.04450774    -0.07560748     1.41782818     0.00005105    -0.00010353     0.00049034
H         0.96238300     0.17989438    -0.56781566    -0.00011601     0.00053916    -0.00033923
H         0.86539500    -0.00010752     1.94027475    -0.00057770     0.00060012    -0.00033715
H        -0.94695150     0.09259301     1.87511198    -0.00025966     0.00046987     0.00035584
H        -1.05677407     0.19905066    -0.54068456     0.00052293     0.00064169    -0.00024188
     6
  Step:    36            Position(A)                                  Velocity(au)
C        -0.03525208    -0.00797704    -0.13021410    -0.00002338    -0.00006779    -0.00050451
N        -0.04421410    -0.07618904     1.42051255     0.00005328    -0.00010529     0.00047329
H         0.96165797     0.18285766    -0.56972808    -0.00014331     0.00052393    -0.00034844
H         0.86204474     0.00330458     1.93831293    -0.00061523     0.00062708    -0.00036159
H        -0.94844028     0.09521258     1.87716334    -0.00027062     0.00046869     0.00037880
H        -1.05372322     0.20264595    -0.54200633     0.00056733     0.00065130    -0.00023403
     6
  Step:    37            Position(A)                                  Velocity(au)
C        -0.03538091    -0.00835372    -0.13296645    -0.00002240    -0.00006760    -0.00048367
N        -0.04391435    -0.07678015     1.42309942     0.00005322    -0.00010699     0.00045542
H         0.96078693     0.18572955    -0.57169637    -0.00016837     0.00050628    -0.00035971
H         0.85854297     0.00687651     1.93624764    -0.00063211     0.00065813    -0.00037450
H        -0.94996549     0.09781302     1.87933086    -0.00027276     0.00046273     0.00039772
H        -1.05045546     0.20630446    -0.54329103     0.00060071     0.00066506    -0.00022868
     6
  Step:    38            Position(A)                                  Velocity(au)
C        -0.03550156    -0.00872977    -0.13560004    -0.00002040    -0.00006763    -0.00046186
N        -0.04362152    -0.07738039     1.42558385     0.00005080    -0.00010860     0.00043657
H         0.95978306     0.18849541    -0.57373362    -0.00019092     0.00048573    -0.00037381
H         0.85500587     0.01063327     1.93414271    -0.00062821     0.00069423    -0.00037621
H        -0.95147762     0.10036530     1.88159219    -0.00026612     0.00045103     0.00041283
H        -1.04703404     0.21005171    -0.54455277     0.00062242     0.00068404    -0.00022593
     6
  Step:    39            Position(A)                                  Velocity(au)
C        -0.03560799    -0.00910666    -0.13810850    -0.00001724    -0.00006799    -0.00043861
N        -0.04334883    -0.07798924     1.42795985     0.00004600    -0.00011011     0.00041645
H         0.95866140     0.19113736    -0.57585811    -0.00021050     0.00046160    -0.00039197
H         0.85154889     0.01460559     1.93205920    -0.00060390     0.00073653    -0.00036738
H        -0.95292832     0.10283448     1.88392701    -0.00025108     0.00043231     0.00042464
H        -1.04352592     0.21392011    -0.54580635     0.00063167     0.00070977    -0.00022598
     6
  Step:    40            Position(A)                                  Velocity(au)
C        -0.03569341    -0.00948649    -0.14048199    -0.00001276    -0.00006882    -0.00041299
N        -0.04310954    -0.07860593     1.43021920     0.00003882    -0.00011142     0.00039447
H         0.95744007     0.19363323    -0.57809646    -0.00022628     0.00043303    -0.00041623
H         0.84828413     0.01883117     1.93005353    -0.00055999     0.00078636    -0.00034901
H        -0.95427224     0.10517713     1.88631866    -0.00022834     0.00040468     0.00043401
H        -1.04000324     0.21795176    -0.54706803     0.00062716     0.00074438    -0.00022936
     6
  Step:    41            Position(A)                                  Velocity(au)
C        -0.03574997    -0.00987246    -0.14270389    -0.00000676    -0.00007044    -0.00038308
N        -0.04291685    -0.07922906     1.43234926     0.00002931    -0.00011237     0.00036935
H         0.95614351     0.19595572    -0.58048956    -0.00023639     0.00039932    -0.00045016
H         0.84531782     0.02335560     1.92817572    -0.00049770     0.00084497    -0.00032227
H        -0.95546910     0.10733746     1.88875634    -0.00019905     0.00036553     0.00044224
H        -1.03654735     0.22220301    -0.54835853     0.00060644     0.00079098    -0.00023766
     6
  Step:    42            Position(A)                                  Velocity(au)
C        -0.03576860    -0.01026998    -0.14474314     0.00000086    -0.00007341    -0.00034499
N        -0.04278357    -0.07985581     1.43432766     0.00001763    -0.00011254     0.00033843
H         0.95481068     0.19807505    -0.58310376    -0.00023651     0.00036165    -0.00049968
H         0.84274809     0.02823003     1.92646882    -0.00041874     0.00091167    -0.00028804
H        -0.95648639     0.10924300     1.89123783    -0.00016502     0.00031239     0.00045095
H        -1.03325756     0.22675010    -0.54971164     0.00056505     0.00085290    -0.00025521
     6
  Step:    43            Position(A)                                  Velocity(au)
C        -0.03574039    -0.01068870    -0.14653978     0.00000951    -0.00007858    -0.00029306
N        -0.04272086    -0.08048035     1.43611217     0.00000449    -0.00011133     0.00029779
H         0.95351382     0.19997689    -0.58604544    -0.00021915     0.00032725    -0.00057071
H         0.84066190     0.03349235     1.92497310    -0.00032594     0.00097913    -0.00024570
H        -0.95730392     0.11081083     1.89377040    -0.00012880     0.00024782     0.00046088
H        -1.03026458     0.23168631    -0.55119619     0.00049821     0.00092918    -0.00029062
     6
  Step:    44            Position(A)                                  Velocity(au)
C        -0.03566295    -0.01114325    -0.14800010     0.00001751    -0.00008626    -0.00022516
N        -0.04273367    -0.08109310     1.43763727    -0.00000870    -0.00010847     0.00024602
H         0.95237505     0.20171198    -0.58944655    -0.00017940     0.00030902    -0.00066090
H         0.83912569     0.03911187     1.92373812    -0.00022419     0.00103309    -0.00019368
H        -0.95791782     0.11199716     1.89635990    -0.00009258     0.00018389     0.00046993
H        -1.02772056     0.23707680    -0.55294155     0.00040844     0.00100915    -0.00035108
     6