     6
  Step:     0            Position(A)                                  Velocity(au)
C        -0.04063623     0.01986427     0.00181167    -0.00000821     0.00007624    -0.00007509
N        -0.04232754    -0.04814980     1.31394993    -0.00020902    -0.00002593     0.00000954
H         0.91868556    -0.05659546    -0.51592490     0.00030080    -0.00032733    -0.00034924
H         0.85568447    -0.15006478     1.85069532     0.00072280    -0.00001052     0.00082420
H        -0.93784314    -0.09757466     1.80435369     0.00162745     0.00007578    -0.00045206
H        -0.97704248     0.06685913    -0.52778176     0.00035145    -0.00028608     0.00073931
     6
  Step:     1            Position(A)                                  Velocity(au)
C        -0.04066810     0.02028459     0.00136170    -0.00000251     0.00007745    -0.00008908
N        -0.04345040    -0.04829266     1.31406637    -0.00019935    -0.00002633     0.00003249
H         0.92050573    -0.05841109    -0.51810826     0.00036045    -0.00033657    -0.00044667
H         0.85940645    -0.15010658     1.85518476     0.00062825    -0.00000339     0.00081026
H        -0.92902881    -0.09720643     1.80208443     0.00157438     0.00005770    -0.00036569
H        -0.97541525     0.06532505    -0.52407473     0.00023713    -0.00027479     0.00061212
     6
  Step:     2            Position(A)                                  Velocity(au)
C        -0.04066372     0.02071138     0.00083741     0.00000497     0.00007866    -0.00010237
N        -0.04450781    -0.04843777     1.31430525    -0.00018534    -0.00002675     0.00005423
H         0.92262782    -0.06027658    -0.52081014     0.00041085    -0.00034575    -0.00053885
H         0.86255567    -0.15010183     1.85955718     0.00051523     0.00000633     0.00078285
H        -0.92062416    -0.09694361     1.80035411     0.00147901     0.00003728    -0.00025531
H        -0.97444898     0.06385370    -0.52108703     0.00011137    -0.00026343     0.00047759
     6
  Step:     3            Position(A)                                  Velocity(au)
C        -0.04061379     0.02114461     0.00024252     0.00001405     0.00007990    -0.00011507
N        -0.04547677    -0.04858517     1.31465922    -0.00016737    -0.00002719     0.00007458
H         0.92499760    -0.06219115    -0.52399952     0.00045106    -0.00035487    -0.00062538
H         0.86503951    -0.15003740     1.86374366     0.00038683     0.00001828     0.00074400
H        -0.91285880    -0.09679884     1.79929309     0.00134318     0.00001459    -0.00012164
H        -0.97419760     0.06244494    -0.51885328    -0.00002264    -0.00025228     0.00033779
     6
  Step:     4            Position(A)                                  Velocity(au)
C        -0.04051019     0.02158442    -0.00041994     0.00002451     0.00008119    -0.00012733
N        -0.04633662    -0.04873483     1.31512019    -0.00014588    -0.00002762     0.00009348
H         0.92755652    -0.06415417    -0.52764363     0.00048044    -0.00036397    -0.00070610
H         0.86678247    -0.14990209     1.86768676     0.00024600     0.00003214     0.00069576
H        -0.90594736    -0.09678416     1.79902495     0.00117032    -0.00001023     0.00003373
H        -0.97469636     0.06109703    -0.51739609    -0.00016151    -0.00024162     0.00019482
     6
  Step:     5            Position(A)                                  Velocity(au)
C        -0.04034619     0.02203109    -0.00114777     0.00003608     0.00008257    -0.00013931
N        -0.04706963    -0.04888670     1.31567994    -0.00012145    -0.00002804     0.00011096
H         0.93024335    -0.06616526    -0.53170924     0.00049859    -0.00037311    -0.00078101
H         0.86772550    -0.14968649     1.87134042     0.00009556     0.00004760     0.00064009
H        -0.90008044    -0.09691058     1.79966135     0.00096539    -0.00003699     0.00020827
H        -0.97596105     0.05980679    -0.51672614    -0.00030173    -0.00023167     0.00005073
     6
  Step:     6            Position(A)                                  Velocity(au)
C        -0.04011659     0.02248510    -0.00193968     0.00004848     0.00008405    -0.00015117
N        -0.04766149    -0.04904073     1.31633067    -0.00009471    -0.00002846     0.00012714
H         0.93299550    -0.06822438    -0.53616351     0.00050528    -0.00038231    -0.00085018
H         0.86782496    -0.14938284     1.87466938    -0.00006183     0.00006437     0.00057884
H        -0.89541613    -0.09718772     1.80129691     0.00073479    -0.00006540     0.00039851
H        -0.97798790     0.05856979    -0.51684271    -0.00043981    -0.00022262    -0.00009252
     6
  Step:     7            Position(A)                                  Velocity(au)
C        -0.03981782     0.02294702    -0.00279522     0.00006142     0.00008564    -0.00016304
N        -0.04810176    -0.04919690     1.31706545    -0.00006639    -0.00002889     0.00014218
H         0.93574988    -0.07033166    -0.54097441     0.00050040    -0.00039156    -0.00091367
H         0.86705166    -0.14898496     1.87764856    -0.00022362     0.00008218     0.00051373
H        -0.89207281    -0.09762331     1.80400426     0.00048614    -0.00009508     0.00060005
H        -0.98075400     0.05738068    -0.51773445    -0.00057227    -0.00021459    -0.00023307
     6
  Step:     8            Position(A)                                  Velocity(au)
C        -0.03944790     0.02341748    -0.00371466     0.00007459     0.00008734    -0.00017501
N        -0.04838422    -0.04935525     1.31787852    -0.00003726    -0.00002933     0.00015629
H         0.93844330    -0.07248723    -0.54611050     0.00048385    -0.00040078    -0.00097142
H         0.86539044    -0.14848813     1.88026234    -0.00038716     0.00010074     0.00044642
H        -0.89012355    -0.09822288     1.80782960     0.00022809    -0.00012558     0.00080762
H        -0.98421810     0.05623356    -0.51938011    -0.00069574    -0.00020763    -0.00036911
     6
  Step:     9            Position(A)                                  Velocity(au)
C        -0.03900651     0.02389703    -0.00469872     0.00008768     0.00008912    -0.00018710
N        -0.04850707    -0.04951588     1.31876538    -0.00000819    -0.00002978     0.00016967
H         0.94101268    -0.07469091    -0.55154034     0.00045562    -0.00040984    -0.00102320
H         0.86284058    -0.14788919     1.88250423    -0.00054958     0.00011974     0.00037856
H        -0.88959197    -0.09898923     1.81278863    -0.00003005    -0.00015633     0.00101517
H        -0.98832139     0.05512232    -0.52174914    -0.00080693    -0.00020172    -0.00049884
     6
  Step:    10            Position(A)                                  Velocity(au)
C        -0.03849494     0.02438609    -0.00574819     0.00010036     0.00009092    -0.00019926
N        -0.04847322    -0.04967889     1.31972263     0.00001995    -0.00003024     0.00018246
H         0.94339535    -0.07694174    -0.55723149     0.00041575    -0.00041851    -0.00106856
H         0.85941715    -0.14718668     1.88437687    -0.00070759     0.00013881     0.00031188
H        -0.89045017    -0.09992206     1.81886330    -0.00027861    -0.00018670     0.00121602
H        -0.99298848     0.05404108    -0.52480193    -0.00090271    -0.00019677    -0.00062046
     6
  Step:    11            Position(A)                                  Velocity(au)
C        -0.03791617     0.02488478    -0.00686351     0.00011231     0.00009267    -0.00021136
N        -0.04829029    -0.04984441     1.32074765     0.00004626    -0.00003071     0.00019473
H         0.94552939    -0.07923762    -0.56314932     0.00036443    -0.00042649    -0.00110687
H         0.85515325    -0.14638112     1.88589252    -0.00085740     0.00015753     0.00024827
H        -0.89261876    -0.10101755     1.82599958    -0.00050804    -0.00021595     0.00140319
H        -0.99812846     0.05298454    -0.52848988    -0.00098012    -0.00019264    -0.00073211
     6
  Step:    12            Position(A)                                  Velocity(au)
C        -0.03727482     0.02539282    -0.00804425     0.00012321     0.00009429    -0.00022316
N        -0.04797069    -0.05001248     1.32183808     0.00006983    -0.00003116     0.00020645
H         0.94735432    -0.08157486    -0.56925587     0.00030208    -0.00043343    -0.00113730
H         0.85010287    -0.14547534     1.88707391    -0.00099467     0.00017541     0.00018981
H        -0.89596920    -0.10226806     1.83410674    -0.00070944    -0.00024333     0.00156971
H        -1.00363600     0.05194831    -0.53275513    -0.00103655    -0.00018913    -0.00083189
     6
  Step:    13            Position(A)                                  Velocity(au)
C        -0.03657717     0.02590944    -0.00928870     0.00013274     0.00009567    -0.00023437
N        -0.04753136    -0.05018306     1.32299121     0.00008985    -0.00003158     0.00021746
H         0.94881222    -0.08394790    -0.57550901     0.00022938    -0.00043895    -0.00115902
H         0.84434364    -0.14447480     1.88795532    -0.00111469     0.00019192     0.00013879
H        -0.90032869    -0.10366200     1.84305845    -0.00087516    -0.00026809     0.00170915
H        -1.00939325     0.05092911    -0.53753052    -0.00106989    -0.00018602    -0.00091802
     6
  Step:    14            Position(A)                                  Velocity(au)
C        -0.03583103     0.02643333    -0.01059345     0.00014064     0.00009671    -0.00024466
N        -0.04699341    -0.05035595     1.32420332     0.00010559    -0.00003192     0.00022754
H         0.94984923    -0.08634918    -0.58186207     0.00014740    -0.00044272    -0.00117125
H         0.83797887    -0.14338785     1.88858343    -0.00121260     0.00020651     0.00009756
H        -0.90548793    -0.10518392     1.85269645    -0.00099929    -0.00028951     0.00181611
H        -1.01527281     0.04992502    -0.54274012    -0.00107878    -0.00018307    -0.00098894
     6
  Step:    15            Position(A)                                  Velocity(au)
C        -0.03504550     0.02696266    -0.01195317     0.00014670     0.00009734    -0.00025367
N        -0.04638140    -0.05053073     1.32546916     0.00011651    -0.00003217     0.00023636
H         0.95041743    -0.08876924    -0.58826432     0.00005753    -0.00044443    -0.00117344
H         0.83113800    -0.14222578     1.88901779    -0.00128378     0.00021866     0.00006848
H        -0.91121132    -0.10681491     1.86283658    -0.00107814    -0.00030705     0.00188668
H        -1.02114161     0.04893544    -0.54830042    -0.00106271    -0.00018004    -0.00104342
     6
  Step:    16            Position(A)                                  Velocity(au)
C        -0.03423078     0.02749509    -0.01336058     0.00015077     0.00009747    -0.00026108
N        -0.04572251    -0.05070682     1.32678155     0.00012224    -0.00003227     0.00024358
H         0.95047684    -0.09119714    -0.59466220    -0.00003845    -0.00044392    -0.00116539
H         0.82397512    -0.14100264     1.88933042    -0.00132427     0.00022792     0.00005365
H        -0.91724853    -0.10853333     1.87327681    -0.00111041    -0.00032031     0.00191873
H        -1.02686513     0.04796109    -0.55412205    -0.00102211    -0.00017674    -0.00108077
     6
  Step:    17            Position(A)                                  Velocity(au)
C        -0.03339770     0.02802795    -0.01480658     0.00015279     0.00009708    -0.00026661
N        -0.04504539    -0.05088341     1.32813127     0.00012268    -0.00003221     0.00024886
H         0.94999724    -0.09362100    -0.60100120    -0.00013854    -0.00044114    -0.00114732
H         0.81666467    -0.13973473     1.88960419    -0.00133126     0.00023400     0.00005473
H        -0.92334734    -0.11031569     1.88380698    -0.00109723    -0.00032911     0.00191210
H        -1.03231259     0.04700378    -0.56011250    -0.00095843    -0.00017301    -0.00110088
     6
  Step:    18            Position(A)                                  Velocity(au)
C        -0.03255732     0.02855834    -0.01628058     0.00015280     0.00009615    -0.00027007
N        -0.04437888    -0.05105955     1.32950721     0.00011794    -0.00003196     0.00025195
H         0.94895951    -0.09602870    -0.60722811    -0.00024061    -0.00043618    -0.00111987
H         0.80939470    -0.13843983     1.88992982    -0.00130336     0.00023674     0.00007268
H        -0.92926579    -0.11213785     1.89421884    -0.00104179    -0.00033348     0.00186842
H        -1.03736219     0.04606625    -0.56617935    -0.00087394    -0.00016872    -0.00110427
     6
  Step:    19            Position(A)                                  Velocity(au)
C        -0.03172048     0.02908330    -0.01777093     0.00015090     0.00009470    -0.00027134
N        -0.04375084    -0.05123417     1.33089676     0.00010836    -0.00003151     0.00025265
H         0.94735624    -0.09840869    -0.61329331    -0.00034251    -0.00042924    -0.00108407
H         0.80235856    -0.13713621     1.89040197    -0.00124088     0.00023622     0.00010767
H        -0.93478236    -0.11397605     1.90431536    -0.00094889    -0.00033365     0.00179085
H        -1.04190530     0.04515187    -0.57223337    -0.00077159    -0.00016382    -0.00109201
     6
  Step:    20            Position(A)                                  Velocity(au)
C        -0.03089740     0.02960002    -0.01926539     0.00014726     0.00009277    -0.00027043
N        -0.04318695    -0.05140620     1.33228638     0.00009445    -0.00003089     0.00025090
H         0.94519186    -0.10075038    -0.61915297    -0.00044225    -0.00042064    -0.00104123
H         0.79574492    -0.13584143     1.89111419    -0.00114579     0.00023268     0.00015895
H        -0.93970370    -0.11580805     1.91391827    -0.00082449    -0.00033003     0.00168371
H        -1.04584970     0.04426420    -0.57819149    -0.00065469    -0.00015829    -0.00106560
     6
  Step:    21            Position(A)                                  Velocity(au)
C        -0.03009735     0.03010590    -0.02075173     0.00014208     0.00009044    -0.00026738
N        -0.04270973    -0.05157461     1.33366232     0.00007689    -0.00003009     0.00024675
H         0.94248154    -0.10304525    -0.62477033    -0.00053805    -0.00041081    -0.00099283
H         0.78972906    -0.13457152     1.89215401    -0.00102159     0.00022653     0.00022487
H        -0.94387035    -0.11761387     1.92287414    -0.00067505    -0.00032313     0.00155201
H        -1.04912170     0.04340706    -0.58397907    -0.00052677    -0.00015213    -0.00102690
     6
  Step:    22            Position(A)                                  Velocity(au)
C        -0.02932841     0.03059871    -0.02221808     0.00013560     0.00008776    -0.00026232
N        -0.04233785    -0.05173846     1.33501129     0.00005643    -0.00002915     0.00024037
H         0.93925011    -0.10528697    -0.63011689    -0.00062841    -0.00040017    -0.00094043
H         0.78446341    -0.13333983     1.89359742    -0.00087320     0.00021835     0.00030288
H        -0.94715837    -0.11937639     1.93105727    -0.00050707    -0.00031352     0.00140099
H        -1.05166692     0.04258419    -0.58953168    -0.00039128    -0.00014537    -0.00097789
     6
  Step:    23            Position(A)                                  Velocity(au)
C        -0.02859741     0.03107662    -0.02365329     0.00012806     0.00008482    -0.00025540
N        -0.04208559    -0.05189701     1.33632110     0.00003387    -0.00002810     0.00023201
H         0.93553062    -0.10747159    -0.63517263    -0.00071207    -0.00038917    -0.00088556
H         0.78007040    -0.13215632     1.89550427    -0.00070654     0.00020880     0.00038975
H        -0.94947914    -0.12108176     1.93837072    -0.00032670    -0.00030181     0.00123577
H        -1.05344968     0.04179913    -0.59479575    -0.00025140    -0.00013804    -0.00092059
     6
  Step:    24            Position(A)                                  Velocity(au)
C        -0.02790989     0.03153823    -0.02504709     0.00011968     0.00008170    -0.00024681
N        -0.04196264    -0.05204973     1.33758113     0.00001005    -0.00002699     0.00022198
H         0.93136282    -0.10959759    -0.63992592    -0.00078805    -0.00037821    -0.00082964
H         0.77663733    -0.13102704     1.89791454    -0.00052815     0.00019860     0.00048169
H        -0.95077711    -0.12271939     1.94474536    -0.00013955    -0.00028858     0.00106112
H        -1.05445157     0.04105513    -0.59972862    -0.00011002    -0.00013021    -0.00085688
     6
  Step:    25            Position(A)                                  Velocity(au)
C        -0.02727022     0.03198257    -0.02639020     0.00011066     0.00007845    -0.00023669
N        -0.04197413    -0.05219634     1.33878267    -0.00001425    -0.00002586     0.00021063
H         0.92679173    -0.11166573    -0.64437279    -0.00085555    -0.00036769    -0.00077391
H         0.77421361    -0.12995393     1.90084591    -0.00034479     0.00018848     0.00057461
H        -0.95102663    -0.12428195     1.95013783     0.00004941    -0.00027439     0.00088135
H        -1.05466969     0.04035518    -0.60429797     0.00003034    -0.00012190    -0.00078853
     6
  Step:    26            Position(A)                                  Velocity(au)
C        -0.02668163     0.03240902    -0.02767430     0.00010117     0.00007515    -0.00022522
N        -0.04212078    -0.05233675     1.33991900    -0.00003826    -0.00002474     0.00019830
H         0.92186656    -0.11367881    -0.64851607    -0.00091393    -0.00035791    -0.00071944
H         0.77281029    -0.12893495     1.90429255    -0.00016312     0.00017911     0.00066434
H        -0.95022868    -0.12576506     1.95452799     0.00023577    -0.00025974     0.00070025
H        -1.05411477     0.03970207    -0.60848099     0.00016749    -0.00011315    -0.00071708
     6
  Step:    27            Position(A)                                  Velocity(au)
C        -0.02614643     0.03281728    -0.02889190     0.00009137     0.00007182    -0.00021251
N        -0.04239916    -0.05247112     1.34098536    -0.00006130    -0.00002366     0.00018531
H         0.91663984    -0.11564138    -0.65236429    -0.00096265    -0.00034914    -0.00066708
H         0.77240171    -0.12796435     1.90822539     0.00001068     0.00017109     0.00074685
H        -0.94840769    -0.12716711     1.95791619     0.00041564    -0.00024507     0.00052119
H        -1.05280925     0.03909837    -0.61226328     0.00029952    -0.00010396    -0.00064389
     6
  Step:    28            Position(A)                                  Velocity(au)
C        -0.02566611     0.03320732    -0.03003629     0.00008138     0.00006852    -0.00019868
N        -0.04280213    -0.05259972     1.34197874    -0.00008274    -0.00002265     0.00017195
H         0.91116679    -0.11755942    -0.65593060    -0.00100128    -0.00034159    -0.00061755
H         0.77292895    -0.12703329     1.91259363     0.00017111     0.00016491     0.00081847
H        -0.94560896    -0.12848896     1.96032095     0.00058548    -0.00023079     0.00034718
H        -1.05078570     0.03854659    -0.61563774     0.00042476    -0.00009434    -0.00057014
     6
  Step:    29            Position(A)                                  Velocity(au)
C        -0.02524145     0.03357928    -0.03110136     0.00007132     0.00006527    -0.00018383
N        -0.04331926    -0.05272295     1.34289759    -0.00010203    -0.00002171     0.00015844
H         0.90550487    -0.11944006    -0.65923188    -0.00102943    -0.00033542    -0.00057139
H         0.77430459    -0.12613043     1.91732739     0.00031363     0.00016094     0.00087611
H        -0.94189668    -0.12973370     1.96177704     0.00074208    -0.00021729     0.00018094
H        -1.04808556     0.03804919    -0.61860364     0.00054176    -0.00008430    -0.00049687
     6
  Step:    30            Position(A)                                  Velocity(au)
C        -0.02487264     0.03393350    -0.03208155     0.00006128     0.00006209    -0.00016804
N        -0.04393728    -0.05284125     1.34374151    -0.00011872    -0.00002085     0.00014493
H         0.89971328    -0.12129131    -0.66228787    -0.00104685    -0.00033077    -0.00052903
H         0.77641837    -0.12524267     1.92234127     0.00043473     0.00015942     0.00091737
H        -0.93735249    -0.13090652     1.96233413     0.00088245    -0.00020492     0.00002504
H        -1.04475808     0.03760862    -0.62116589     0.00064919    -0.00007383    -0.00042502
     6
  Step:    31            Position(A)                                  Velocity(au)
C        -0.02455932     0.03427041    -0.03297180     0.00005137     0.00005901    -0.00015141
N        -0.04464068    -0.05295505     1.34451081    -0.00013245    -0.00002007     0.00013154
H         0.89385237    -0.12312187    -0.66512054    -0.00105344    -0.00032776    -0.00049083
H         0.77914359    -0.12435589     1.92753866     0.00053209     0.00016049     0.00094069
H        -0.93207419    -0.13201463     1.96205574     0.00100382    -0.00019403    -0.00011817
H        -1.04085943     0.03722734    -0.62333450     0.00074594    -0.00006293    -0.00035547
     6
  Step:    32            Position(A)                                  Velocity(au)
C        -0.02430059     0.03459058    -0.03376755     0.00004168     0.00005604    -0.00013403
N        -0.04541214    -0.05306474     1.34520629    -0.00014296    -0.00001935     0.00011832
H         0.88798267    -0.12494107    -0.66775348    -0.00104932    -0.00032649    -0.00045701
H         0.78234345    -0.12345558     1.93281637     0.00060451     0.00016414     0.00094536
H        -0.92617445    -0.13306718     1.96101823     0.00110374    -0.00018499    -0.00024650
H        -1.03645171     0.03690782    -0.62512418     0.00083107    -0.00005160    -0.00028902
     6
  Step:    33            Position(A)                                  Velocity(au)
C        -0.02409503     0.03489470    -0.03446478     0.00003230     0.00005322    -0.00011601
N        -0.04623318    -0.05317059     1.34582885    -0.00015011    -0.00001867     0.00010528
H         0.88216361    -0.12675871    -0.67021136    -0.00103486    -0.00032705    -0.00042773
H         0.78587748    -0.12252742     1.93806942     0.00065195     0.00017036     0.00093153
H        -0.91977919    -0.13407532     1.95930983     0.00118010    -0.00017818    -0.00035801
H        -1.03160180     0.03665251    -0.62655401     0.00090394    -0.00003984    -0.00022643
     6
  Step:    34            Position(A)                                  Velocity(au)
C        -0.02394073     0.03518355    -0.03506014     0.00002331     0.00005056    -0.00009746
N        -0.04708466    -0.05327277     1.34637934    -0.00015384    -0.00001801     0.00009238
H         0.87645212    -0.12858506    -0.67251934    -0.00101071    -0.00032955    -0.00040306
H         0.78960754    -0.12155740     1.94319554     0.00067534     0.00017901     0.00090009
H        -0.91302560    -0.13505245     1.95702927     0.00123126    -0.00017395    -0.00045106
H        -1.02637991     0.03646386    -0.62764710     0.00096416    -0.00002766    -0.00016836
     6
  Step:    35            Position(A)                                  Velocity(au)
C        -0.02383529     0.03545804    -0.03555083     0.00001480     0.00004808    -0.00007849
N        -0.04794740    -0.05337128     1.34685827    -0.00015420    -0.00001734     0.00007956
H         0.87090121    -0.13043097    -0.67470271    -0.00097771    -0.00033413    -0.00038297
H         0.79340290    -0.12053266     1.94809925     0.00067644     0.00018993     0.00085259
H        -0.90605912    -0.13601364     1.95428360     0.00125613    -0.00017263    -0.00052447
H        -1.02085807     0.03634434    -0.62843009     0.00101163    -0.00001502    -0.00011538
     6
  Step:    36            Position(A)                                  Velocity(au)
C        -0.02377587     0.03571920    -0.03593467     0.00000683     0.00004580    -0.00005918
N        -0.04880267    -0.05346602     1.34726574    -0.00015131    -0.00001665     0.00006672
H         0.86555871    -0.13230784    -0.67678632    -0.00093693    -0.00034089    -0.00036735
H         0.79714426    -0.11944128     1.95269482     0.00065754     0.00020295     0.00079091
H        -0.89903016    -0.13697581     1.95118576     0.00125416    -0.00017454    -0.00057747
H        -1.01510860     0.03629646    -0.62893268     0.00104649    -0.00000193    -0.00006797
     6
  Step:    37            Position(A)                                  Velocity(au)
C        -0.02375922     0.03596817    -0.03620999    -0.00000053     0.00004375    -0.00003961
N        -0.04963258    -0.05355672     1.34760133    -0.00014535    -0.00001590     0.00005376
H         0.86046625    -0.13422766    -0.67879408    -0.00088948    -0.00034997    -0.00035599
H         0.80072623    -0.11827234     1.95690800     0.00062125     0.00021793     0.00071717
H        -0.89209099    -0.13795759     1.94785202     0.00122533    -0.00018000    -0.00060978
H        -1.00920279     0.03632283    -0.62918709     0.00106909     0.00001167    -0.00002648
     6
  Step:    38            Position(A)                                  Velocity(au)
C        -0.02378175     0.03620617    -0.03637554    -0.00000723     0.00004194    -0.00001982
N        -0.05042042    -0.05364302     1.34786410    -0.00013655    -0.00001508     0.00004059
H         0.85565882    -0.13620300    -0.68074847    -0.00083654    -0.00036149    -0.00034859
H         0.80405875    -0.11701569     1.96067685     0.00057028     0.00023478     0.00063346
H        -0.88539227    -0.13897916     1.94439893     0.00117017    -0.00018925    -0.00062160
H        -1.00320971     0.03642631    -0.62922735     0.00107988     0.00002583     0.00000885
     6
  Step:    39            Position(A)                                  Velocity(au)
C        -0.02383963     0.03643447    -0.03643032    -0.00001325     0.00004036     0.00000018
N        -0.05115091    -0.05372443     1.34805261    -0.00012516    -0.00001417     0.00002709
H         0.85116468    -0.13824704    -0.68267004    -0.00077921    -0.00037554    -0.00034475
H         0.80706720    -0.11566183     1.96395151     0.00050725     0.00025340     0.00054177
H        -0.87907976    -0.14006189     1.94094038     0.00108965    -0.00020252    -0.00061359
H        -0.99719549     0.03661009    -0.62908866     0.00107939     0.00004066     0.00003787
     6
  Step:    40            Position(A)                                  Velocity(au)
C        -0.02392884     0.03665439    -0.03637350    -0.00001854     0.00003903     0.00002039
N        -0.05181030    -0.05380041     1.34816498    -0.00011143    -0.00001316     0.00001321
H         0.84700564    -0.14037344    -0.68457696    -0.00071850    -0.00039223    -0.00034400
H         0.80969177    -0.11420168     1.96669331     0.00043458     0.00027375     0.00044387
H        -0.87329154    -0.14122814     1.93758492     0.00098521    -0.00021995    -0.00058685
H        -0.99122295     0.03687784    -0.62880677     0.00106811     0.00005625     0.00006053
     6
  Step:    41            Position(A)                                  Velocity(au)
C        -0.02404523     0.03686724    -0.03620427    -0.00002310     0.00003793     0.00004081
N        -0.05238647    -0.05387037     1.34819906    -0.00009564    -0.00001204    -0.00000112
H         0.84319761    -0.14259630    -0.68648453    -0.00065534    -0.00041162    -0.00034580
H         0.81188599    -0.11262639     1.96887337     0.00035443     0.00029580     0.00034127
H        -0.86815526    -0.14250076     1.93443314     0.00085876    -0.00024161    -0.00054291
H        -0.98535173     0.03723386    -0.62841753     0.00104646     0.00007275     0.00007679
     6
  Step:    42            Position(A)                                  Velocity(au)
C        -0.02418453     0.03707427    -0.03592178    -0.00002689     0.00003706     0.00006146
N        -0.05286902    -0.05393368     1.34815255    -0.00007809    -0.00001081    -0.00001591
H         0.83975120    -0.14492998    -0.68840485    -0.00059052    -0.00043373    -0.00034950
H         0.81361519    -0.11092722     1.97047113     0.00026870     0.00031955     0.00023528
H        -0.86378526    -0.14390275     1.93157502     0.00071273    -0.00026750    -0.00048377
H        -0.97963882     0.03768315    -0.62795669     0.00101475     0.00009028     0.00008670
     6
  Step:    43            Position(A)                                  Velocity(au)
C        -0.02434240     0.03727670    -0.03552514    -0.00002991     0.00003639     0.00008235
N        -0.05324935    -0.05398977     1.34802328    -0.00005909    -0.00000947    -0.00003111
H         0.83667244    -0.14738897    -0.69034647    -0.00052479    -0.00045857    -0.00035445
H         0.81485510    -0.10909538     1.97147312     0.00017912     0.00034501     0.00012702
H        -0.86027978    -0.14545663     1.92908755     0.00055009    -0.00029750    -0.00041187
H        -0.97413890     0.03823149    -0.62745953     0.00097326     0.00010901     0.00009031
     6
  Step:    44            Position(A)                                  Velocity(au)
C        -0.02451445     0.03747563    -0.03501347    -0.00003215     0.00003591     0.00010347
N        -0.05352078    -0.05403811     1.34780940    -0.00003900    -0.00000804    -0.00004666
H         0.83396319    -0.14998767    -0.69231413    -0.00045879    -0.00048609    -0.00035990
H         0.81559070    -0.10712206     1.97187204     0.00008723     0.00037215     0.00001754
H        -0.85771822    -0.14718399     1.92703245     0.00037437    -0.00033138    -0.00033005
H        -0.96890454     0.03888549    -0.62696062     0.00092223     0.00012908     0.00008776
     6