     6
  Step:     0            Position(A)                                  Velocity(au)
C        -0.03159628     0.01662124     0.03586567    -0.00008505     0.00010315    -0.00006498
N        -0.04306759    -0.03794283     1.28139713     0.00023112    -0.00003627     0.00007808
H         0.89837970    -0.04457282    -0.55977932     0.00115396    -0.00034510    -0.00060455
H         0.75642746    -0.19416729     1.86617183    -0.00149997     0.00017990    -0.00086308
H        -0.89453823    -0.16562996     1.83871826    -0.00163916    -0.00008616     0.00093478
H        -0.99822137     0.06379843    -0.48719187    -0.00021305    -0.00047378     0.00022221
     6
  Step:     1            Position(A)                                  Velocity(au)
C        -0.03250620     0.01777982     0.03420461    -0.00007999     0.00010859    -0.00023638
N        -0.04060587    -0.03832766     1.28310499     0.00020789    -0.00003373     0.00022944
H         0.91126042    -0.04841004    -0.56705305     0.00116401    -0.00035417    -0.00070025
H         0.74163274    -0.19253375     1.85771010    -0.00111844     0.00010081    -0.00061573
H        -0.91306911    -0.16683185     1.84916328    -0.00166848    -0.00012037     0.00091989
H        -1.00114234     0.05874583    -0.48584022    -0.00031284    -0.00045161     0.00002446
     6
  Step:     2            Position(A)                                  Velocity(au)
C        -0.03334616     0.01899687     0.03069451    -0.00007268     0.00011361    -0.00039892
N        -0.03851956    -0.03868065     1.28641656     0.00016475    -0.00003030     0.00036790
H         0.92384470    -0.05232088    -0.57509855     0.00110431    -0.00035845    -0.00074875
H         0.73195939    -0.19196180     1.85270155    -0.00058322    -0.00001090    -0.00024583
H        -0.93103950    -0.16826323     1.85884257    -0.00155116    -0.00013092     0.00080706
H        -1.00506541     0.05391868    -0.48665679    -0.00039330    -0.00043252    -0.00017135
     6
  Step:     3            Position(A)                                  Velocity(au)
C        -0.03409619     0.02026526     0.02547740    -0.00006383     0.00011777    -0.00054517
N        -0.03700157    -0.03899047     1.29115361     0.00010751    -0.00002596     0.00048837
H         0.93541922    -0.05625175    -0.58343329     0.00098467    -0.00035783    -0.00075684
H         0.72887361    -0.19277231     1.85233209     0.00004939    -0.00014507     0.00020462
H        -0.94700376    -0.16969599     1.86681917    -0.00131787    -0.00012350     0.00062180
H        -1.00974645     0.04928373    -0.48958872    -0.00044954    -0.00041631    -0.00035981
     6
  Step:     4            Position(A)                                  Velocity(au)
C        -0.03474261     0.02157336     0.01876792    -0.00005390     0.00012071    -0.00066953
N        -0.03616754    -0.03924847     1.29710058     0.00004388    -0.00002116     0.00058898
H         0.94538625    -0.06014917    -0.59165589     0.00081569    -0.00035244    -0.00073202
H         0.73303999    -0.19513545     1.85717798     0.00069626    -0.00028559     0.00067217
H        -0.95987033    -0.17096496     1.87244567    -0.00100050    -0.00010367     0.00038980
H        -1.01489993     0.04481101    -0.49452838    -0.00047882    -0.00040261    -0.00053638
     6
  Step:     5            Position(A)                                  Velocity(au)
C        -0.03527543     0.02290603     0.01083014    -0.00004317     0.00012216    -0.00076853
N        -0.03604168    -0.03945346     1.30403865    -0.00001804    -0.00001665     0.00067028
H         0.95326406    -0.06396210    -0.59944764     0.00060797    -0.00034260    -0.00068180
H         0.74410563    -0.19902022     1.86703718     0.00126698    -0.00041426     0.00108809
H        -0.96889152    -0.17196392     1.87534669    -0.00062948    -0.00007661     0.00013462
H        -1.02022158     0.04047580    -0.50132296    -0.00048034    -0.00039087    -0.00069735
     6
  Step:     6            Position(A)                                  Velocity(au)
C        -0.03568701     0.02424586     0.00195479    -0.00003184     0.00012197    -0.00084068
N        -0.03656218    -0.03961270     1.31176415    -0.00007136    -0.00001305     0.00073372
H         0.95868675    -0.06764427    -0.60657156     0.00037199    -0.00032885    -0.00061347
H         0.76075762    -0.20419812     1.88098211     0.00168780    -0.00051557     0.00139729
H        -0.97364140    -0.17264097     1.87539068    -0.00023381    -0.00004721    -0.00012239
H        -1.02540821     0.03626002    -0.50978420    -0.00045490    -0.00038044    -0.00083990
     6
  Step:     7            Position(A)                                  Velocity(au)
C        -0.03597190     0.02557443    -0.00756124    -0.00002014     0.00012011    -0.00088610
N        -0.03760285    -0.03973903     1.32009025    -0.00011145    -0.00001066     0.00078048
H         0.96140200    -0.07115638    -0.61286839     0.00011824    -0.00031192    -0.00053401
H         0.78102959    -0.21029931     1.89760558     0.00191763    -0.00058026     0.00157036
H        -0.97400646    -0.17299662     1.87266908     0.00015757    -0.00002029    -0.00036130
H        -1.03017344     0.03215302    -0.51969732    -0.00040459    -0.00037061    -0.00096198
     6
  Step:     8            Position(A)                                  Velocity(au)
C        -0.03612757     0.02687346    -0.01743032    -0.00001049     0.00012089    -0.00100329
N        -0.03900046    -0.03984594     1.32883863    -0.00013594    -0.00001054     0.00088855
H         0.96127350    -0.07446809    -0.61825415    -0.00020334    -0.00041676    -0.00037613
H         0.80270938    -0.21689244     1.91533670     0.00193456    -0.00048247     0.00159138
H        -0.97019435    -0.17308483     1.86748653     0.00054950    -0.00015660    -0.00061281
H        -1.03425948     0.02815217    -0.53082935    -0.00026654    -0.00023818    -0.00099475
     6
  Step:     9            Position(A)                                  Velocity(au)
C        -0.03620139     0.02821906    -0.02951003    -0.00000164     0.00012507    -0.00120744
N        -0.04057686    -0.03996968     1.33952895    -0.00014570    -0.00001351     0.00107069
H         0.95695345    -0.08027379    -0.62109703    -0.00057839    -0.00056352    -0.00014442
H         0.82335188    -0.22085426     1.93242010     0.00175124    -0.00031060     0.00144702
H        -0.96198520    -0.17642263     1.85926275     0.00091881    -0.00036189    -0.00085744
H        -1.03600453     0.02694240    -0.54145940    -0.00004739    -0.00006666    -0.00093598
     6
  Step:    10            Position(A)                                  Velocity(au)
C        -0.03616347     0.02960962    -0.04384528     0.00000767     0.00012816    -0.00139475
N        -0.04218787    -0.04014144     1.35226211    -0.00014010    -0.00001722     0.00124146
H         0.94862005    -0.08679622    -0.62141359    -0.00091966    -0.00061512     0.00006920
H         0.84102118    -0.22368745     1.94699309     0.00142181    -0.00021091     0.00118225
H        -0.95009354    -0.18100182     1.84872850     0.00118334    -0.00047047    -0.00101831
H        -1.03529624     0.02669386    -0.55130570     0.00017005     0.00000867    -0.00086491
     6
  Step:    11            Position(A)                                  Velocity(au)
C        -0.03603370     0.03102276    -0.06002289     0.00001441     0.00012935    -0.00154298
N        -0.04364172    -0.04034645     1.36668828    -0.00011652    -0.00001885     0.00137807
H         0.93683405    -0.09373064    -0.61958314    -0.00119507    -0.00064876     0.00023880
H         0.85445669    -0.22546827     1.95828401     0.00099868    -0.00011415     0.00086569
H        -0.93609744    -0.18671514     1.83698527     0.00127863    -0.00058397    -0.00106779
H        -1.03228436     0.02713203    -0.56038097     0.00036522     0.00006745    -0.00080057
     6
  Step:    12            Position(A)                                  Velocity(au)
C        -0.03584813     0.03243945    -0.07760088     0.00001712     0.00012912    -0.00165145
N        -0.04473691    -0.04055383     1.38241004    -0.00007472    -0.00001704     0.00147852
H         0.92247567    -0.10098902    -0.61618941    -0.00137410    -0.00068009     0.00034596
H         0.86286920    -0.22618472     1.96593168     0.00052309    -0.00001755     0.00053094
H        -0.92212099    -0.19377739     1.82536853     0.00116401    -0.00072549    -0.00099081
H        -1.02730643     0.02816947    -0.56881981     0.00052142     0.00012139    -0.00075325
     6
  Step:    13            Position(A)                                  Velocity(au)
C        -0.03565916     0.03384744    -0.09615159     0.00001433     0.00012818    -0.00172229
N        -0.04527642    -0.04071932     1.39903375    -0.00001650    -0.00001079     0.00154459
H         0.90677293    -0.10860890    -0.61201465    -0.00142548    -0.00071976     0.00037380
H         0.86590032    -0.22585224     1.96989926     0.00003421     0.00007477     0.00020588
H        -0.91063254    -0.20258654     1.81530937     0.00082666    -0.00090762    -0.00078927
H        -1.02087720     0.02978778    -0.57685984     0.00062324     0.00017511    -0.00073163
     6
  Step:    14            Position(A)                                  Velocity(au)
C        -0.03553473     0.03524359    -0.11527926     0.00000486     0.00012737    -0.00175879
N        -0.04509786    -0.04078981     1.41620093     0.00005296     0.00000041     0.00158045
H         0.89129048    -0.11673521    -0.60801185    -0.00132262    -0.00077705     0.00030993
H         0.86361768    -0.22454903     1.97043562    -0.00042733     0.00015602    -0.00008383
H        -0.90403611    -0.21363323     1.80810184     0.00029851    -0.00113322    -0.00048807
H        -1.01367195     0.03200029    -0.58482562     0.00065762     0.00023085    -0.00074255
     6
  Step:    15            Position(A)                                  Velocity(au)
C        -0.03555288     0.03663383    -0.13462859    -0.00001158     0.00012741    -0.00176492
N        -0.04411777    -0.04071041     1.43360909     0.00012448     0.00001631     0.00159151
H         0.87783800    -0.12560827    -0.60523445    -0.00105299    -0.00085925     0.00015112
H         0.85655168    -0.22243901     1.96806530    -0.00081642     0.00021741    -0.00031276
H        -0.90410202    -0.22737797     1.80463195    -0.00033806    -0.00139286    -0.00013338
H        -1.00649051     0.03483814    -0.59310453     0.00061580     0.00028986    -0.00079025
     6
  Step:    16            Position(A)                                  Velocity(au)
C        -0.03578817     0.03803091    -0.15389022    -0.00003374     0.00012866    -0.00174506
N        -0.04237472    -0.04043310     1.45101826     0.00018597     0.00003598     0.00158303
H         0.86825426    -0.13553284    -0.60470576    -0.00062895    -0.00096948    -0.00009207
H         0.84575695    -0.21979270     1.96359337    -0.00108290     0.00024854    -0.00045539
H        -0.91143185    -0.24410467     1.80518386    -0.00096572    -0.00166513     0.00021896
H        -1.00020005     0.03834158    -0.60211377     0.00049540     0.00035291    -0.00087557
     6
  Step:    17            Position(A)                                  Velocity(au)
C        -0.03629100     0.03944852    -0.17280507    -0.00005845     0.00013086    -0.00170406
N        -0.04004938    -0.03992325     1.46824089     0.00022525     0.00005814     0.00155891
H         0.86407845    -0.14681740    -0.60724870    -0.00009418    -0.00110408    -0.00039391
H         0.83286119    -0.21700169     1.95810285    -0.00117586     0.00023829    -0.00048847
H        -0.92522901    -0.26380588     1.80942209    -0.00146619    -0.00192206     0.00052016
H        -0.99565267     0.04255872    -0.61225925     0.00030263     0.00042052    -0.00099520
     6
  Step:    18            Position(A)                                  Velocity(au)
C        -0.03706694     0.04089373    -0.19116970    -0.00008113     0.00013308    -0.00164730
N        -0.03744691    -0.03916111     1.48512231     0.00023336     0.00008156     0.00152156
H         0.86619385    -0.15968678    -0.61332322     0.00048032    -0.00125154    -0.00071732
H         0.82003279    -0.21457974     1.95290705    -0.00105480     0.00017694    -0.00039697
H        -0.94350749    -0.28615343     1.81656333    -0.00175496    -0.00213748     0.00074103
H        -0.99357948     0.04754123    -0.62388574     0.00005348     0.00049282    -0.00114142
     6
  Step:    19            Position(A)                                  Velocity(au)
C        -0.03806593     0.04235997    -0.20884297    -0.00009705     0.00013393    -0.00158045
N        -0.03494429    -0.03813893     1.50152785     0.00020700     0.00010530     0.00147278
H         0.87458636    -0.17419720    -0.62294136     0.00101230    -0.00139444    -0.00102285
H         0.80978548    -0.21313082     1.94941838    -0.00070694     0.00005981    -0.00018239
H        -0.96362221    -0.31056745     1.82563363    -0.00179848    -0.00229408     0.00087436
H        -0.99448273     0.05334005    -0.63723006    -0.00022695     0.00056953    -0.00130264
     6
  Step:    20            Position(A)                                  Velocity(au)
C        -0.03919016     0.04382371    -0.22574507    -0.00010294     0.00013194    -0.00150861
N        -0.03291831    -0.03685757     1.51734227     0.00014951     0.00012857     0.00141485
H         0.88833990    -0.19019273    -0.63570007     0.00143000    -0.00151417    -0.00127862
H         0.80456713    -0.21327118     1.94891692    -0.00016437    -0.00010880     0.00013005
H        -0.98285263    -0.33634074     1.83569152    -0.00160934    -0.00238579     0.00092892
H        -0.99854438     0.06000068    -0.65238356    -0.00050728     0.00064986    -0.00146480
     6
  Step:    21            Position(A)                                  Velocity(au)
C        -0.04031794     0.04524650    -0.24184674    -0.00009791     0.00012603    -0.00143569
N        -0.03167343    -0.03532627     1.53248032     0.00006993     0.00015048     0.00135109
H         0.90587029    -0.20732246    -0.65091352     0.00168842    -0.00159587    -0.00146632
H         0.80618966    -0.21551096     1.95226347     0.00049056    -0.00031356     0.00049139
H        -0.99882958    -0.36276120     1.84595563    -0.00122911    -0.00241603     0.00092110
H        -1.00558049     0.06755688    -0.66927544    -0.00075484     0.00073243    -0.00161350
     6
  Step:    22            Position(A)                                  Velocity(au)
C        -0.04133223     0.04658093    -0.25715361    -0.00008338     0.00011572    -0.00136418
N        -0.03138845    -0.03356545     1.54689989    -0.00001940     0.00016992     0.00128564
H         0.92527730    -0.22510544    -0.66777859     0.00177374    -0.00163138    -0.00158159
H         0.81529918    -0.22013081     1.95966711     0.00114107    -0.00053017     0.00083957
H        -1.00974178    -0.38919611     1.85584238    -0.00071042    -0.00239401     0.00086828
H        -1.01505790     0.07602409    -0.68768200    -0.00094114     0.00081536    -0.00173624
     6
  Step:    23            Position(A)                                  Velocity(au)
C        -0.04214205     0.04777807    -0.27169087    -0.00006213     0.00010113    -0.00129533
N        -0.03209790    -0.03160897     1.56060619    -0.00010615     0.00018574     0.00122239
H         0.94467432    -0.24301192    -0.68551383     0.00169718    -0.00161933    -0.00163018
H         0.83115271    -0.22710954     1.97063071     0.00166960    -0.00073170     0.00111714
H        -1.01437142    -0.41513470     1.86495095    -0.00010523    -0.00233155     0.00078570
H        -1.02616963     0.08539436    -0.70725905    -0.00104616     0.00089637    -0.00182408
     6
  Step:    24            Position(A)                                  Velocity(au)
C        -0.04269136     0.04879337    -0.28549142    -0.00003724     0.00008283    -0.00122948
N        -0.03371059    -0.02950206     1.57364191    -0.00018076     0.00019721     0.00116386
H         0.96240634    -0.26053131    -0.70344179     0.00148429    -0.00156338    -0.00162294
H         0.85182486    -0.23613815     1.98410679     0.00199183    -0.00089588     0.00128673
H        -1.01204378    -0.44020322     1.87303097     0.00054003    -0.00224143     0.00068578
H        -1.03794473     0.09563390    -0.72758725    -0.00106043     0.00097317    -0.00187238
     6
  Step:    25            Position(A)                                  Velocity(au)
C        -0.04295671     0.04959019    -0.29858805    -0.00001135     0.00006161    -0.00116643
N        -0.03605242    -0.02729468     1.58606786    -0.00023774     0.00020430     0.00111083
H         0.97714610    -0.27721394    -0.72101884     0.00116558    -0.00146995    -0.00157199
H         0.87472783    -0.24670866     1.99878034     0.00207326    -0.00100976     0.00133645
H        -1.00255715    -0.46417033     1.87995372     0.00118453    -0.00213710     0.00057887
H        -1.04936857     0.10668421    -0.74822102    -0.00098439     0.00104365    -0.00188054
     6
  Step:    26            Position(A)                                  Velocity(au)
C        -0.04293966     0.05014114    -0.31100927     0.00001365     0.00003830    -0.00110570
N        -0.03891152    -0.02503262     1.59794345    -0.00027509     0.00020776     0.00106255
H         0.98790574    -0.29268930    -0.73783201     0.00077073    -0.00134652    -0.00148846
H         0.89718145    -0.25822849     2.01334415     0.00192456    -0.00106986     0.00127536
H        -0.98612998    -0.48695640     1.88569491     0.00179105    -0.00203339     0.00047421
H        -1.05948019     0.11846575    -0.76872766    -0.00082620     0.00110619    -0.00185102
     6
  Step:    27            Position(A)                                  Velocity(au)
C        -0.04265801     0.05042805    -0.32277725     0.00003660     0.00001373    -0.00104668
N        -0.04207056    -0.02274942     1.60931307    -0.00029305     0.00020900     0.00101735
H         0.99400721    -0.30667158    -0.75358179     0.00032624    -0.00120074    -0.00138188
H         0.91683128    -0.27011387     2.02668123     0.00158477    -0.00107941     0.00112424
H        -0.96337449    -0.50865457     1.89032806     0.00232419    -0.00194746     0.00038074
H        -1.06744332     0.13088422    -0.78871567    -0.00059894     0.00115973    -0.00178827
     6
  Step:    28            Position(A)                                  Velocity(au)
C        -0.04213907     0.05044146    -0.33390731     0.00005680    -0.00001133    -0.00098873
N        -0.04532245    -0.02046044     1.62019997    -0.00029275     0.00020981     0.00097329
H         0.99504276    -0.31895785    -0.76806321    -0.00014456    -0.00104019    -0.00126026
H         0.93185129    -0.28184260     2.03793902     0.00110401    -0.00104480     0.00090728
H        -0.93528390    -0.52956091     1.89402433     0.00275009    -0.00189933     0.00030731
H        -1.07258314     0.14383696    -0.80784951    -0.00031821     0.00120380    -0.00169774
     6
  Step:    29            Position(A)                                  Velocity(au)
C        -0.04141538     0.05018010    -0.34440752     0.00007388    -0.00003615    -0.00093118
N        -0.04847496    -0.01815950     1.63060567    -0.00027566     0.00021218     0.00092850
H         0.99084475    -0.32942772    -0.78115246    -0.00062050    -0.00087252    -0.00113072
H         0.94098357    -0.29297098     2.04652975     0.00053233    -0.00097306     0.00064722
H        -0.90321097    -0.55020606     1.89705102     0.00303918    -0.00191075     0.00026201
H        -1.07440472     0.15721970    -0.82585709    -0.00000055     0.00123856    -0.00158530
     6
  Step:    30            Position(A)                                  Velocity(au)
C        -0.04052287     0.04965071    -0.35427859     0.00008753    -0.00005996    -0.00087334
N        -0.05135310    -0.01581870     1.64051278    -0.00024371     0.00021789     0.00088148
H         0.98146805    -0.33804596    -0.79279987    -0.00108148    -0.00070583    -0.00099999
H         0.94349700    -0.30313026     2.05209822    -0.00008447    -0.00087068     0.00036379
H        -0.86879600    -0.57136219     1.89975621     0.00317215    -0.00200151     0.00025041
H        -1.07259525     0.17093277    -0.84253104     0.00033752     0.00126468    -0.00145682
     6
  Step:    31            Position(A)                                  Velocity(au)
C        -0.03950056     0.04886827    -0.36351347     0.00009744    -0.00008201    -0.00081446
N        -0.05380650    -0.01339277     1.64988984    -0.00019983     0.00022806     0.00083122
H         0.96718526    -0.34486919    -0.80302926    -0.00150729    -0.00054905    -0.00087505
H         0.93913562    -0.31201875     2.05448844    -0.00070420    -0.00074364     0.00007430
H        -0.83381421    -0.59399295     1.90252923     0.00314764    -0.00218271     0.00027316
H        -1.06702086     0.18488694    -0.85772782     0.00067979     0.00128340    -0.00131813
     6
  Step:    32            Position(A)                                  Velocity(au)
C        -0.03839119     0.04785658    -0.37209647     0.00010320    -0.00010143    -0.00075370
N        -0.05572486    -0.01082946     1.65869733    -0.00014869     0.00024258     0.00077725
H         0.94849316    -0.35005739    -0.81194319    -0.00187661    -0.00041233    -0.00076359
H         0.92809123    -0.31939882     2.05372357    -0.00128529    -0.00059830    -0.00020493
H        -0.79993541    -0.61911307     1.90573216     0.00298826    -0.00244822     0.00032376
H        -1.05772351     0.19900959    -0.87136760     0.00101030     0.00129653    -0.00117505
     6
  Step:    33            Position(A)                                  Velocity(au)
C        -0.03724295     0.04664932    -0.38000206     0.00010422    -0.00011726    -0.00069007
N        -0.05705945    -0.00808597     1.66689376    -0.00009681     0.00025975     0.00071959
H         0.92613080    -0.35388960    -0.81973434    -0.00216634    -0.00030745    -0.00067454
H         0.91101744    -0.32510762     2.05000518    -0.00178319    -0.00044264    -0.00045681
H        -0.76844019    -0.64755255     1.90961205     0.00273976    -0.00276875     0.00038823
H        -1.04491865     0.21325110    -0.88343429     0.00131322     0.00130653    -0.00103348
     6
  Step:    34            Position(A)                                  Velocity(au)
C        -0.03611124     0.04529124    -0.38719317     0.00009980    -0.00012846    -0.00062248
N        -0.05784269    -0.00514690     1.67443967    -0.00005197     0.00027653     0.00065842
H         0.90110038    -0.35678354    -0.82670007    -0.00235208    -0.00024780    -0.00061794
H         0.88908057    -0.32908235     2.04372991    -0.00214839    -0.00028745    -0.00066254
H        -0.73999799    -0.67968486     1.91422536     0.00246067    -0.00309329     0.00044785
H        -1.02899425     0.22759246    -0.89397686     0.00157284     0.00131659    -0.00089941
     6
  Step:    35            Position(A)                                  Velocity(au)
C        -0.03505962     0.04383891    -0.39361995     0.00008931    -0.00013399    -0.00054975
N        -0.05819641    -0.00203641     1.68129789    -0.00002195     0.00028928     0.00059378
H         0.87467447    -0.35931069    -0.83325303    -0.00241073    -0.00024736    -0.00060400
H         0.86401721    -0.33139616     2.03551086    -0.00232798    -0.00014661    -0.00080196
H        -0.71460832    -0.71522414     1.91940962     0.00220596    -0.00336008     0.00048434
H        -1.01050980     0.24205391    -0.90311066     0.00177368     0.00133072    -0.00077894
     6
  Step:    36            Position(A)                                  Velocity(au)
C        -0.03415749     0.04235999    -0.39921991     0.00007251    -0.00013299    -0.00047088
N        -0.05832294     0.00118162     1.68742984    -0.00001289     0.00029487     0.00052537
H         0.84836097    -0.36219506    -0.83991380    -0.00232557    -0.00031845    -0.00064071
H         0.83815152    -0.33228974     2.02618554    -0.00227289    -0.00003526    -0.00085619
H        -0.69173837    -0.75319307     1.92482125     0.00201224    -0.00351303     0.00048516
H        -0.99019164     0.25670456    -0.91101769     0.00190141     0.00135376    -0.00067783
     6
  Step:    37            Position(A)                                  Velocity(au)
C        -0.03347332     0.04092960    -0.40392142     0.00005008    -0.00012512    -0.00038541
N        -0.05847848     0.00441442     1.69279134    -0.00002785     0.00029129     0.00045265
H         0.82379814    -0.36627741    -0.84726987    -0.00209356    -0.00046786    -0.00073010
H         0.81429332    -0.33216749     2.01678008    -0.00195224     0.00003523    -0.00081284
H        -0.67058675    -0.79207834     1.93002343     0.00189180    -0.00351536     0.00044629
H        -0.96891278     0.27166997    -0.91793941     0.00194428     0.00139107    -0.00060086
     6
  Step:    38            Position(A)                                  Velocity(au)
C        -0.03306183     0.03962271    -0.40765149     0.00002400    -0.00011093    -0.00029376
N        -0.05893222     0.00755411     1.69733238    -0.00006574     0.00027751     0.00037539
H         0.80256037    -0.37243038    -0.85588625    -0.00173235    -0.00069243    -0.00086412
H         0.79544248    -0.33151895     2.00840302    -0.00137170     0.00006493    -0.00067264
H        -0.65035159    -0.83009828     1.93458480     0.00183627    -0.00335507     0.00037163
H        -0.94765670     0.28713677    -0.92416269     0.00189540     0.00144798    -0.00055087
     6
  Step:    39            Position(A)                                  Velocity(au)
C        -0.03294837     0.03850288    -0.41034795    -0.00000248    -0.00009201    -0.00019753
N        -0.05991658     0.01048546     1.70100365    -0.00012099     0.00025286     0.00029419
H         0.78589961    -0.38142571    -0.86617424    -0.00128288    -0.00097595    -0.00102240
H         0.78428477    -0.33074712     2.00206489    -0.00058721     0.00007189    -0.00045416
H        -0.63041481    -0.86547685     1.93815364     0.00182549    -0.00304209     0.00026994
H        -0.92744733     0.30334737    -0.92999081     0.00175545     0.00152873    -0.00052757
     6
  Step:    40            Position(A)                                  Velocity(au)
C        -0.03311605     0.03760977    -0.41197293    -0.00002540    -0.00007094    -0.00009946
N        -0.06157902     0.01308588     1.70376824    -0.00018437     0.00021653     0.00021066
H         0.77449500    -0.39378115    -0.87825330    -0.00080389    -0.00129000    -0.00117431
H         0.78259614    -0.32994632     1.99846735     0.00029705     0.00009214    -0.00019267
H        -0.61041544    -0.89664985     1.94049020     0.00183643    -0.00260085     0.00015134
H        -0.90925282     0.32058075    -0.93570420     0.00153516     0.00163512    -0.00052645
     6
  Step:    41            Position(A)                                  Velocity(au)
C        -0.03350402     0.03695089    -0.41252386    -0.00004130    -0.00005064    -0.00000294
N        -0.06394998     0.01522236     1.70561217    -0.00024510     0.00016777     0.00012706
H         0.76831301    -0.40964694    -0.89186445    -0.00035887    -0.00159964    -0.00128565
H         0.79078334    -0.32873137     1.99784989     0.00115200     0.00016959     0.00006853
H        -0.59023934    -0.92237544     1.94146439     0.00184896    -0.00206296     0.00002487
H        -0.89386286     0.33911882    -0.94150802     0.00125606     0.00176508    -0.00053828
     6
  Step:    42            Position(A)                                  Velocity(au)
C        -0.03401958     0.03650183    -0.41203720    -0.00004827    -0.00003362     0.00008865
N        -0.06694096     0.01675615     1.70654783    -0.00029357     0.00010672     0.00004553
H         0.76664398    -0.42877627    -0.90637935    -0.00000090    -0.00187163    -0.00132734
H         0.80779832    -0.32623620     1.99996661     0.00185939     0.00033995     0.00029034
H        -0.56996592    -0.94178102     1.94103431     0.00184796    -0.00146249    -0.00010234
H        -0.88177412     0.35919519    -0.94748015     0.00094842     0.00191175    -0.00054956
     6
  Step:    43            Position(A)                                  Velocity(au)
C        -0.03456011     0.03621537    -0.41058452    -0.00004644    -0.00002132     0.00017256
N        -0.07037239     0.01755708     1.70660814    -0.00032343     0.00003504    -0.00003256
H         0.76829330    -0.45059236    -0.92090261     0.00023773    -0.00208175    -0.00128203
H         0.83146102    -0.32129428     2.00420169     0.00234089     0.00061848     0.00044734
H        -0.54981176    -0.95437030     1.93922543     0.00182277    -0.00083373    -0.00022468
H        -0.87311425     0.38094198    -0.95353061     0.00064654     0.00206404    -0.00054432
     6
  Step:    44            Position(A)                                  Velocity(au)
C        -0.03503558     0.03603549    -0.40826210    -0.00003761    -0.00001395     0.00024714
N        -0.07401657     0.01752274     1.70583549    -0.00033211    -0.00004395    -0.00010685
H         0.77184472    -0.47431852    -0.93442615     0.00034735    -0.00221794    -0.00114607
H         0.85900979    -0.31270573     2.00975311     0.00256768     0.00099773     0.00053023
H        -0.53008924    -0.96002048     1.93611899     0.00176561    -0.00021122    -0.00033704
H        -0.86762972     0.40435011    -0.95938815     0.00038266     0.00220850    -0.00050710
     6