|===============================================================================
|
|  DFTB+ release 20.1
|
|  Copyright (C) 2006 - 2020  DFTB+ developers group
|
|===============================================================================
|
|  When publishing results obtained with DFTB+, please cite the following
|  reference:
|
|  * DFTB+, a software package for efficient approximate density functional
|    theory based atomistic simulations, J. Chem. Phys. 152, 124101 (2020).
|    [doi: 10.1063/1.5143190]
|
|  You should also cite additional publications crediting the parametrization
|  data you use. Please consult the documentation of the SK-files for the
|  references.
|
|===============================================================================

Reading input file 'dftb_in.hsd'
Parser version: 8

--------------------------------------------------------------------------------
Reading SK-files:
Done.


Processed input in HSD format written to 'dftb_pin.hsd'

Starting initialization...
--------------------------------------------------------------------------------
OpenMP threads:              1
Chosen random seed:          501440781
Mode:                        Static calculation
Self consistent charges:     Yes
SCC-tolerance:                 0.100000E-05
Max. scc iterations:                   1000
Shell resolved Hubbard:      No
Spin polarisation:           No
Nr. of up electrons:            16.000000
Nr. of down electrons:          16.000000
Periodic boundaries:         No
Electronic solver:           Relatively robust
Maximal SCC-cycles:                    1000
Initial charges:             Set automatically (system chrg:   0.100E+01)
Included shells:             C:  s, p
                             H:  s
                             N:  s, p
Spin coupling constants:     C   1(s)-1(s):  -0.455900E-01
                             C   1(s)-2(p):  -0.293000E-01
                             C   2(p)-1(s):  -0.293000E-01
                             C   2(p)-2(p):  -0.275500E-01
                             H   1(s)-1(s):  -0.792500E-01
                             N   1(s)-1(s):  -0.468700E-01
                             N   1(s)-2(p):  -0.317000E-01
                             N   2(p)-1(s):  -0.317000E-01
                             N   2(p)-2(p):  -0.307200E-01
Range separated hybrid:      Yes
  Screening parameter omega:   0.300000E+00
  Range separated algorithm:   MatrixBased
Extra options:
                             Mulliken analysis
                             Force calculation
Force type                   original
                             Eigenvector printing


REKS Calcuation:             Yes
SSR(2,2) Calcuation:         Yes
Energy Functional:           (PPS+OSS)/2
Number of Core Orbitals:                 15
Number of Active Orbitals:                2
Number of Basis:                         32
Number of States:                         2
State-Averaging Weight:          0.500000
                                 0.500000
State of Interest:                        1
Initial Guess:               Diagonalize H0 matrix
Newton-Raphson for FON opt:  Yes
NR max. Iterations:                      50
Level Shifting:              Yes
Shift Value:                     0.300000
W Scale Factor:              C  =    3.200000
                             H  =    3.200000
                             N  =    3.200000
Transition Dipole:           No
Gradient of Microstate:      No
CP-REKS Solver:              Preconditioned Conjugate-Gradient
CG max. Iterations:                     100
CG Tolerance:                  0.100000E-07
Memory for A and Hxc:        Direct Updating Without Saving
Non-Adiabatic Coupling:      Yes

--------------------------------------------------------------------------------

***  Geometry step: 0

  iSCC       reks energy        Diff energy         x_a       SCC error   
    1      -16.4040865563       0.0000000000     0.999565    1.22739519
    2      -16.4231581935      -0.0190716371     0.999966    0.06219596
    3      -16.4267290500      -0.0035708565     0.999990    0.01979365
    4      -16.4279694110      -0.0012403610     0.999996    0.01150375
    5      -16.4285566593      -0.0005872483     0.999997    0.00781133
    6      -16.4288943079      -0.0003376486     0.999998    0.00565574
    7      -16.4291192936      -0.0002249857     0.999999    0.00429653
    8      -16.4292872726      -0.0001679790     0.999999    0.00340717
    9      -16.4294234221      -0.0001361495     0.999999    0.00280965
   10      -16.4295399878      -0.0001165657     0.999999    0.00239754
   11      -16.4296433026      -0.0001033148     0.999999    0.00210503
   12      -16.4297368518      -0.0000935492     0.999999    0.00189081
   13      -16.4298226855      -0.0000858337     0.999999    0.00172862
   14      -16.4299020965      -0.0000794110     0.999999    0.00160157
   15      -16.4299759573      -0.0000738608     0.999999    0.00149869
   16      -16.4300448950      -0.0000689377     1.000000    0.00141272
   17      -16.4301093858      -0.0000644908     1.000000    0.00133885
   18      -16.4301698088      -0.0000604229     1.000000    0.00127381
   19      -16.4302264773      -0.0000566685     1.000000    0.00121539
   20      -16.4302796593      -0.0000531820     1.000000    0.00116205
   21      -16.4303295897      -0.0000499304     1.000000    0.00111271
   22      -16.4303764787      -0.0000468890     1.000000    0.00106664
   23      -16.4304205177      -0.0000440389     1.000000    0.00102327
   24      -16.4304618828      -0.0000413651     1.000000    0.00098224
   25      -16.4305007381      -0.0000388553     1.000000    0.00095687
   26      -16.4305372369      -0.0000364988     1.000000    0.00093353
   27      -16.4305715234      -0.0000342866     1.000000    0.00091014
   28      -16.4306037338      -0.0000322104     1.000000    0.00088678
   29      -16.4306339965      -0.0000302626     1.000000    0.00086351
   30      -16.4306624327      -0.0000284362     1.000000    0.00084041
   31      -16.4306891571      -0.0000267244     1.000000    0.00081753
   32      -16.4307142779      -0.0000251209     1.000000    0.00079493
   33      -16.4307378973      -0.0000236194     1.000000    0.00077266
   34      -16.4307601113      -0.0000222140     1.000000    0.00075076
   35      -16.4307810105      -0.0000208992     1.000000    0.00072928
   36      -16.4308006798      -0.0000196693     1.000000    0.00070824
   37      -16.4308191990      -0.0000185192     1.000000    0.00068767
   38      -16.4308366430      -0.0000174439     1.000000    0.00066760
   39      -16.4308530816      -0.0000164386     1.000000    0.00064804
   40      -16.4308685804      -0.0000154988     1.000000    0.00062900
   41      -16.4308832004      -0.0000146201     1.000000    0.00061049
   42      -16.4308969988      -0.0000137984     1.000000    0.00059252
   43      -16.4309100288      -0.0000130300     1.000000    0.00057509
   44      -16.4309223400      -0.0000123112     1.000000    0.00055820
   45      -16.4309339786      -0.0000116386     1.000000    0.00054184
   46      -16.4309449876      -0.0000110090     1.000000    0.00052600
   47      -16.4309554071      -0.0000104195     1.000000    0.00051069
   48      -16.4309652745      -0.0000098673     1.000000    0.00049589
   49      -16.4309746243      -0.0000093499     1.000000    0.00048159
   50      -16.4309834890      -0.0000088647     1.000000    0.00046777
   51      -16.4309918985      -0.0000084095     1.000000    0.00045443
   52      -16.4309998809      -0.0000079824     1.000000    0.00044156
   53      -16.4310074622      -0.0000075813     1.000000    0.00042913
   54      -16.4310146666      -0.0000072044     1.000000    0.00041714
   55      -16.4310215168      -0.0000068502     1.000000    0.00041002
   56      -16.4310280337      -0.0000065170     1.000000    0.00040294
   57      -16.4310342371      -0.0000062034     1.000000    0.00039588
   58      -16.4310401452      -0.0000059081     1.000000    0.00038886
   59      -16.4310457751      -0.0000056299     1.000000    0.00038188
   60      -16.4310511427      -0.0000053676     1.000000    0.00037496
   61      -16.4310562629      -0.0000051202     1.000000    0.00036812
   62      -16.4310611496      -0.0000048867     1.000000    0.00036135
   63      -16.4310658159      -0.0000046663     1.000000    0.00035468
   64      -16.4310702738      -0.0000044579     1.000000    0.00034809
   65      -16.4310745348      -0.0000042610     1.000000    0.00034161
   66      -16.4310786096      -0.0000040747     1.000000    0.00033522
   67      -16.4310825080      -0.0000038984     1.000000    0.00032895
   68      -16.4310862396      -0.0000037315     1.000000    0.00032278
   69      -16.4310898129      -0.0000035734     1.000000    0.00031673
   70      -16.4310932364      -0.0000034235     1.000000    0.00031079
   71      -16.4310965177      -0.0000032813     1.000000    0.00030497
   72      -16.4310996642      -0.0000031464     1.000000    0.00029926
   73      -16.4311026826      -0.0000030184     1.000000    0.00029367
   74      -16.4311055793      -0.0000028968     1.000000    0.00028819
   75      -16.4311083606      -0.0000027812     1.000000    0.00028283
   76      -16.4311110319      -0.0000026713     1.000000    0.00027759
   77      -16.4311135987      -0.0000025669     1.000000    0.00027245
   78      -16.4311160662      -0.0000024674     1.000000    0.00026743
   79      -16.4311184389      -0.0000023728     1.000000    0.00026252
   80      -16.4311207215      -0.0000022826     1.000000    0.00025772
   81      -16.4311229182      -0.0000021967     1.000000    0.00025303
   82      -16.4311250331      -0.0000021148     1.000000    0.00024845
   83      -16.4311270698      -0.0000020367     1.000000    0.00024397
   84      -16.4311290320      -0.0000019622     1.000000    0.00023959
   85      -16.4311309232      -0.0000018911     1.000000    0.00023531
   86      -16.4311327464      -0.0000018232     1.000000    0.00023113
   87      -16.4311345048      -0.0000017584     1.000000    0.00022705
   88      -16.4311362012      -0.0000016964     1.000000    0.00022306
   89      -16.4311378384      -0.0000016372     1.000000    0.00021916
   90      -16.4311394189      -0.0000015805     1.000000    0.00021536
   91      -16.4311409453      -0.0000015263     1.000000    0.00021164
   92      -16.4311424197      -0.0000014745     1.000000    0.00020801
   93      -16.4311438445      -0.0000014248     1.000000    0.00020446
   94      -16.4311452217      -0.0000013772     1.000000    0.00020100
   95      -16.4311465534      -0.0000013317     1.000000    0.00019762
   96      -16.4311478414      -0.0000012880     1.000000    0.00019431
   97      -16.4311490875      -0.0000012461     1.000000    0.00019108
   98      -16.4311502935      -0.0000012060     1.000000    0.00018793
   99      -16.4311514609      -0.0000011674     1.000000    0.00018485
  100      -16.4311525914      -0.0000011305     1.000000    0.00018184
  101      -16.4311536864      -0.0000010950     1.000000    0.00017890
  102      -16.4311547473      -0.0000010609     1.000000    0.00017602
  103      -16.4311557754      -0.0000010281     1.000000    0.00017321
  104      -16.4311567720      -0.0000009967     1.000000    0.00017047
  105      -16.4311577385      -0.0000009664     1.000000    0.00016778
  106      -16.4311586758      -0.0000009373     1.000000    0.00016516
  107      -16.4311595851      -0.0000009093     1.000000    0.00016260
  108      -16.4311604675      -0.0000008824     1.000000    0.00016009
  109      -16.4311613241      -0.0000008565     1.000000    0.00015764
  110      -16.4311621556      -0.0000008316     1.000000    0.00015525
  111      -16.4311629632      -0.0000008076     1.000000    0.00015290
  112      -16.4311637476      -0.0000007844     1.000000    0.00015061
  113      -16.4311645097      -0.0000007621     1.000000    0.00014837
  114      -16.4311652504      -0.0000007406     1.000000    0.00014618
  115      -16.4311659703      -0.0000007199     1.000000    0.00014403
  116      -16.4311666703      -0.0000007000     1.000000    0.00014193
  117      -16.4311673509      -0.0000006807     1.000000    0.00013988
  118      -16.4311680130      -0.0000006621     1.000000    0.00013787
  119      -16.4311686572      -0.0000006442     1.000000    0.00013590
  120      -16.4311692840      -0.0000006268     1.000000    0.00013398
  121      -16.4311698941      -0.0000006101     1.000000    0.00013209
  122      -16.4311704881      -0.0000005940     1.000000    0.00013025
  123      -16.4311710665      -0.0000005784     1.000000    0.00012844
  124      -16.4311716297      -0.0000005633     1.000000    0.00012667
  125      -16.4311721784      -0.0000005487     1.000000    0.00012494
  126      -16.4311727130      -0.0000005346     1.000000    0.00012324
  127      -16.4311732340      -0.0000005210     1.000000    0.00012158
  128      -16.4311737418      -0.0000005078     1.000000    0.00011995
  129      -16.4311742369      -0.0000004951     1.000000    0.00011836
  130      -16.4311747196      -0.0000004827     1.000000    0.00011679
  131      -16.4311751904      -0.0000004708     1.000000    0.00011526
  132      -16.4311756496      -0.0000004592     1.000000    0.00011376
  133      -16.4311760976      -0.0000004480     1.000000    0.00011229
  134      -16.4311765348      -0.0000004372     1.000000    0.00011084
  135      -16.4311769615      -0.0000004267     1.000000    0.00010943
  136      -16.4311773780      -0.0000004165     1.000000    0.00010804
  137      -16.4311777846      -0.0000004066     1.000000    0.00010668
  138      -16.4311781817      -0.0000003971     1.000000    0.00010535
  139      -16.4311785694      -0.0000003878     1.000000    0.00010404
  140      -16.4311789482      -0.0000003788     1.000000    0.00010275
  141      -16.4311793183      -0.0000003701     1.000000    0.00010149
  142      -16.4311796799      -0.0000003616     1.000000    0.00010026
  143      -16.4311800334      -0.0000003534     1.000000    0.00009905
  144      -16.4311803788      -0.0000003454     1.000000    0.00009786
  145      -16.4311807165      -0.0000003377     1.000000    0.00009669
  146      -16.4311810467      -0.0000003302     1.000000    0.00009554
  147      -16.4311813696      -0.0000003229     1.000000    0.00009442
  148      -16.4311816854      -0.0000003158     1.000000    0.00009331
  149      -16.4311819944      -0.0000003089     1.000000    0.00009223
  150      -16.4311822966      -0.0000003023     1.000000    0.00009116
  151      -16.4311825924      -0.0000002958     1.000000    0.00009012
  152      -16.4311828818      -0.0000002894     1.000000    0.00008909
  153      -16.4311831651      -0.0000002833     1.000000    0.00008808
  154      -16.4311834424      -0.0000002773     1.000000    0.00008709
  155      -16.4311837140      -0.0000002715     1.000000    0.00008611
  156      -16.4311839798      -0.0000002659     1.000000    0.00008516
  157      -16.4311842402      -0.0000002604     1.000000    0.00008422
  158      -16.4311844953      -0.0000002550     1.000000    0.00008329
  159      -16.4311847451      -0.0000002498     1.000000    0.00008239
  160      -16.4311849899      -0.0000002448     1.000000    0.00008149
  161      -16.4311852297      -0.0000002398     1.000000    0.00008062
  162      -16.4311854648      -0.0000002351     1.000000    0.00007975
  163      -16.4311856952      -0.0000002304     1.000000    0.00007890
  164      -16.4311859210      -0.0000002258     1.000000    0.00007807
  165      -16.4311861424      -0.0000002214     1.000000    0.00007725
  166      -16.4311863595      -0.0000002171     1.000000    0.00007644
  167      -16.4311865723      -0.0000002129     1.000000    0.00007565
  168      -16.4311867811      -0.0000002088     1.000000    0.00007487
  169      -16.4311869859      -0.0000002048     1.000000    0.00007410
  170      -16.4311871868      -0.0000002009     1.000000    0.00007335
  171      -16.4311873839      -0.0000001971     1.000000    0.00007261
  172      -16.4311875772      -0.0000001934     1.000000    0.00007188
  173      -16.4311877670      -0.0000001898     1.000000    0.00007116
  174      -16.4311879533      -0.0000001863     1.000000    0.00007045
  175      -16.4311881361      -0.0000001828     1.000000    0.00006975
  176      -16.4311883155      -0.0000001795     1.000000    0.00006907
  177      -16.4311884917      -0.0000001762     1.000000    0.00006839
  178      -16.4311886647      -0.0000001730     1.000000    0.00006773
  179      -16.4311888346      -0.0000001699     1.000000    0.00006708
  180      -16.4311890015      -0.0000001668     1.000000    0.00006643
  181      -16.4311891653      -0.0000001639     1.000000    0.00006580
  182      -16.4311893263      -0.0000001610     1.000000    0.00006517
  183      -16.4311894845      -0.0000001581     1.000000    0.00006456
  184      -16.4311896398      -0.0000001554     1.000000    0.00006395
  185      -16.4311897925      -0.0000001527     1.000000    0.00006336
  186      -16.4311899426      -0.0000001500     1.000000    0.00006277
  187      -16.4311900900      -0.0000001475     1.000000    0.00006219
  188      -16.4311902350      -0.0000001449     1.000000    0.00006162
  189      -16.4311903775      -0.0000001425     1.000000    0.00006106
  190      -16.4311905175      -0.0000001401     1.000000    0.00006051
  191      -16.4311906553      -0.0000001377     1.000000    0.00005996
  192      -16.4311907907      -0.0000001354     1.000000    0.00005943
  193      -16.4311909239      -0.0000001332     1.000000    0.00005890
  194      -16.4311910549      -0.0000001310     1.000000    0.00005837
  195      -16.4311911837      -0.0000001288     1.000000    0.00005786
  196      -16.4311913104      -0.0000001267     1.000000    0.00005735
  197      -16.4311914351      -0.0000001247     1.000000    0.00005685
  198      -16.4311915578      -0.0000001227     1.000000    0.00005636
  199      -16.4311916785      -0.0000001207     1.000000    0.00005588
  200      -16.4311917972      -0.0000001188     1.000000    0.00005540
  201      -16.4311919141      -0.0000001169     1.000000    0.00005492
  202      -16.4311920292      -0.0000001150     1.000000    0.00005446
  203      -16.4311921424      -0.0000001132     1.000000    0.00005400
  204      -16.4311922539      -0.0000001115     1.000000    0.00005355
  205      -16.4311923636      -0.0000001097     1.000000    0.00005310
  206      -16.4311924717      -0.0000001080     1.000000    0.00005266
  207      -16.4311925780      -0.0000001064     1.000000    0.00005223
  208      -16.4311926828      -0.0000001048     1.000000    0.00005180
  209      -16.4311927860      -0.0000001032     1.000000    0.00005137
  210      -16.4311928876      -0.0000001016     1.000000    0.00005096
  211      -16.4311929877      -0.0000001001     1.000000    0.00005055
  212      -16.4311930863      -0.0000000986     1.000000    0.00005014
  213      -16.4311931834      -0.0000000971     1.000000    0.00004974
  214      -16.4311932791      -0.0000000957     1.000000    0.00004934
  215      -16.4311933734      -0.0000000943     1.000000    0.00004895
  216      -16.4311934663      -0.0000000929     1.000000    0.00004857
  217      -16.4311935578      -0.0000000915     1.000000    0.00004819
  218      -16.4311936480      -0.0000000902     1.000000    0.00004781
  219      -16.4311937370      -0.0000000889     1.000000    0.00004744
  220      -16.4311938246      -0.0000000877     1.000000    0.00004708
  221      -16.4311939110      -0.0000000864     1.000000    0.00004672
  222      -16.4311939962      -0.0000000852     1.000000    0.00004636
  223      -16.4311940802      -0.0000000840     1.000000    0.00004601
  224      -16.4311941630      -0.0000000828     1.000000    0.00004566
  225      -16.4311942446      -0.0000000816     1.000000    0.00004532
  226      -16.4311943251      -0.0000000805     1.000000    0.00004498
  227      -16.4311944045      -0.0000000794     1.000000    0.00004464
  228      -16.4311944828      -0.0000000783     1.000000    0.00004431
  229      -16.4311945600      -0.0000000772     1.000000    0.00004399
  230      -16.4311946362      -0.0000000762     1.000000    0.00004367
  231      -16.4311947114      -0.0000000752     1.000000    0.00004335
  232      -16.4311947855      -0.0000000741     1.000000    0.00004303
  233      -16.4311948586      -0.0000000731     1.000000    0.00004272
  234      -16.4311949308      -0.0000000722     1.000000    0.00004242
  235      -16.4311950020      -0.0000000712     1.000000    0.00004211
  236      -16.4311950723      -0.0000000703     1.000000    0.00004181
  237      -16.4311951417      -0.0000000693     1.000000    0.00004152
  238      -16.4311952101      -0.0000000684     1.000000    0.00004123
  239      -16.4311952776      -0.0000000676     1.000000    0.00004094
  240      -16.4311953443      -0.0000000667     1.000000    0.00004066
  241      -16.4311954101      -0.0000000658     1.000000    0.00004042
  242      -16.4311954751      -0.0000000650     1.000000    0.00004019
  243      -16.4311955393      -0.0000000641     1.000000    0.00003997
  244      -16.4311956026      -0.0000000633     1.000000    0.00003974
  245      -16.4311956651      -0.0000000625     1.000000    0.00003952
  246      -16.4311957269      -0.0000000618     1.000000    0.00003930
  247      -16.4311957879      -0.0000000610     1.000000    0.00003908
  248      -16.4311958481      -0.0000000602     1.000000    0.00003887
  249      -16.4311959076      -0.0000000595     1.000000    0.00003865
  250      -16.4311959663      -0.0000000587     1.000000    0.00003844
  251      -16.4311960243      -0.0000000580     1.000000    0.00003823
  252      -16.4311960816      -0.0000000573     1.000000    0.00003802
  253      -16.4311961383      -0.0000000566     1.000000    0.00003782
  254      -16.4311961942      -0.0000000559     1.000000    0.00003761
  255      -16.4311962495      -0.0000000553     1.000000    0.00003741
  256      -16.4311963041      -0.0000000546     1.000000    0.00003721
  257      -16.4311963580      -0.0000000539     1.000000    0.00003702
  258      -16.4311964113      -0.0000000533     1.000000    0.00003682
  259      -16.4311964640      -0.0000000527     1.000000    0.00003663
  260      -16.4311965161      -0.0000000521     1.000000    0.00003643
  261      -16.4311965675      -0.0000000515     1.000000    0.00003624
  262      -16.4311966184      -0.0000000509     1.000000    0.00003606
  263      -16.4311966686      -0.0000000503     1.000000    0.00003587
  264      -16.4311967183      -0.0000000497     1.000000    0.00003568
  265      -16.4311967674      -0.0000000491     1.000000    0.00003550
  266      -16.4311968160      -0.0000000486     1.000000    0.00003532
  267      -16.4311968640      -0.0000000480     1.000000    0.00003514
  268      -16.4311969115      -0.0000000475     1.000000    0.00003496
  269      -16.4311969584      -0.0000000469     1.000000    0.00003479
  270      -16.4311970048      -0.0000000464     1.000000    0.00003461
  271      -16.4311970507      -0.0000000459     1.000000    0.00003444
  272      -16.4311970961      -0.0000000454     1.000000    0.00003427
  273      -16.4311971409      -0.0000000449     1.000000    0.00003410
  274      -16.4311971853      -0.0000000444     1.000000    0.00003393
  275      -16.4311972292      -0.0000000439     1.000000    0.00003376
  276      -16.4311972726      -0.0000000434     1.000000    0.00003360
  277      -16.4311973156      -0.0000000429     1.000000    0.00003344
  278      -16.4311973581      -0.0000000425     1.000000    0.00003327
  279      -16.4311974001      -0.0000000420     1.000000    0.00003311
  280      -16.4311974417      -0.0000000416     1.000000    0.00003295
  281      -16.4311974828      -0.0000000411     1.000000    0.00003280
  282      -16.4311975235      -0.0000000407     1.000000    0.00003264
  283      -16.4311975638      -0.0000000403     1.000000    0.00003249
  284      -16.4311976036      -0.0000000398     1.000000    0.00003233
  285      -16.4311976430      -0.0000000394     1.000000    0.00003218
  286      -16.4311976821      -0.0000000390     1.000000    0.00003203
  287      -16.4311977207      -0.0000000386     1.000000    0.00003188
  288      -16.4311977589      -0.0000000382     1.000000    0.00003173
  289      -16.4311977967      -0.0000000378     1.000000    0.00003159
  290      -16.4311978342      -0.0000000374     1.000000    0.00003144
  291      -16.4311978712      -0.0000000371     1.000000    0.00003130
  292      -16.4311979079      -0.0000000367     1.000000    0.00003115
  293      -16.4311979442      -0.0000000363     1.000000    0.00003101
  294      -16.4311979802      -0.0000000359     1.000000    0.00003087
  295      -16.4311980157      -0.0000000356     1.000000    0.00003073
  296      -16.4311980510      -0.0000000352     1.000000    0.00003060
  297      -16.4311980859      -0.0000000349     1.000000    0.00003046
  298      -16.4311981204      -0.0000000345     1.000000    0.00003032
  299      -16.4311981546      -0.0000000342     1.000000    0.00003019
  300      -16.4311981885      -0.0000000339     1.000000    0.00003006
  301      -16.4311982220      -0.0000000335     1.000000    0.00002992
  302      -16.4311982552      -0.0000000332     1.000000    0.00002979
  303      -16.4311982881      -0.0000000329     1.000000    0.00002966
  304      -16.4311983207      -0.0000000326     1.000000    0.00002953
  305      -16.4311983530      -0.0000000323     1.000000    0.00002941
  306      -16.4311983849      -0.0000000320     1.000000    0.00002928
  307      -16.4311984166      -0.0000000317     1.000000    0.00002916
  308      -16.4311984479      -0.0000000314     1.000000    0.00002903
  309      -16.4311984790      -0.0000000311     1.000000    0.00002891
  310      -16.4311985098      -0.0000000308     1.000000    0.00002879
  311      -16.4311985402      -0.0000000305     1.000000    0.00002866
  312      -16.4311985705      -0.0000000302     1.000000    0.00002854
  313      -16.4311986004      -0.0000000299     1.000000    0.00002843
  314      -16.4311986300      -0.0000000296     1.000000    0.00002831
  315      -16.4311986594      -0.0000000294     1.000000    0.00002819
  316      -16.4311986885      -0.0000000291     1.000000    0.00002807
  317      -16.4311987174      -0.0000000288     1.000000    0.00002796
  318      -16.4311987459      -0.0000000286     1.000000    0.00002785
  319      -16.4311987743      -0.0000000283     1.000000    0.00002773
  320      -16.4311988024      -0.0000000281     1.000000    0.00002762
  321      -16.4311988302      -0.0000000278     1.000000    0.00002751
  322      -16.4311988578      -0.0000000276     1.000000    0.00002740
  323      -16.4311988851      -0.0000000273     1.000000    0.00002729
  324      -16.4311989122      -0.0000000271     1.000000    0.00002718
  325      -16.4311989390      -0.0000000269     1.000000    0.00002707
  326      -16.4311989657      -0.0000000266     1.000000    0.00002696
  327      -16.4311989921      -0.0000000264     1.000000    0.00002686
  328      -16.4311990182      -0.0000000262     1.000000    0.00002675
  329      -16.4311990442      -0.0000000259     1.000000    0.00002665
  330      -16.4311990699      -0.0000000257     1.000000    0.00002655
  331      -16.4311990954      -0.0000000255     1.000000    0.00002644
  332      -16.4311991207      -0.0000000253     1.000000    0.00002634
  333      -16.4311991457      -0.0000000251     1.000000    0.00002624
  334      -16.4311991706      -0.0000000249     1.000000    0.00002614
  335      -16.4311991952      -0.0000000246     1.000000    0.00002604
  336      -16.4311992197      -0.0000000244     1.000000    0.00002594
  337      -16.4311992439      -0.0000000242     1.000000    0.00002584
  338      -16.4311992679      -0.0000000240     1.000000    0.00002575
  339      -16.4311992918      -0.0000000238     1.000000    0.00002565
  340      -16.4311993154      -0.0000000236     1.000000    0.00002555
  341      -16.4311993389      -0.0000000235     1.000000    0.00002546
  342      -16.4311993621      -0.0000000233     1.000000    0.00002537
  343      -16.4311993852      -0.0000000231     1.000000    0.00002527
  344      -16.4311994081      -0.0000000229     1.000000    0.00002518
  345      -16.4311994308      -0.0000000227     1.000000    0.00002509
  346      -16.4311994533      -0.0000000225     1.000000    0.00002500
  347      -16.4311994756      -0.0000000223     1.000000    0.00002491
  348      -16.4311994978      -0.0000000222     1.000000    0.00002482
  349      -16.4311995198      -0.0000000220     1.000000    0.00002473
  350      -16.4311995416      -0.0000000218     1.000000    0.00002464
  351      -16.4311995633      -0.0000000216     1.000000    0.00002455
  352      -16.4311995847      -0.0000000215     1.000000    0.00002446
  353      -16.4311996060      -0.0000000213     1.000000    0.00002438
  354      -16.4311996272      -0.0000000211     1.000000    0.00002429
  355      -16.4311996482      -0.0000000210     1.000000    0.00002421
  356      -16.4311996690      -0.0000000208     1.000000    0.00002412
  357      -16.4311996896      -0.0000000207     1.000000    0.00002404
  358      -16.4311997101      -0.0000000205     1.000000    0.00002396
  359      -16.4311997305      -0.0000000203     1.000000    0.00002387
  360      -16.4311997507      -0.0000000202     1.000000    0.00002379
  361      -16.4311997707      -0.0000000200     1.000000    0.00002371
  362      -16.4311997906      -0.0000000199     1.000000    0.00002363
  363      -16.4311998104      -0.0000000197     1.000000    0.00002355
  364      -16.4311998300      -0.0000000196     1.000000    0.00002347
  365      -16.4311998494      -0.0000000195     1.000000    0.00002339
  366      -16.4311998687      -0.0000000193     1.000000    0.00002331
  367      -16.4311998879      -0.0000000192     1.000000    0.00002324
  368      -16.4311999069      -0.0000000190     1.000000    0.00002316
  369      -16.4311999258      -0.0000000189     1.000000    0.00002308
  370      -16.4311999446      -0.0000000188     1.000000    0.00002301
  371      -16.4311999632      -0.0000000186     1.000000    0.00002293
  372      -16.4311999817      -0.0000000185     1.000000    0.00002286
  373      -16.4312000000      -0.0000000184     1.000000    0.00002278
  374      -16.4312000183      -0.0000000182     1.000000    0.00002271
  375      -16.4312000364      -0.0000000181     1.000000    0.00002264
  376      -16.4312000543      -0.0000000180     1.000000    0.00002256
  377      -16.4312000722      -0.0000000178     1.000000    0.00002249
  378      -16.4312000899      -0.0000000177     1.000000    0.00002242
  379      -16.4312001075      -0.0000000176     1.000000    0.00002235
  380      -16.4312001250      -0.0000000175     1.000000    0.00002228
  381      -16.4312001423      -0.0000000174     1.000000    0.00002221
  382      -16.4312001595      -0.0000000172     1.000000    0.00002214
  383      -16.4312001767      -0.0000000171     1.000000    0.00002207
  384      -16.4312001937      -0.0000000170     1.000000    0.00002200
  385      -16.4312002105      -0.0000000169     1.000000    0.00002194
  386      -16.4312002273      -0.0000000168     1.000000    0.00002187
  387      -16.4312002440      -0.0000000167     1.000000    0.00002180
  388      -16.4312002605      -0.0000000165     1.000000    0.00002173
  389      -16.4312002769      -0.0000000164     1.000000    0.00002167
  390      -16.4312002933      -0.0000000163     1.000000    0.00002160
  391      -16.4312003095      -0.0000000162     1.000000    0.00002154
  392      -16.4312003256      -0.0000000161     1.000000    0.00002147
  393      -16.4312003416      -0.0000000160     1.000000    0.00002141
  394      -16.4312003575      -0.0000000159     1.000000    0.00002135
  395      -16.4312003733      -0.0000000158     1.000000    0.00002128
  396      -16.4312003890      -0.0000000157     1.000000    0.00002122
  397      -16.4312004046      -0.0000000156     1.000000    0.00002116
  398      -16.4312004201      -0.0000000155     1.000000    0.00002110
  399      -16.4312004355      -0.0000000154     1.000000    0.00002103
  400      -16.4312004508      -0.0000000153     1.000000    0.00002097
  401      -16.4312004660      -0.0000000152     1.000000    0.00002091
  402      -16.4312004811      -0.0000000151     1.000000    0.00002085
  403      -16.4312004961      -0.0000000150     1.000000    0.00002079
  404      -16.4312005110      -0.0000000149     1.000000    0.00002073
  405      -16.4312005258      -0.0000000148     1.000000    0.00002068
  406      -16.4312005406      -0.0000000147     1.000000    0.00002062
  407      -16.4312005552      -0.0000000146     1.000000    0.00002056
  408      -16.4312005697      -0.0000000145     1.000000    0.00002050
  409      -16.4312005842      -0.0000000145     1.000000    0.00002044
  410      -16.4312005986      -0.0000000144     1.000000    0.00002039
  411      -16.4312006129      -0.0000000143     1.000000    0.00002033
  412      -16.4312006271      -0.0000000142     1.000000    0.00002028
  413      -16.4312006412      -0.0000000141     1.000000    0.00002022
  414      -16.4312006552      -0.0000000140     1.000000    0.00002017
  415      -16.4312006691      -0.0000000139     1.000000    0.00002011
  416      -16.4312006830      -0.0000000139     1.000000    0.00002006
  417      -16.4312006968      -0.0000000138     1.000000    0.00002000
  418      -16.4312007105      -0.0000000137     1.000000    0.00001995
  419      -16.4312007241      -0.0000000136     1.000000    0.00001990
  420      -16.4312007376      -0.0000000135     1.000000    0.00001984
  421      -16.4312007511      -0.0000000135     1.000000    0.00001979
  422      -16.4312007645      -0.0000000134     1.000000    0.00001974
  423      -16.4312007778      -0.0000000133     1.000000    0.00001969
  424      -16.4312007910      -0.0000000132     1.000000    0.00001963
  425      -16.4312008042      -0.0000000132     1.000000    0.00001958
  426      -16.4312008172      -0.0000000131     1.000000    0.00001953
  427      -16.4312008302      -0.0000000130     1.000000    0.00001948
  428      -16.4312008432      -0.0000000129     1.000000    0.00001943
  429      -16.4312008560      -0.0000000129     1.000000    0.00001938
  430      -16.4312008688      -0.0000000128     1.000000    0.00001933
  431      -16.4312008815      -0.0000000127     1.000000    0.00001928
  432      -16.4312008942      -0.0000000126     1.000000    0.00001924
  433      -16.4312009067      -0.0000000126     1.000000    0.00001919
  434      -16.4312009192      -0.0000000125     1.000000    0.00001914
  435      -16.4312009317      -0.0000000124     1.000000    0.00001909
  436      -16.4312009440      -0.0000000124     1.000000    0.00001904
  437      -16.4312009563      -0.0000000123     1.000000    0.00001900
  438      -16.4312009686      -0.0000000122     1.000000    0.00001895
  439      -16.4312009807      -0.0000000122     1.000000    0.00001890
  440      -16.4312009928      -0.0000000121     1.000000    0.00001886
  441      -16.4312010049      -0.0000000120     1.000000    0.00001881
  442      -16.4312010169      -0.0000000120     1.000000    0.00001877
  443      -16.4312010288      -0.0000000119     1.000000    0.00001872
  444      -16.4312010406      -0.0000000118     1.000000    0.00001868
  445      -16.4312010524      -0.0000000118     1.000000    0.00001863
  446      -16.4312010641      -0.0000000117     1.000000    0.00001859
  447      -16.4312010758      -0.0000000117     1.000000    0.00001855
  448      -16.4312010874      -0.0000000116     1.000000    0.00001850
  449      -16.4312010989      -0.0000000115     1.000000    0.00001846
  450      -16.4312011104      -0.0000000115     1.000000    0.00001842
  451      -16.4312011218      -0.0000000114     1.000000    0.00001837
  452      -16.4312011332      -0.0000000114     1.000000    0.00001833
  453      -16.4312011445      -0.0000000113     1.000000    0.00001829
  454      -16.4312011558      -0.0000000113     1.000000    0.00001825
  455      -16.4312011670      -0.0000000112     1.000000    0.00001820
  456      -16.4312011781      -0.0000000111     1.000000    0.00001816
  457      -16.4312011892      -0.0000000111     1.000000    0.00001812
  458      -16.4312012002      -0.0000000110     1.000000    0.00001808
  459      -16.4312012112      -0.0000000110     1.000000    0.00001804
  460      -16.4312012221      -0.0000000109     1.000000    0.00001800
  461      -16.4312012330      -0.0000000109     1.000000    0.00001796
  462      -16.4312012438      -0.0000000108     1.000000    0.00001792
  463      -16.4312012546      -0.0000000108     1.000000    0.00001788
  464      -16.4312012653      -0.0000000107     1.000000    0.00001784
  465      -16.4312012759      -0.0000000107     1.000000    0.00001780
  466      -16.4312012865      -0.0000000106     1.000000    0.00001777
  467      -16.4312012971      -0.0000000106     1.000000    0.00001773
  468      -16.4312013076      -0.0000000105     1.000000    0.00001769
  469      -16.4312013181      -0.0000000105     1.000000    0.00001765
  470      -16.4312013285      -0.0000000104     1.000000    0.00001761
  471      -16.4312013388      -0.0000000104     1.000000    0.00001758
  472      -16.4312013492      -0.0000000103     1.000000    0.00001754
  473      -16.4312013594      -0.0000000103     1.000000    0.00001750
  474      -16.4312013696      -0.0000000102     1.000000    0.00001747
  475      -16.4312013798      -0.0000000102     1.000000    0.00001743
  476      -16.4312013899      -0.0000000101     1.000000    0.00001739
  477      -16.4312014000      -0.0000000101     1.000000    0.00001736
  478      -16.4312014100      -0.0000000100     1.000000    0.00001732
  479      -16.4312014200      -0.0000000100     1.000000    0.00001729
  480      -16.4312014300      -0.0000000099     1.000000    0.00001725
  481      -16.4312014399      -0.0000000099     1.000000    0.00001722
  482      -16.4312014497      -0.0000000099     1.000000    0.00001718
  483      -16.4312014595      -0.0000000098     1.000000    0.00001715
  484      -16.4312014693      -0.0000000098     1.000000    0.00001712
  485      -16.4312014790      -0.0000000097     1.000000    0.00001708
  486      -16.4312014887      -0.0000000097     1.000000    0.00001705
  487      -16.4312014983      -0.0000000096     1.000000    0.00001701
  488      -16.4312015079      -0.0000000096     1.000000    0.00001698
  489      -16.4312015175      -0.0000000096     1.000000    0.00001695
  490      -16.4312015270      -0.0000000095     1.000000    0.00001692
  491      -16.4312015365      -0.0000000095     1.000000    0.00001688
  492      -16.4312015459      -0.0000000094     1.000000    0.00001685
  493      -16.4312015553      -0.0000000094     1.000000    0.00001682
  494      -16.4312015647      -0.0000000094     1.000000    0.00001679
  495      -16.4312015740      -0.0000000093     1.000000    0.00001675
  496      -16.4312015833      -0.0000000093     1.000000    0.00001672
  497      -16.4312015925      -0.0000000092     1.000000    0.00001669
  498      -16.4312016017      -0.0000000092     1.000000    0.00001666
  499      -16.4312016109      -0.0000000092     1.000000    0.00001663
  500      -16.4312016200      -0.0000000091     1.000000    0.00001660
  501      -16.4312016291      -0.0000000091     1.000000    0.00001657
  502      -16.4312016381      -0.0000000091     1.000000    0.00001654
  503      -16.4312016471      -0.0000000090     1.000000    0.00001651
  504      -16.4312016561      -0.0000000090     1.000000    0.00001648
  505      -16.4312016651      -0.0000000089     1.000000    0.00001645
  506      -16.4312016740      -0.0000000089     1.000000    0.00001642
  507      -16.4312016828      -0.0000000089     1.000000    0.00001639
  508      -16.4312016917      -0.0000000088     1.000000    0.00001636
  509      -16.4312017005      -0.0000000088     1.000000    0.00001633
  510      -16.4312017093      -0.0000000088     1.000000    0.00001631
  511      -16.4312017180      -0.0000000087     1.000000    0.00001628
  512      -16.4312017267      -0.0000000087     1.000000    0.00001625
  513      -16.4312017354      -0.0000000087     1.000000    0.00001622
  514      -16.4312017440      -0.0000000086     1.000000    0.00001619
  515      -16.4312017526      -0.0000000086     1.000000    0.00001617
  516      -16.4312017612      -0.0000000086     1.000000    0.00001614
  517      -16.4312017697      -0.0000000085     1.000000    0.00001611
  518      -16.4312017782      -0.0000000085     1.000000    0.00001608
  519      -16.4312017867      -0.0000000085     1.000000    0.00001606
  520      -16.4312017951      -0.0000000084     1.000000    0.00001603
  521      -16.4312018035      -0.0000000084     1.000000    0.00001600
  522      -16.4312018119      -0.0000000084     1.000000    0.00001598
  523      -16.4312018203      -0.0000000083     1.000000    0.00001595
  524      -16.4312018286      -0.0000000083     1.000000    0.00001592
  525      -16.4312018369      -0.0000000083     1.000000    0.00001590
  526      -16.4312018451      -0.0000000083     1.000000    0.00001587
  527      -16.4312018534      -0.0000000082     1.000000    0.00001585
  528      -16.4312018616      -0.0000000082     1.000000    0.00001582
  529      -16.4312018697      -0.0000000082     1.000000    0.00001580
  530      -16.4312018779      -0.0000000081     1.000000    0.00001577
  531      -16.4312018860      -0.0000000081     1.000000    0.00001575
  532      -16.4312018941      -0.0000000081     1.000000    0.00001572
  533      -16.4312019021      -0.0000000081     1.000000    0.00001570
  534      -16.4312019101      -0.0000000080     1.000000    0.00001567
  535      -16.4312019181      -0.0000000080     1.000000    0.00001565
  536      -16.4312019261      -0.0000000080     1.000000    0.00001563
  537      -16.4312019341      -0.0000000079     1.000000    0.00001560
  538      -16.4312019420      -0.0000000079     1.000000    0.00001558
  539      -16.4312019499      -0.0000000079     1.000000    0.00001556
  540      -16.4312019577      -0.0000000079     1.000000    0.00001553
  541      -16.4312019656      -0.0000000078     1.000000    0.00001551
  542      -16.4312019734      -0.0000000078     1.000000    0.00001549
  543      -16.4312019812      -0.0000000078     1.000000    0.00001546
  544      -16.4312019890      -0.0000000078     1.000000    0.00001544
  545      -16.4312019967      -0.0000000077     1.000000    0.00001542
  546      -16.4312020044      -0.0000000077     1.000000    0.00001540
  547      -16.4312020121      -0.0000000077     1.000000    0.00001538
  548      -16.4312020198      -0.0000000077     1.000000    0.00001535
  549      -16.4312020274      -0.0000000076     1.000000    0.00001533
  550      -16.4312020350      -0.0000000076     1.000000    0.00001531
  551      -16.4312020426      -0.0000000076     1.000000    0.00001529
  552      -16.4312020502      -0.0000000076     1.000000    0.00001527
  553      -16.4312020577      -0.0000000075     1.000000    0.00001525
  554      -16.4312020652      -0.0000000075     1.000000    0.00001522
  555      -16.4312020727      -0.0000000075     1.000000    0.00001520
  556      -16.4312020802      -0.0000000075     1.000000    0.00001518
  557      -16.4312020876      -0.0000000074     1.000000    0.00001516
  558      -16.4312020951      -0.0000000074     1.000000    0.00001514
  559      -16.4312021025      -0.0000000074     1.000000    0.00001512
  560      -16.4312021099      -0.0000000074     1.000000    0.00001510
  561      -16.4312021172      -0.0000000074     1.000000    0.00001508
  562      -16.4312021246      -0.0000000073     1.000000    0.00001506
  563      -16.4312021319      -0.0000000073     1.000000    0.00001504
  564      -16.4312021392      -0.0000000073     1.000000    0.00001502
  565      -16.4312021464      -0.0000000073     1.000000    0.00001500
  566      -16.4312021537      -0.0000000073     1.000000    0.00001498
  567      -16.4312021609      -0.0000000072     1.000000    0.00001497
  568      -16.4312021681      -0.0000000072     1.000000    0.00001495
  569      -16.4312021753      -0.0000000072     1.000000    0.00001493
  570      -16.4312021825      -0.0000000072     1.000000    0.00001491
  571      -16.4312021896      -0.0000000071     1.000000    0.00001489
  572      -16.4312021968      -0.0000000071     1.000000    0.00001487
  573      -16.4312022039      -0.0000000071     1.000000    0.00001485
  574      -16.4312022110      -0.0000000071     1.000000    0.00001484
  575      -16.4312022180      -0.0000000071     1.000000    0.00001482
  576      -16.4312022251      -0.0000000071     1.000000    0.00001480
  577      -16.4312022321      -0.0000000070     1.000000    0.00001478
  578      -16.4312022391      -0.0000000070     1.000000    0.00001476
  579      -16.4312022461      -0.0000000070     1.000000    0.00001475
  580      -16.4312022531      -0.0000000070     1.000000    0.00001473
  581      -16.4312022601      -0.0000000070     1.000000    0.00001471
  582      -16.4312022670      -0.0000000069     1.000000    0.00001470
  583      -16.4312022739      -0.0000000069     1.000000    0.00001468
  584      -16.4312022808      -0.0000000069     1.000000    0.00001466
  585      -16.4312022877      -0.0000000069     1.000000    0.00001465
  586      -16.4312022946      -0.0000000069     1.000000    0.00001463
  587      -16.4312023014      -0.0000000068     1.000000    0.00001461
  588      -16.4312023082      -0.0000000068     1.000000    0.00001460
  589      -16.4312023151      -0.0000000068     1.000000    0.00001458
  590      -16.4312023218      -0.0000000068     1.000000    0.00001456
  591      -16.4312023286      -0.0000000068     1.000000    0.00001455
  592      -16.4312023354      -0.0000000068     1.000000    0.00001453
  593      -16.4312023421      -0.0000000067     1.000000    0.00001452
  594      -16.4312023489      -0.0000000067     1.000000    0.00001450
  595      -16.4312023556      -0.0000000067     1.000000    0.00001449
  596      -16.4312023623      -0.0000000067     1.000000    0.00001447
  597      -16.4312023689      -0.0000000067     1.000000    0.00001446
  598      -16.4312023756      -0.0000000067     1.000000    0.00001444
  599      -16.4312023823      -0.0000000066     1.000000    0.00001443
  600      -16.4312023889      -0.0000000066     1.000000    0.00001441
  601      -16.4312023955      -0.0000000066     1.000000    0.00001440
  602      -16.4312024021      -0.0000000066     1.000000    0.00001438
  603      -16.4312024087      -0.0000000066     1.000000    0.00001437
  604      -16.4312024153      -0.0000000066     1.000000    0.00001435
  605      -16.4312024218      -0.0000000066     1.000000    0.00001434
  606      -16.4312024284      -0.0000000065     1.000000    0.00001433
  607      -16.4312024349      -0.0000000065     1.000000    0.00001431
  608      -16.4312024414      -0.0000000065     1.000000    0.00001430
  609      -16.4312024479      -0.0000000065     1.000000    0.00001428
  610      -16.4312024544      -0.0000000065     1.000000    0.00001427
  611      -16.4312024608      -0.0000000065     1.000000    0.00001426
  612      -16.4312024673      -0.0000000065     1.000000    0.00001424
  613      -16.4312024737      -0.0000000064     1.000000    0.00001423
  614      -16.4312024802      -0.0000000064     1.000000    0.00001422
  615      -16.4312024866      -0.0000000064     1.000000    0.00001420
  616      -16.4312024930      -0.0000000064     1.000000    0.00001419
  617      -16.4312024994      -0.0000000064     1.000000    0.00001418
  618      -16.4312025057      -0.0000000064     1.000000    0.00001417
  619      -16.4312025121      -0.0000000064     1.000000    0.00001415
  620      -16.4312025184      -0.0000000063     1.000000    0.00001414
  621      -16.4312025248      -0.0000000063     1.000000    0.00001413
  622      -16.4312025311      -0.0000000063     1.000000    0.00001412
  623      -16.4312025374      -0.0000000063     1.000000    0.00001410
  624      -16.4312025437      -0.0000000063     1.000000    0.00001409
  625      -16.4312025500      -0.0000000063     1.000000    0.00001408
  626      -16.4312025562      -0.0000000063     1.000000    0.00001407
  627      -16.4312025625      -0.0000000063     1.000000    0.00001406
  628      -16.4312025687      -0.0000000062     1.000000    0.00001405
  629      -16.4312025750      -0.0000000062     1.000000    0.00001403
  630      -16.4312025812      -0.0000000062     1.000000    0.00001402
  631      -16.4312025874      -0.0000000062     1.000000    0.00001401
  632      -16.4312025936      -0.0000000062     1.000000    0.00001400
  633      -16.4312025998      -0.0000000062     1.000000    0.00001399
  634      -16.4312026059      -0.0000000062     1.000000    0.00001398
  635      -16.4312026121      -0.0000000062     1.000000    0.00001397
  636      -16.4312026183      -0.0000000062     1.000000    0.00001396
  637      -16.4312026244      -0.0000000061     1.000000    0.00001395
  638      -16.4312026305      -0.0000000061     1.000000    0.00001394
  639      -16.4312026366      -0.0000000061     1.000000    0.00001393
  640      -16.4312026427      -0.0000000061     1.000000    0.00001392
  641      -16.4312026488      -0.0000000061     1.000000    0.00001391
  642      -16.4312026549      -0.0000000061     1.000000    0.00001390
  643      -16.4312026610      -0.0000000061     1.000000    0.00001389
  644      -16.4312026671      -0.0000000061     1.000000    0.00001388
  645      -16.4312026731      -0.0000000061     1.000000    0.00001387
  646      -16.4312026792      -0.0000000060     1.000000    0.00001386
  647      -16.4312026852      -0.0000000060     1.000000    0.00001385
  648      -16.4312026912      -0.0000000060     1.000000    0.00001384
  649      -16.4312026972      -0.0000000060     1.000000    0.00001383
  650      -16.4312027032      -0.0000000060     1.000000    0.00001382
  651      -16.4312027092      -0.0000000060     1.000000    0.00001381
  652      -16.4312027152      -0.0000000060     1.000000    0.00001380
  653      -16.4312027212      -0.0000000060     1.000000    0.00001379
  654      -16.4312027272      -0.0000000060     1.000000    0.00001378
  655      -16.4312027331      -0.0000000060     1.000000    0.00001377
  656      -16.4312027391      -0.0000000059     1.000000    0.00001377
  657      -16.4312027450      -0.0000000059     1.000000    0.00001376
  658      -16.4312027509      -0.0000000059     1.000000    0.00001375
  659      -16.4312027568      -0.0000000059     1.000000    0.00001374
  660      -16.4312027628      -0.0000000059     1.000000    0.00001373
  661      -16.4312027687      -0.0000000059     1.000000    0.00001372
  662      -16.4312027746      -0.0000000059     1.000000    0.00001372
  663      -16.4312027804      -0.0000000059     1.000000    0.00001371
  664      -16.4312027863      -0.0000000059     1.000000    0.00001370
  665      -16.4312027922      -0.0000000059     1.000000    0.00001369
  666      -16.4312027980      -0.0000000059     1.000000    0.00001369
  667      -16.4312028039      -0.0000000059     1.000000    0.00001368
  668      -16.4312028097      -0.0000000058     1.000000    0.00001367
  669      -16.4312028156      -0.0000000058     1.000000    0.00001366
  670      -16.4312028214      -0.0000000058     1.000000    0.00001366
  671      -16.4312028272      -0.0000000058     1.000000    0.00001365
  672      -16.4312028330      -0.0000000058     1.000000    0.00001364
  673      -16.4312028388      -0.0000000058     1.000000    0.00001363
  674      -16.4312028446      -0.0000000058     1.000000    0.00001363
  675      -16.4312028504      -0.0000000058     1.000000    0.00001362
  676      -16.4312028562      -0.0000000058     1.000000    0.00001361
  677      -16.4312028620      -0.0000000058     1.000000    0.00001361
  678      -16.4312028678      -0.0000000058     1.000000    0.00001360
  679      -16.4312028735      -0.0000000058     1.000000    0.00001359
  680      -16.4312028793      -0.0000000058     1.000000    0.00001359
  681      -16.4312028850      -0.0000000057     1.000000    0.00001358
  682      -16.4312028908      -0.0000000057     1.000000    0.00001358
  683      -16.4312028965      -0.0000000057     1.000000    0.00001357
  684      -16.4312029022      -0.0000000057     1.000000    0.00001356
  685      -16.4312029079      -0.0000000057     1.000000    0.00001356
  686      -16.4312029137      -0.0000000057     1.000000    0.00001355
  687      -16.4312029194      -0.0000000057     1.000000    0.00001355
  688      -16.4312029251      -0.0000000057     1.000000    0.00001354
  689      -16.4312029308      -0.0000000057     1.000000    0.00001354
  690      -16.4312029365      -0.0000000057     1.000000    0.00001353
  691      -16.4312029421      -0.0000000057     1.000000    0.00001352
  692      -16.4312029478      -0.0000000057     1.000000    0.00001352
  693      -16.4312029535      -0.0000000057     1.000000    0.00001351
  694      -16.4312029591      -0.0000000057     1.000000    0.00001351
  695      -16.4312029648      -0.0000000057     1.000000    0.00001350
  696      -16.4312029705      -0.0000000057     1.000000    0.00001350
  697      -16.4312029761      -0.0000000056     1.000000    0.00001350
  698      -16.4312029818      -0.0000000056     1.000000    0.00001349
  699      -16.4312029874      -0.0000000056     1.000000    0.00001349
  700      -16.4312029930      -0.0000000056     1.000000    0.00001348
  701      -16.4312029986      -0.0000000056     1.000000    0.00001348
  702      -16.4312030043      -0.0000000056     1.000000    0.00001347
  703      -16.4312030099      -0.0000000056     1.000000    0.00001347
  704      -16.4312030155      -0.0000000056     1.000000    0.00001346
  705      -16.4312030211      -0.0000000056     1.000000    0.00001346
  706      -16.4312030267      -0.0000000056     1.000000    0.00001346
  707      -16.4312030323      -0.0000000056     1.000000    0.00001345
  708      -16.4312030379      -0.0000000056     1.000000    0.00001345
  709      -16.4312030435      -0.0000000056     1.000000    0.00001344
  710      -16.4312030491      -0.0000000056     1.000000    0.00001344
  711      -16.4312030546      -0.0000000056     1.000000    0.00001344
  712      -16.4312030602      -0.0000000056     1.000000    0.00001343
  713      -16.4312030658      -0.0000000056     1.000000    0.00001343
  714      -16.4312030713      -0.0000000056     1.000000    0.00001343
  715      -16.4312030769      -0.0000000056     1.000000    0.00001342
  716      -16.4312030825      -0.0000000056     1.000000    0.00001342
  717      -16.4312030880      -0.0000000056     1.000000    0.00001342
  718      -16.4312030936      -0.0000000055     1.000000    0.00001342
  719      -16.4312030991      -0.0000000055     1.000000    0.00001341
  720      -16.4312031047      -0.0000000055     1.000000    0.00001341
  721      -16.4312031102      -0.0000000055     1.000000    0.00001341
  722      -16.4312031157      -0.0000000055     1.000000    0.00001340
  723      -16.4312031213      -0.0000000055     1.000000    0.00001340
  724      -16.4312031268      -0.0000000055     1.000000    0.00001340
  725      -16.4312031323      -0.0000000055     1.000000    0.00001340
  726      -16.4312031378      -0.0000000055     1.000000    0.00001339
  727      -16.4312031433      -0.0000000055     1.000000    0.00001339
  728      -16.4312031489      -0.0000000055     1.000000    0.00001339
  729      -16.4312031544      -0.0000000055     1.000000    0.00001339
  730      -16.4312031599      -0.0000000055     1.000000    0.00001339
  731      -16.4312031654      -0.0000000055     1.000000    0.00001338
  732      -16.4312031709      -0.0000000055     1.000000    0.00001338
  733      -16.4312031764      -0.0000000055     1.000000    0.00001338
  734      -16.4312031819      -0.0000000055     1.000000    0.00001338
  735      -16.4312031874      -0.0000000055     1.000000    0.00001338
  736      -16.4312031929      -0.0000000055     1.000000    0.00001338
  737      -16.4312031983      -0.0000000055     1.000000    0.00001338
  738      -16.4312032038      -0.0000000055     1.000000    0.00001337
  739      -16.4312032093      -0.0000000055     1.000000    0.00001337
  740      -16.4312032148      -0.0000000055     1.000000    0.00001337
  741      -16.4312032203      -0.0000000055     1.000000    0.00001337
  742      -16.4312032257      -0.0000000055     1.000000    0.00001337
  743      -16.4312032312      -0.0000000055     1.000000    0.00001337
  744      -16.4312032367      -0.0000000055     1.000000    0.00001337
  745      -16.4312032422      -0.0000000055     1.000000    0.00001337
  746      -16.4312032476      -0.0000000055     1.000000    0.00001337
  747      -16.4312032531      -0.0000000055     1.000000    0.00001337
  748      -16.4312032586      -0.0000000055     1.000000    0.00001337
  749      -16.4312032640      -0.0000000055     1.000000    0.00001337
  750      -16.4312032695      -0.0000000055     1.000000    0.00001337
  751      -16.4312032749      -0.0000000055     1.000000    0.00001337
  752      -16.4312032804      -0.0000000055     1.000000    0.00001337
  753      -16.4312032859      -0.0000000055     1.000000    0.00001337
  754      -16.4312032913      -0.0000000055     1.000000    0.00001337
  755      -16.4312032968      -0.0000000055     1.000000    0.00001337
  756      -16.4312033022      -0.0000000055     1.000000    0.00001337
  757      -16.4312033077      -0.0000000055     1.000000    0.00001337
  758      -16.4312033131      -0.0000000054     1.000000    0.00001337
  759      -16.4312033186      -0.0000000054     1.000000    0.00001337
  760      -16.4312033240      -0.0000000054     1.000000    0.00001337
  761      -16.4312033295      -0.0000000054     1.000000    0.00001337
  762      -16.4312033349      -0.0000000054     1.000000    0.00001337
  763      -16.4312033403      -0.0000000054     1.000000    0.00001337
  764      -16.4312033458      -0.0000000054     1.000000    0.00001337
  765      -16.4312033512      -0.0000000054     1.000000    0.00001337
  766      -16.4312033567      -0.0000000054     1.000000    0.00001337
  767      -16.4312033621      -0.0000000054     1.000000    0.00001337
  768      -16.4312033676      -0.0000000054     1.000000    0.00001337
  769      -16.4312033730      -0.0000000054     1.000000    0.00001338
  770      -16.4312033784      -0.0000000054     1.000000    0.00001338
  771      -16.4312033839      -0.0000000054     1.000000    0.00001338
  772      -16.4312033893      -0.0000000054     1.000000    0.00001338
  773      -16.4312033948      -0.0000000054     1.000000    0.00001338
  774      -16.4312034002      -0.0000000054     1.000000    0.00001338
  775      -16.4312034057      -0.0000000054     1.000000    0.00001339
  776      -16.4312034111      -0.0000000054     1.000000    0.00001339
  777      -16.4312034165      -0.0000000054     1.000000    0.00001339
  778      -16.4312034220      -0.0000000054     1.000000    0.00001339
  779      -16.4312034274      -0.0000000054     1.000000    0.00001339
  780      -16.4312034329      -0.0000000054     1.000000    0.00001340
  781      -16.4312034383      -0.0000000054     1.000000    0.00001340
  782      -16.4312034437      -0.0000000054     1.000000    0.00001340
  783      -16.4312034492      -0.0000000054     1.000000    0.00001340
  784      -16.4312034546      -0.0000000054     1.000000    0.00001341
  785      -16.4312034601      -0.0000000054     1.000000    0.00001341
  786      -16.4312034655      -0.0000000054     1.000000    0.00001341
  787      -16.4312034710      -0.0000000054     1.000000    0.00001341
  788      -16.4312034764      -0.0000000054     1.000000    0.00001342
  789      -16.4312034819      -0.0000000054     1.000000    0.00001342
  790      -16.4312034873      -0.0000000054     1.000000    0.00001342
  791      -16.4312034928      -0.0000000055     1.000000    0.00001342
  792      -16.4312034982      -0.0000000055     1.000000    0.00001343
  793      -16.4312035037      -0.0000000055     1.000000    0.00001343
  794      -16.4312035091      -0.0000000055     1.000000    0.00001343
  795      -16.4312035146      -0.0000000055     1.000000    0.00001344
  796      -16.4312035200      -0.0000000055     1.000000    0.00001344
  797      -16.4312035255      -0.0000000055     1.000000    0.00001344
  798      -16.4312035310      -0.0000000055     1.000000    0.00001345
  799      -16.4312035364      -0.0000000055     1.000000    0.00001345
  800      -16.4312035419      -0.0000000055     1.000000    0.00001346
  801      -16.4312035473      -0.0000000055     1.000000    0.00001346
  802      -16.4312035528      -0.0000000055     1.000000    0.00001346
  803      -16.4312035583      -0.0000000055     1.000000    0.00001347
  804      -16.4312035638      -0.0000000055     1.000000    0.00001347
  805      -16.4312035692      -0.0000000055     1.000000    0.00001348
  806      -16.4312035747      -0.0000000055     1.000000    0.00001348
  807      -16.4312035802      -0.0000000055     1.000000    0.00001348
  808      -16.4312035857      -0.0000000055     1.000000    0.00001349
  809      -16.4312035911      -0.0000000055     1.000000    0.00001349
  810      -16.4312035966      -0.0000000055     1.000000    0.00001350
  811      -16.4312036021      -0.0000000055     1.000000    0.00001350
  812      -16.4312036076      -0.0000000055     1.000000    0.00001351
  813      -16.4312036131      -0.0000000055     1.000000    0.00001351
  814      -16.4312036186      -0.0000000055     1.000000    0.00001352
  815      -16.4312036241      -0.0000000055     1.000000    0.00001352
  816      -16.4312036296      -0.0000000055     1.000000    0.00001353
  817      -16.4312036351      -0.0000000055     1.000000    0.00001353
  818      -16.4312036406      -0.0000000055     1.000000    0.00001354
  819      -16.4312036461      -0.0000000055     1.000000    0.00001354
  820      -16.4312036516      -0.0000000055     1.000000    0.00001355
  821      -16.4312036571      -0.0000000055     1.000000    0.00001355
  822      -16.4312036626      -0.0000000055     1.000000    0.00001356
  823      -16.4312036682      -0.0000000055     1.000000    0.00001357
  824      -16.4312036737      -0.0000000055     1.000000    0.00001357
  825      -16.4312036792      -0.0000000055     1.000000    0.00001358
  826      -16.4312036847      -0.0000000055     1.000000    0.00001358
  827      -16.4312036903      -0.0000000055     1.000000    0.00001359
  828      -16.4312036958      -0.0000000055     1.000000    0.00001360
  829      -16.4312037014      -0.0000000055     1.000000    0.00001360
  830      -16.4312037069      -0.0000000055     1.000000    0.00001361
  831      -16.4312037124      -0.0000000055     1.000000    0.00001361
  832      -16.4312037180      -0.0000000056     1.000000    0.00001362
  833      -16.4312037236      -0.0000000056     1.000000    0.00001363
  834      -16.4312037291      -0.0000000056     1.000000    0.00001363
  835      -16.4312037347      -0.0000000056     1.000000    0.00001364
  836      -16.4312037402      -0.0000000056     1.000000    0.00001365
  837      -16.4312037458      -0.0000000056     1.000000    0.00001365
  838      -16.4312037514      -0.0000000056     1.000000    0.00001366
  839      -16.4312037570      -0.0000000056     1.000000    0.00001367
  840      -16.4312037626      -0.0000000056     1.000000    0.00001368
  841      -16.4312037682      -0.0000000056     1.000000    0.00001368
  842      -16.4312037737      -0.0000000056     1.000000    0.00001369
  843      -16.4312037793      -0.0000000056     1.000000    0.00001370
  844      -16.4312037849      -0.0000000056     1.000000    0.00001370
  845      -16.4312037906      -0.0000000056     1.000000    0.00001371
  846      -16.4312037962      -0.0000000056     1.000000    0.00001372
  847      -16.4312038018      -0.0000000056     1.000000    0.00001373
  848      -16.4312038074      -0.0000000056     1.000000    0.00001373
  849      -16.4312038130      -0.0000000056     1.000000    0.00001374
  850      -16.4312038187      -0.0000000056     1.000000    0.00001375
  851      -16.4312038243      -0.0000000056     1.000000    0.00001376
  852      -16.4312038300      -0.0000000056     1.000000    0.00001377
  853      -16.4312038356      -0.0000000056     1.000000    0.00001377
  854      -16.4312038413      -0.0000000057     1.000000    0.00001378
  855      -16.4312038469      -0.0000000057     1.000000    0.00001379
  856      -16.4312038526      -0.0000000057     1.000000    0.00001380
  857      -16.4312038583      -0.0000000057     1.000000    0.00001381
  858      -16.4312038639      -0.0000000057     1.000000    0.00001382
  859      -16.4312038696      -0.0000000057     1.000000    0.00001383
  860      -16.4312038753      -0.0000000057     1.000000    0.00001383
  861      -16.4312038810      -0.0000000057     1.000000    0.00001384
  862      -16.4312038867      -0.0000000057     1.000000    0.00001385
  863      -16.4312038924      -0.0000000057     1.000000    0.00001386
  864      -16.4312038981      -0.0000000057     1.000000    0.00001387
  865      -16.4312039038      -0.0000000057     1.000000    0.00001388
  866      -16.4312039096      -0.0000000057     1.000000    0.00001389
  867      -16.4312039153      -0.0000000057     1.000000    0.00001390
  868      -16.4312039210      -0.0000000057     1.000000    0.00001391
  869      -16.4312039268      -0.0000000057     1.000000    0.00001392
  870      -16.4312039325      -0.0000000057     1.000000    0.00001393
  871      -16.4312039383      -0.0000000058     1.000000    0.00001394
  872      -16.4312039440      -0.0000000058     1.000000    0.00001395
  873      -16.4312039498      -0.0000000058     1.000000    0.00001396
  874      -16.4312039556      -0.0000000058     1.000000    0.00001397
  875      -16.4312039614      -0.0000000058     1.000000    0.00001398
  876      -16.4312039672      -0.0000000058     1.000000    0.00001399
  877      -16.4312039729      -0.0000000058     1.000000    0.00001400
  878      -16.4312039788      -0.0000000058     1.000000    0.00001401
  879      -16.4312039846      -0.0000000058     1.000000    0.00001402
  880      -16.4312039904      -0.0000000058     1.000000    0.00001403
  881      -16.4312039962      -0.0000000058     1.000000    0.00001404
  882      -16.4312040020      -0.0000000058     1.000000    0.00001405
  883      -16.4312040079      -0.0000000058     1.000000    0.00001406
  884      -16.4312040137      -0.0000000058     1.000000    0.00001407
  885      -16.4312040196      -0.0000000059     1.000000    0.00001408
  886      -16.4312040255      -0.0000000059     1.000000    0.00001409
  887      -16.4312040313      -0.0000000059     1.000000    0.00001410
  888      -16.4312040372      -0.0000000059     1.000000    0.00001412
  889      -16.4312040431      -0.0000000059     1.000000    0.00001413
  890      -16.4312040490      -0.0000000059     1.000000    0.00001414
  891      -16.4312040549      -0.0000000059     1.000000    0.00001415
  892      -16.4312040608      -0.0000000059     1.000000    0.00001416
  893      -16.4312040667      -0.0000000059     1.000000    0.00001417
  894      -16.4312040727      -0.0000000059     1.000000    0.00001418
  895      -16.4312040786      -0.0000000059     1.000000    0.00001420
  896      -16.4312040845      -0.0000000059     1.000000    0.00001421
  897      -16.4312040905      -0.0000000060     1.000000    0.00001422
  898      -16.4312040965      -0.0000000060     1.000000    0.00001423
  899      -16.4312041024      -0.0000000060     1.000000    0.00001424
  900      -16.4312041084      -0.0000000060     1.000000    0.00001426
  901      -16.4312041144      -0.0000000060     1.000000    0.00001427
  902      -16.4312041204      -0.0000000060     1.000000    0.00001428
  903      -16.4312041264      -0.0000000060     1.000000    0.00001429
  904      -16.4312041324      -0.0000000060     1.000000    0.00001431
  905      -16.4312041384      -0.0000000060     1.000000    0.00001432
  906      -16.4312041445      -0.0000000060     1.000000    0.00001433
  907      -16.4312041505      -0.0000000060     1.000000    0.00001435
  908      -16.4312041566      -0.0000000061     1.000000    0.00001436
  909      -16.4312041626      -0.0000000061     1.000000    0.00001437
  910      -16.4312041687      -0.0000000061     1.000000    0.00001439
  911      -16.4312041748      -0.0000000061     1.000000    0.00001440
  912      -16.4312041809      -0.0000000061     1.000000    0.00001441
  913      -16.4312041870      -0.0000000061     1.000000    0.00001443
  914      -16.4312041931      -0.0000000061     1.000000    0.00001444
  915      -16.4312041992      -0.0000000061     1.000000    0.00001445
  916      -16.4312042054      -0.0000000061     1.000000    0.00001447
  917      -16.4312042115      -0.0000000061     1.000000    0.00001448
  918      -16.4312042177      -0.0000000062     1.000000    0.00001450
  919      -16.4312042238      -0.0000000062     1.000000    0.00001451
  920      -16.4312042300      -0.0000000062     1.000000    0.00001452
  921      -16.4312042362      -0.0000000062     1.000000    0.00001454
  922      -16.4312042424      -0.0000000062     1.000000    0.00001455
  923      -16.4312042486      -0.0000000062     1.000000    0.00001457
  924      -16.4312042548      -0.0000000062     1.000000    0.00001458
  925      -16.4312042611      -0.0000000062     1.000000    0.00001460
  926      -16.4312042673      -0.0000000062     1.000000    0.00001461
  927      -16.4312042735      -0.0000000063     1.000000    0.00001463
  928      -16.4312042798      -0.0000000063     1.000000    0.00001464
  929      -16.4312042861      -0.0000000063     1.000000    0.00001466
  930      -16.4312042924      -0.0000000063     1.000000    0.00001467
  931      -16.4312042987      -0.0000000063     1.000000    0.00001469
  932      -16.4312043050      -0.0000000063     1.000000    0.00001470
  933      -16.4312043113      -0.0000000063     1.000000    0.00001472
  934      -16.4312043176      -0.0000000063     1.000000    0.00001473
  935      -16.4312043240      -0.0000000063     1.000000    0.00001475
  936      -16.4312043303      -0.0000000064     1.000000    0.00001476
  937      -16.4312043367      -0.0000000064     1.000000    0.00001478
  938      -16.4312043431      -0.0000000064     1.000000    0.00001480
  939      -16.4312043495      -0.0000000064     1.000000    0.00001481
  940      -16.4312043559      -0.0000000064     1.000000    0.00001483
  941      -16.4312043623      -0.0000000064     1.000000    0.00001485
  942      -16.4312043687      -0.0000000064     1.000000    0.00001486
  943      -16.4312043752      -0.0000000064     1.000000    0.00001488
  944      -16.4312043816      -0.0000000065     1.000000    0.00001489
  945      -16.4312043881      -0.0000000065     1.000000    0.00001491
  946      -16.4312043946      -0.0000000065     1.000000    0.00001493
  947      -16.4312044011      -0.0000000065     1.000000    0.00001495
  948      -16.4312044076      -0.0000000065     1.000000    0.00001496
  949      -16.4312044141      -0.0000000065     1.000000    0.00001498
  950      -16.4312044206      -0.0000000065     1.000000    0.00001500
  951      -16.4312044272      -0.0000000065     1.000000    0.00001501
  952      -16.4312044337      -0.0000000066     1.000000    0.00001503
  953      -16.4312044403      -0.0000000066     1.000000    0.00001505
  954      -16.4312044469      -0.0000000066     1.000000    0.00001507
  955      -16.4312044535      -0.0000000066     1.000000    0.00001508
  956      -16.4312044601      -0.0000000066     1.000000    0.00001510
  957      -16.4312044668      -0.0000000066     1.000000    0.00001512
  958      -16.4312044734      -0.0000000066     1.000000    0.00001514
  959      -16.4312044801      -0.0000000067     1.000000    0.00001516
  960      -16.4312044867      -0.0000000067     1.000000    0.00001518
  961      -16.4312044934      -0.0000000067     1.000000    0.00001519
  962      -16.4312045001      -0.0000000067     1.000000    0.00001521
  963      -16.4312045069      -0.0000000067     1.000000    0.00001523
  964      -16.4312045136      -0.0000000067     1.000000    0.00001525
  965      -16.4312045203      -0.0000000067     1.000000    0.00001527
  966      -16.4312045271      -0.0000000068     1.000000    0.00001529
  967      -16.4312045339      -0.0000000068     1.000000    0.00001531
  968      -16.4312045407      -0.0000000068     1.000000    0.00001533
  969      -16.4312045475      -0.0000000068     1.000000    0.00001534
  970      -16.4312045543      -0.0000000068     1.000000    0.00001536
  971      -16.4312045612      -0.0000000068     1.000000    0.00001538
  972      -16.4312045680      -0.0000000069     1.000000    0.00001540
  973      -16.4312045749      -0.0000000069     1.000000    0.00001542
  974      -16.4312045818      -0.0000000069     1.000000    0.00001544
  975      -16.4312045887      -0.0000000069     1.000000    0.00001546
  976      -16.4312045956      -0.0000000069     1.000000    0.00001548
  977      -16.4312046025      -0.0000000069     1.000000    0.00001550
  978      -16.4312046095      -0.0000000070     1.000000    0.00001552
  979      -16.4312046165      -0.0000000070     1.000000    0.00001554
  980      -16.4312046235      -0.0000000070     1.000000    0.00001556
  981      -16.4312046305      -0.0000000070     1.000000    0.00001559
  982      -16.4312046375      -0.0000000070     1.000000    0.00001561
  983      -16.4312046445      -0.0000000070     1.000000    0.00001563
  984      -16.4312046516      -0.0000000071     1.000000    0.00001565
  985      -16.4312046586      -0.0000000071     1.000000    0.00001567
  986      -16.4312046657      -0.0000000071     1.000000    0.00001569
  987      -16.4312046728      -0.0000000071     1.000000    0.00001571
  988      -16.4312046800      -0.0000000071     1.000000    0.00001573
  989      -16.4312046871      -0.0000000071     1.000000    0.00001576
  990      -16.4312046943      -0.0000000072     1.000000    0.00001578
  991      -16.4312047014      -0.0000000072     1.000000    0.00001580
  992      -16.4312047086      -0.0000000072     1.000000    0.00001582
  993      -16.4312047159      -0.0000000072     1.000000    0.00001584
  994      -16.4312047231      -0.0000000072     1.000000    0.00001587
  995      -16.4312047303      -0.0000000073     1.000000    0.00001589
  996      -16.4312047376      -0.0000000073     1.000000    0.00001591
  997      -16.4312047449      -0.0000000073     1.000000    0.00001593
  998      -16.4312047522      -0.0000000073     1.000000    0.00001596
  999      -16.4312047595      -0.0000000073     1.000000    0.00001598
 1000      -16.4312047669      -0.0000000073     1.000000    0.00001600

Total Energy:                      -16.4312047669 H         -447.1158 eV
Extrapolated to 0:                 -16.3851263035 H         -445.8620 eV

----------------------------------------------------------------------------------
 Solving CP-REKS equation for  1 state vector...
----------------------------------------------------------------------------------
  CG solver: Constructing Y initial guess
  CG solver: Iteration    1    eps =    0.048487805080
  CG solver: Iteration    2    eps =    0.007513736489
  CG solver: Iteration    3    eps =    0.001858426990
  CG solver: Iteration    4    eps =    0.001421088130
  CG solver: Iteration    5    eps =    0.001213755536
  CG solver: Iteration    6    eps =    0.004825934338
  CG solver: Iteration    7    eps =    0.206303356460
  CG solver: Iteration    8    eps =    0.507859745369
  CG solver: Iteration    9    eps =    0.020199479399
  CG solver: Iteration   10    eps =    0.006210992770
  CG solver: Iteration   11    eps =    0.001112166809
  CG solver: Iteration   12    eps =    0.000179245171
  CG solver: Iteration   13    eps =    0.000035705163
  CG solver: Iteration   14    eps =    0.000006367180
  CG solver: Iteration   15    eps =    0.000000686315
  CG solver: Iteration   16    eps =    0.000000047468
  CG solver: Iteration   17    eps =    0.000000003404
  Convergence reached in CG solver after   17 iterations
  CG solver: Calculating converged R, Z, Q2 matrix
----------------------------------------------------------------------------------

----------------------------------------------------------------------------------
 Solving CP-REKS equation for SI between  1 and  2 state vectors...
----------------------------------------------------------------------------------
  CG solver: Constructing Y initial guess
  CG solver: Iteration    1    eps =    0.023268725088
  CG solver: Iteration    2    eps =    0.000854120804
  CG solver: Iteration    3    eps =    0.000169894317
  CG solver: Iteration    4    eps =    0.000128646647
  CG solver: Iteration    5    eps =    0.000035621038
  CG solver: Iteration    6    eps =    0.000025707541
  CG solver: Iteration    7    eps =    0.000077109030
  CG solver: Iteration    8    eps =    0.000371757016
  CG solver: Iteration    9    eps =    0.042364777783
  CG solver: Iteration   10    eps =    0.000204707660
  CG solver: Iteration   11    eps =    0.000045361683
  CG solver: Iteration   12    eps =    0.000007762083
  CG solver: Iteration   13    eps =    0.000000993460
  CG solver: Iteration   14    eps =    0.000000106709
  CG solver: Iteration   15    eps =    0.000000004549
  Convergence reached in CG solver after   15 iterations
  CG solver: Calculating converged R, Z, Q2 matrix
----------------------------------------------------------------------------------

--------------------------------------------------
 Gradient Information
--------------------------------------------------
           1 st state (SSR)
     0.00000000     0.00000000     0.00000000
     0.00000000     0.00000000     0.00000000
     0.00000000     0.00000000     0.00000000
     0.00000000     0.00000000     0.00000000
     0.00000000     0.00000000     0.00000000
     0.00000000     0.00000000     0.00000000
     0.00000000     0.00000000     0.00000000
     0.00000000     0.00000000     0.00000000
     0.00000000     0.00000000     0.00000000
     0.00000000     0.00000000     0.00000000
     0.00000000     0.00000000     0.00000000
     0.00000000     0.00000000     0.00000000
     0.00000000     0.00000000     0.00000000
     0.00000000     0.00000000     0.00000000

           2 st state (SSR)
     0.00000000     0.00000000     0.00000000
     0.00000000     0.00000000     0.00000000
     0.00000000     0.00000000     0.00000000
     0.00000000     0.00000000     0.00000000
     0.00000000     0.00000000     0.00000000
     0.00000000     0.00000000     0.00000000
     0.00000000     0.00000000     0.00000000
     0.00000000     0.00000000     0.00000000
     0.00000000     0.00000000     0.00000000
     0.00000000     0.00000000     0.00000000
     0.00000000     0.00000000     0.00000000
     0.00000000     0.00000000     0.00000000
     0.00000000     0.00000000     0.00000000
     0.00000000     0.00000000     0.00000000
--------------------------------------------------
 Coupling Information
--------------------------------------------------
 between  1 and  2 states
--------------------------------------------------
 g vector - difference gradient
     0.76122550     0.82104218     0.05844452
    -0.62000183    -0.79522313    -0.51559478
     0.01376036    -0.07281649    -0.07068127
    -0.09026858     0.00511659     0.02298308
    -0.02285831    -0.00934377     0.01370738
     0.58598682     0.66365968     0.83067805
    -1.06096049    -0.67888445    -0.21211451
    -0.04073444     0.02858077    -0.01736533
     0.10813898    -0.16746800     0.05284547
     0.48529607     0.24827468    -0.12694484
    -0.05964303     0.04655440     0.03944493
    -0.14221744    -0.05331421    -0.08713377
     0.02759640    -0.06323876     0.00312516
     0.05467999     0.02706050     0.00860591

 h vector - derivative coupling
     0.07727563     0.13634658     0.02338761
    -0.07148941    -0.13703000    -0.11155102
     0.00191586    -0.00716297    -0.00995669
    -0.02004688     0.00017206     0.01746821
     0.01048050     0.00268854     0.00268867
     0.06463254     0.05561883     0.14156366
    -0.08394793    -0.06780854    -0.12746612
     0.00214478     0.00669263    -0.00647644
     0.01520916    -0.01292565     0.03008373
    -0.01155375     0.02365618     0.04074251
    -0.00788822     0.00143058    -0.00100944
     0.01909073    -0.00194396     0.00408604
     0.00133301    -0.00275791     0.00069459
     0.00284398     0.00302364    -0.00425530

 G vector - GDV
     0.00000000     0.00000000     0.00000000
     0.00000000     0.00000000     0.00000000
     0.00000000     0.00000000     0.00000000
     0.00000000     0.00000000     0.00000000
     0.00000000     0.00000000     0.00000000
     0.00000000     0.00000000     0.00000000
     0.00000000     0.00000000     0.00000000
     0.00000000     0.00000000     0.00000000
     0.00000000     0.00000000     0.00000000
     0.00000000     0.00000000     0.00000000
     0.00000000     0.00000000     0.00000000
     0.00000000     0.00000000     0.00000000
     0.00000000     0.00000000     0.00000000
     0.00000000     0.00000000     0.00000000

 H vector - DCV - non-adiabatic coupling
     0.00000000     0.00000000     0.00000000
     0.00000000     0.00000000     0.00000000
     0.00000000     0.00000000     0.00000000
     0.00000000     0.00000000     0.00000000
     0.00000000     0.00000000     0.00000000
     0.00000000     0.00000000     0.00000000
     0.00000000     0.00000000     0.00000000
     0.00000000     0.00000000     0.00000000
     0.00000000     0.00000000     0.00000000
     0.00000000     0.00000000     0.00000000
     0.00000000     0.00000000     0.00000000
     0.00000000     0.00000000     0.00000000
     0.00000000     0.00000000     0.00000000
     0.00000000     0.00000000     0.00000000
--------------------------------------------------

WARNING!
-> SCC is NOT converged, maximal SCC iterations exceeded

--------------------------------------------------------------------------------
DFTB+ running times                          cpu [s]             wall clock [s]
--------------------------------------------------------------------------------
SCC                                    +     1.51  ( 79.2%)      1.52  ( 79.0%)
      Sparse to dense                        0.07  (  3.6%)      0.06  (  3.2%)
      Dense to sparse                        0.24  ( 12.7%)      0.25  ( 12.8%)
      Range separated Hamiltonian            0.12  (  6.5%)      0.14  (  7.2%)
  Density matrix creation                    0.15  (  7.9%)      0.15  (  7.7%)
  Force calculation                          0.39  ( 20.7%)      0.40  ( 20.6%)
--------------------------------------------------------------------------------
Missing                                +     0.40  ( 20.8%)      0.40  ( 21.0%)
Total                                  =     1.91  (100.0%)      1.92  (100.0%)
--------------------------------------------------------------------------------
