    14
  Step:     0            Position(A)                                  Velocity(au)
C        -6.03117680    -0.92238393    -0.10187287    -0.00013091     0.00017122    -0.00023756
C        -4.66668213    -0.68552126     0.09690773     0.00033963     0.00013624     0.00007104
H        -6.66354101    -0.09824965    -0.44176208    -0.00003008    -0.00053614     0.00097846
H        -6.57351420    -1.82794491     0.10578556     0.00012438     0.00130485     0.00068828
H        -4.05011044    -1.53197245     0.39715504     0.00034678    -0.00036654     0.00027756
C        -3.96485319     0.57682543    -0.06755290    -0.00015442    -0.00029081     0.00000436
C        -2.63454859     0.56888745     0.22167172    -0.00018646    -0.00010613     0.00007722
H        -4.43447503     1.48439520    -0.37510159    -0.00011233    -0.00078559    -0.00059765
H        -2.07640301    -0.37759400     0.41321427    -0.00003804    -0.00186786    -0.00007498
C        -1.79745996     1.71435538     0.01349230     0.00057865     0.00015814     0.00009575
H        -2.28490826     2.64956634    -0.20674640    -0.00035074    -0.00025060    -0.00025199
N        -0.47234614     1.72872969     0.21186303    -0.00032733     0.00014796     0.00000595
H         0.11760689     2.54520560    -0.08137145    -0.00037430     0.00022159    -0.00021683
H         0.08964664     0.85359329     0.32037855    -0.00033736    -0.00059397    -0.00101439
    14
  Step:     1            Position(A)                                  Velocity(au)
C        -6.03257020    -0.92035749    -0.10448171    -0.00011850     0.00019957    -0.00023799
C        -4.66304541    -0.68404064     0.09765699     0.00032257     0.00013135     0.00006586
H        -6.66384229    -0.10418498    -0.43113337    -0.00004388    -0.00051680     0.00094989
H        -6.57187015    -1.81441364     0.11347123     0.00015904     0.00113453     0.00072242
H        -4.04616232    -1.53602892     0.40031569     0.00036407    -0.00035969     0.00029599
C        -3.96689043     0.57345130    -0.06750309    -0.00021646    -0.00032487     0.00000460
C        -2.63606294     0.56774451     0.22250397    -0.00008711    -0.00010447     0.00007537
H        -4.43646165     1.47644848    -0.38186899    -0.00025417    -0.00065931    -0.00064156
H        -2.07768670    -0.39746663     0.41264211    -0.00021400    -0.00172174    -0.00003697
C        -1.79131023     1.71604907     0.01456819     0.00053769     0.00014948     0.00010026
H        -2.28868274     2.64737502    -0.20972365    -0.00033209    -0.00015349    -0.00028949
N        -0.47564326     1.73034483     0.21191505    -0.00027074     0.00014616     0.00000409
H         0.11229396     2.54642089    -0.08323065    -0.00059192     0.00000274    -0.00012296
H         0.08484046     0.84825782     0.30918389    -0.00054615    -0.00036563    -0.00103086
    14
  Step:     2            Position(A)                                  Velocity(au)
C        -6.03376913    -0.91801805    -0.10707936    -0.00009596     0.00022771    -0.00023553
C        -4.65962532    -0.68264781     0.09834854     0.00030035     0.00012044     0.00006051
H        -6.66450092    -0.10955563    -0.42098144    -0.00009565    -0.00043324     0.00089209
H        -6.57003483    -1.80312499     0.12158981     0.00016295     0.00090258     0.00076630
H        -4.04214573    -1.53984145     0.40363042     0.00035953    -0.00032257     0.00030577
C        -3.96958864     0.56971818    -0.06745219    -0.00027544    -0.00035589     0.00000439
C        -2.63645436     0.56660199     0.22332069     0.00001791    -0.00010512     0.00007421
H        -4.44003540     1.46997147    -0.38913699    -0.00039818    -0.00052477    -0.00068666
H        -2.08108460    -0.41526028     0.41240545    -0.00041688    -0.00149798    -0.00001186
C        -1.78569704     1.71762561     0.01568571     0.00048112     0.00013690     0.00010343
H        -2.29217344     2.64620835    -0.21307954    -0.00029809    -0.00006629    -0.00032057
N        -0.47826919     1.73192718     0.21195255    -0.00020643     0.00014201     0.00000336
H         0.10465745     2.54526558    -0.08406153    -0.00078953    -0.00019942    -0.00003312
H         0.07769864     0.84559443     0.29782661    -0.00075525    -0.00011834    -0.00104227
    14
  Step:     3            Position(A)                                  Velocity(au)
C        -6.03466961    -0.91537596    -0.10963427    -0.00006512     0.00025413    -0.00023022
C        -4.65647465    -0.68140568     0.09898074     0.00027387     0.00010438     0.00005500
H        -6.66593484    -0.11366296    -0.41161718    -0.00018330    -0.00028971     0.00080803
H        -6.56830524    -1.79466800     0.13023550     0.00014548     0.00062823     0.00081638
H        -4.03829686    -1.54308575     0.40700508     0.00033436    -0.00025757     0.00030736
C        -3.97291627     0.56566561    -0.06740710    -0.00033212    -0.00038297     0.00000333
C        -2.63567123     0.56544492     0.22412741     0.00012706    -0.00010614     0.00007346
H        -4.44517269     1.46496813    -0.39689098    -0.00053575    -0.00039756    -0.00072790
H        -2.08680682    -0.43023783     0.41238264    -0.00063180    -0.00121666     0.00000352
C        -1.78078471     1.71904398     0.01683091     0.00041050     0.00012059     0.00010548
H        -2.29520412     2.64592471    -0.21673679    -0.00024787     0.00000597    -0.00034415
N        -0.48015933     1.73345166     0.21198866    -0.00013830     0.00013567     0.00000387
H         0.09502144     2.54205812    -0.08395519    -0.00094839    -0.00036051     0.00004424
H         0.06831802     0.84566883     0.28638224    -0.00094642     0.00012178    -0.00104532
    14
  Step:     4            Position(A)                                  Velocity(au)
C        -6.03519366    -0.91245856    -0.11211591    -0.00002894     0.00027736    -0.00022225
C        -4.65363392    -0.68036424     0.09955180     0.00024463     0.00008477     0.00004930
H        -6.66851100    -0.11589359    -0.40330417    -0.00029937    -0.00009774     0.00070327
H        -6.56685215    -1.78938127     0.13944961     0.00011940     0.00033657     0.00086685
H        -4.03483098    -1.54547635     0.41035459     0.00029103    -0.00016914     0.00030187
C        -3.97685435     0.56134006    -0.06737930    -0.00038820    -0.00040592     0.00000101
C        -2.63367474     0.56427987     0.22492776     0.00023976    -0.00010547     0.00007305
H        -4.45175589     1.46127414    -0.40506124    -0.00065886    -0.00029185    -0.00076068
H        -2.09490646    -0.44187699     0.41248241    -0.00084492    -0.00089706     0.00001157
C        -1.77671659     1.72026371     0.01799332     0.00032807     0.00010038     0.00010685
H        -2.29759597     2.64633904    -0.22060857    -0.00018188     0.00006040    -0.00035959
N        -0.48129473     1.73489527     0.21203721    -0.00007071     0.00012740     0.00000562
H         0.08390955     2.53737884    -0.08309371    -0.00105148    -0.00045785     0.00010122
H         0.05699399     0.84825865     0.27495814    -0.00110198     0.00032858    -0.00103753
    14
  Step:     5            Position(A)                                  Velocity(au)
C        -6.03530273    -0.90930822    -0.11449632     0.00000837     0.00029621    -0.00021193
C        -4.65112282    -0.67955116     0.10005930     0.00021509     0.00006412     0.00004334
H        -6.67248405    -0.11580113    -0.39623182    -0.00043121     0.00012447     0.00058542
H        -6.56569323    -1.78730495     0.14919952     0.00009859     0.00005492     0.00091056
H        -4.03193013    -1.54678605     0.41360899     0.00023298    -0.00006322     0.00029086
C        -3.98140889     0.55678542    -0.06738501    -0.00044647    -0.00042551    -0.00000299
C        -2.63042609     0.56313763     0.22572544     0.00035649    -0.00010078     0.00007306
H        -4.45958658     1.45858346    -0.41353234    -0.00076119    -0.00021863    -0.00078156
H        -2.10529100    -0.44986273     0.41263584    -0.00104336    -0.00055791     0.00001414
C        -1.77360750     1.72124000     0.01916843     0.00023670     0.00007570     0.00010816
H        -2.29918315     2.64724609    -0.22460344    -0.00010197     0.00009612    -0.00036665
N        -0.48170625     1.73623889     0.21211162    -0.00000820     0.00011768     0.00000850
H         0.07201833     2.53204181    -0.08174072    -0.00108516    -0.00047272     0.00013139
H         0.04421005     0.85285708     0.26368418    -0.00120575     0.00047700    -0.00101723
    14
  Step:     6            Position(A)                                  Velocity(au)
C        -6.03501058    -0.90597834    -0.11675232     0.00004173     0.00030992    -0.00019983
C        -4.64892835    -0.67896144     0.10050004     0.00018854     0.00004554     0.00003710
H        -6.67794447    -0.11317054    -0.39049699    -0.00056252     0.00035430     0.00046315
H        -6.56469532    -1.78817974     0.15936986     0.00009544    -0.00019138     0.00094033
H        -4.02973413    -1.54685944     0.41671779     0.00016441     0.00005314     0.00027626
C        -3.98662181     0.55203127    -0.06744461    -0.00050979    -0.00044321    -0.00000888
C        -2.62587582     0.56207518     0.22652615     0.00047774    -0.00008991     0.00007359
H        -4.46840842     1.45649129    -0.42215925    -0.00083870    -0.00018470    -0.00078850
H        -2.11773194    -0.45408244     0.41279173    -0.00121493    -0.00021795     0.00001313
C        -1.77153828     1.72191981     0.02035942     0.00013969     0.00004596     0.00011007
H        -2.29982683     2.64844191    -0.22862965    -0.00001122     0.00011397    -0.00036541
N        -0.48147423     1.73746985     0.21222310     0.00004512     0.00010727     0.00001224
H         0.06016957     2.52703715    -0.08021935    -0.00104175    -0.00039383     0.00013088
H         0.03061600     0.85869386     0.25270438    -0.00124437     0.00054525    -0.00098368
    14
  Step:     7            Position(A)                                  Velocity(au)
C        -6.03438975    -0.90252819    -0.11886795     0.00006639     0.00031825    -0.00018657
C        -4.64699818    -0.67855499     0.10087099     0.00016769     0.00003127     0.00003066
H        -6.68479016    -0.10805023    -0.38609955    -0.00067587     0.00056821     0.00034485
H        -6.56360529    -1.79149168     0.16977107     0.00011865    -0.00038269     0.00095026
H        -4.02833330    -1.54562348     0.41965264     0.00009017     0.00017202     0.00026021
C        -3.99256148     0.54708931    -0.06757926    -0.00057818    -0.00045979    -0.00001645
C        -2.61997459     0.56117073     0.22733542     0.00060111    -0.00007180     0.00007424
H        -4.47793474     1.45454270    -0.43078236    -0.00088997    -0.00019257    -0.00078044
H        -2.13186992    -0.45463077     0.41292298    -0.00134792     0.00010338     0.00001180
C        -1.77055143     1.72224546     0.02157645     0.00004067     0.00001156     0.00011299
H        -2.29942857     2.64973936    -0.23259740     0.00008620     0.00011585    -0.00035611
N        -0.48071919     1.73858562     0.21237942     0.00008659     0.00009721     0.00001657
H         0.04922798     2.52342601    -0.07887744    -0.00092234    -0.00022152     0.00009949
H         0.01698703     0.86478546     0.24216434    -0.00120948     0.00051836    -0.00093766
    14
  Step:     8            Position(A)                                  Velocity(au)
C        -6.03355808    -0.89901612    -0.12083391     0.00007974     0.00032164    -0.00017259
C        -4.64525973    -0.67827728     0.10117081     0.00015257     0.00002111     0.00002419
H        -6.69273044    -0.10073995    -0.38295264    -0.00075569     0.00074556     0.00023747
H        -6.56209960    -1.79655173     0.18015868     0.00017215    -0.00050735     0.00093633
H        -4.02776144    -1.54309623     0.42241039     0.00001559     0.00028497     0.00024516
C        -3.99927068     0.54197246    -0.06780450    -0.00064670    -0.00047383    -0.00002499
C        -2.61272528     0.56050438     0.22815040     0.00071947    -0.00004715     0.00007390
H        -4.48787824     1.45227853    -0.43923288    -0.00091615    -0.00024075    -0.00075667
H        -2.14722033    -0.45182082     0.41304996    -0.00143134     0.00038558     0.00001554
C        -1.77064850     1.72217277     0.02283128    -0.00005667    -0.00002542     0.00011678
H        -2.29794098     2.65097624    -0.23642016     0.00018531     0.00010425    -0.00033922
N        -0.47957996     1.73959640     0.21258566     0.00011575     0.00008871     0.00002128
H         0.03999157     2.52219091    -0.07804291    -0.00073852     0.00002905     0.00004141
H         0.00415639     0.87003391     0.23219136    -0.00109992     0.00039250    -0.00088185
    14
  Step:     9            Position(A)                                  Velocity(au)
C        -6.03264537    -0.89549174    -0.12264358     0.00008188     0.00032109    -0.00015796
C        -4.64366050    -0.67809307     0.10140019     0.00014031     0.00001269     0.00001781
H        -6.70132239    -0.09173962    -0.38090435    -0.00079078     0.00087152     0.00014573
H        -6.55983912    -1.80259092     0.19025512     0.00025521    -0.00056197     0.00089650
H        -4.02799226    -1.53938925     0.42501605    -0.00005395     0.00038376     0.00023373
C        -4.00670922     0.53672342    -0.06812586    -0.00070765    -0.00048232    -0.00003365
C        -2.60423474     0.56013927     0.22895209     0.00082360    -0.00001747     0.00007115
H        -4.49797728     1.44927588    -0.44733604    -0.00092043    -0.00032441    -0.00071733
H        -2.16318328    -0.44619558     0.41326297    -0.00145539     0.00060735     0.00003070
C        -1.77179110     1.72168945     0.02413116    -0.00014888    -0.00006209     0.00012099
H        -2.29537457     2.65201993    -0.24001844     0.00028074     0.00008214    -0.00031566
N        -0.47818698     1.74052636     0.21284494     0.00013417     0.00008299     0.00002608
H         0.03307145     2.52406145    -0.07797144    -0.00051170     0.00032798    -0.00003432
H        -0.00707580     0.87337224     0.22287221    -0.00092336     0.00017844    -0.00082031
    14
  Step:    10            Position(A)                                  Velocity(au)
C        -6.03176688    -0.89199167    -0.12428962     0.00007448     0.00031774    -0.00014262
C        -4.64219018    -0.67799966     0.10156052     0.00012734     0.00000340     0.00001155
H        -6.71003017    -0.08167386    -0.37976457    -0.00077562     0.00093834     0.00007188
H        -6.55651636    -1.80884596     0.19977130     0.00036339    -0.00054995     0.00083074
H        -4.02894171    -1.53470070     0.42752366    -0.00011347     0.00046103     0.00022843
C        -4.01475190     0.53142089    -0.06854071    -0.00075489    -0.00048257    -0.00004191
C        -2.59470741     0.56012219     0.22970700     0.00090649     0.00001619     0.00006501
H        -4.50801430     1.44518146    -0.45492592    -0.00090729    -0.00043614    -0.00066405
H        -2.17905984    -0.43853395     0.41372148    -0.00141240     0.00074803     0.00006290
C        -1.77390562     1.72081440     0.02547815    -0.00023304    -0.00009612     0.00012526
H        -2.29179926     2.65277326    -0.24332583     0.00036719     0.00005306    -0.00028682
N        -0.47664470     1.74141192     0.21315614     0.00014459     0.00008089     0.00003040
H         0.02879726     2.52936620    -0.07879366    -0.00026947     0.00063518    -0.00011472
H        -0.01604394     0.87393767     0.21424541    -0.00069623    -0.00009750    -0.00075704
    14
  Step:    11            Position(A)                                  Velocity(au)
C        -6.03101589    -0.88854057    -0.12576364     0.00005954     0.00031255    -0.00012651
C        -4.64087461    -0.67801865     0.10165284     0.00011099    -0.00000846     0.00000536
H        -6.71829052    -0.07121174    -0.37933181    -0.00071024     0.00094499     0.00001604
H        -6.55188922    -1.81462222     0.20842915     0.00048974    -0.00047954     0.00074095
H        -4.03047475    -1.52930326     0.43001340    -0.00015878     0.00051069     0.00023142
C        -4.02322388     0.52616623    -0.06904261    -0.00078530    -0.00047317    -0.00004953
C        -2.58440347     0.56049344     0.23037428     0.00096465     0.00005339     0.00005508
H        -4.51782601     1.43973452    -0.46186340    -0.00088188    -0.00056685    -0.00059986
H        -2.19408231    -0.42983104     0.41463900    -0.00129815     0.00079049     0.00011626
C        -1.77688930     1.71958659     0.02687156    -0.00030671    -0.00012602     0.00012943
H        -2.28734165     2.65318064    -0.24629319     0.00043973     0.00002092    -0.00025437
N        -0.47502371     1.74229598     0.21351009     0.00015018     0.00008259     0.00003346
H         0.02717626     2.53795727    -0.08048111    -0.00004031     0.00090802    -0.00018534
H        -0.02230722     0.87123925     0.20631042    -0.00044154    -0.00039617    -0.00069481
    14
  Step:    12            Position(A)                                  Velocity(au)
C        -6.03046443    -0.88515410    -0.12705723     0.00003893     0.00030619    -0.00010967
C        -4.63976202    -0.67818465     0.10167774     0.00008967    -0.00002379    -0.00000078
H        -6.72556797    -0.06100041    -0.37941375    -0.00059910     0.00089579    -0.00002328
H        -6.54580236    -1.81933688     0.21598095     0.00062597    -0.00036194     0.00063055
H        -4.03241542    -1.52352847     0.43258649    -0.00018676     0.00052826     0.00024431
C        -4.03193184     0.52106942    -0.06962436    -0.00079799    -0.00045373    -0.00005651
C        -2.57360380     0.56129016     0.23091196     0.00099718     0.00009355     0.00004146
H        -4.52730704     1.43278063    -0.46804899    -0.00084950    -0.00070646    -0.00052868
H        -2.20745926    -0.42124056     0.41626487    -0.00111338     0.00072537     0.00019296
C        -1.78061548     1.71805741     0.02830962    -0.00036792    -0.00015077     0.00013339
H        -2.28217942     2.65323094    -0.24889059     0.00049408    -0.00001027    -0.00022004
N        -0.47335912     1.74321876     0.21388811     0.00015399     0.00008745     0.00003443
H         0.02791547     2.54923088    -0.08284826     0.00015180     0.00110978    -0.00023351
H        -0.02570338     0.86527076     0.19904520    -0.00018482    -0.00067235    -0.00063478
    14
  Step:    13            Position(A)                                  Velocity(au)
C        -6.03016427    -0.88184210    -0.12816297     0.00001448     0.00029910    -0.00009223
C        -4.63891293    -0.67853904     0.10163567     0.00006263    -0.00004301    -0.00000687
H        -6.73139702    -0.05161467    -0.37984101    -0.00044989     0.00079885    -0.00004856
H        -6.53819501    -1.82254033     0.22222363     0.00076333    -0.00020992     0.00050399
H        -4.03456046    -1.51774651     0.43535816    -0.00019573     0.00051142     0.00026792
C        -4.04068145     0.51624004    -0.07027878    -0.00079331    -0.00042462    -0.00006283
C        -2.56258822     0.56254009     0.23128122     0.00100482     0.00013523     0.00002462
H        -4.53641035     1.42427926    -0.47342937    -0.00081538    -0.00084442    -0.00045490
H        -2.21843958    -0.41396224     0.41886040    -0.00086512     0.00055625     0.00029262
C        -1.78493818     1.71628825     0.02978978    -0.00041511    -0.00016946     0.00013708
H        -2.27653266     2.65295593    -0.25110692     0.00052690    -0.00003682    -0.00018550
N        -0.47165490     1.74420901     0.21426333     0.00015844     0.00009415     0.00003272
H         0.03049716     2.56223590    -0.08558966     0.00029105     0.00121610    -0.00025086
H        -0.02635049     0.85653024     0.19242342     0.00005053    -0.00088374    -0.00057672
    14
  Step:    14            Position(A)                                  Velocity(au)
C        -6.03014775    -0.87861078    -0.12907485    -0.00001208     0.00029155    -0.00007432
C        -4.63839194    -0.67912549     0.10152753     0.00002977    -0.00006620    -0.00001282
H        -6.73541016    -0.04352410    -0.38047600    -0.00027219     0.00066455    -0.00006288
H        -6.52910316    -1.82392919     0.22700674     0.00089308    -0.00003713     0.00036634
H        -4.03669731    -1.51234010     0.43844778    -0.00018580     0.00046040     0.00030211
C        -4.04928712     0.51178015    -0.07099898    -0.00077233    -0.00038677    -0.00006853
C        -2.55162141     0.56424860     0.23145050     0.00098940     0.00017571     0.00000539
H        -4.54514512     1.41430739    -0.47800072    -0.00078453    -0.00096999    -0.00038308
H        -2.22638545    -0.40907151     0.42266654    -0.00056670     0.00030305     0.00041163
C        -1.78969684     1.71435011     0.03130841    -0.00044719    -0.00018122     0.00014035
H        -2.27065244     2.65242554    -0.25294866     0.00053597    -0.00005560    -0.00015222
N        -0.46989297     1.74527844     0.21460400     0.00016503     0.00010113     0.00002807
H         0.03428277     2.57583542    -0.08833641     0.00037101     0.00121753    -0.00023425
H        -0.02459784     0.84593725     0.18642833     0.00024716    -0.00099905    -0.00051949
    14
  Step:    15            Position(A)                                  Velocity(au)
C        -6.03042862    -0.87546378    -0.12978877    -0.00003909     0.00028377    -0.00005613
C        -4.63826167    -0.67998736     0.10135518    -0.00000848    -0.00009324    -0.00001854
H        -6.73735176    -0.03707640    -0.38121659    -0.00007659     0.00050447    -0.00006957
H        -6.51865726    -1.82335260     0.23023793     0.00100678     0.00014234     0.00022304
H        -4.03862509    -1.50767434     0.44196733    -0.00015904     0.00037825     0.00034561
C        -4.05757756     0.50777862    -0.07177792    -0.00073649    -0.00034164    -0.00007353
C        -2.54094313     0.56638415     0.23139905     0.00095348     0.00021109    -0.00001512
H        -4.55357349     1.40305880    -0.48180990    -0.00076154    -0.00107278    -0.00031780
H        -2.23083725    -0.40733242     0.42786565    -0.00023628     0.00000137     0.00054299
C        -1.79472134     1.71232375     0.03286031    -0.00046352    -0.00018516     0.00014307
H        -2.26480726     2.65173965    -0.25443704     0.00052036    -0.00006438    -0.00012138
N        -0.46804455     1.74642146     0.21487736     0.00017427     0.00010698     0.00002054
H         0.03861378     2.58887179    -0.09071428     0.00039352     0.00111837    -0.00018531
H        -0.02094336     0.83467408     0.18105856     0.00039559    -0.00100261    -0.00046173
    14
  Step:    16            Position(A)                                  Velocity(au)
C        -6.03100290    -0.87240285    -0.13030285    -0.00006497     0.00027589    -0.00003789
C        -4.63857739    -0.68116537     0.10112196    -0.00005123    -0.00012379    -0.00002386
H        -6.73708564    -0.03248776    -0.38199793     0.00012588     0.00033086    -0.00007207
H        -6.50707786    -1.82081514     0.23188608     0.00109647     0.00031424     0.00007976
H        -4.04017666    -1.50406517     0.44600857    -0.00011953     0.00027083     0.00039598
C        -4.06539926     0.50430619    -0.07260761    -0.00068751    -0.00029104    -0.00007773
C        -2.53076232     0.56886670     0.23111975     0.00089993     0.00023682    -0.00003560
H        -4.56180520     1.39083838    -0.48495328    -0.00075038    -0.00114319    -0.00026341
H        -2.23155449    -0.40904147     0.43454556     0.00010591    -0.00030313     0.00067708
C        -1.79983716     1.71029943     0.03443843    -0.00046394    -0.00018047     0.00014506
H        -2.25926854     2.65101703    -0.25560402     0.00048047    -0.00006205    -0.00009372
N        -0.46608050     1.74761876     0.21505325     0.00018584     0.00011066     0.00001048
H         0.04289182     2.60030182    -0.09239042     0.00036650     0.00093327    -0.00010924
H        -0.01594359     0.82400317     0.17632705     0.00049396    -0.00089446    -0.00040238
    14
  Step:    17            Position(A)                                  Velocity(au)
C        -6.03184991    -0.86942812    -0.13061767    -0.00008824     0.00026806    -0.00001981
C        -4.63938241    -0.68269562     0.10083330    -0.00009723    -0.00015735    -0.00002857
H        -6.73459787    -0.02983827    -0.38279327     0.00032403     0.00015624    -0.00007389
H        -6.49466990    -1.81647794     0.23198283     0.00115477     0.00046435    -0.00005777
H        -4.04124013    -1.50174933     0.45063015    -0.00007308     0.00014643     0.00044972
C        -4.07261825     0.50141149    -0.07347840    -0.00062722    -0.00023711    -0.00008095
C        -2.52125533     0.57156505     0.23062016     0.00083169     0.00024857    -0.00005478
H        -4.56998953     1.37804927    -0.48757252    -0.00075412    -0.00117329    -0.00022364
H        -2.22852035    -0.41396387     0.44267802     0.00044074    -0.00056426     0.00080327
C        -1.80487088     1.70837572     0.03603372    -0.00044879    -0.00016649     0.00014613
H        -2.25429596     2.65038226    -0.25648733     0.00041800    -0.00004868    -0.00006953
N        -0.46397901     1.74884241     0.21510671     0.00019884     0.00011163    -0.00000154
H         0.04663167     2.60928881    -0.09310412     0.00030157     0.00068340    -0.00001334
H        -0.01013714     0.81510605     0.17225564     0.00054641    -0.00068739    -0.00034095
    14
  Step:    18            Position(A)                                  Velocity(au)
C        -6.03293337    -0.86653844    -0.13073631    -0.00010755     0.00026037    -0.00000212
C        -4.64070455    -0.68460770     0.10049704    -0.00014497    -0.00019323    -0.00003244
H        -6.72999691    -0.02906978    -0.38361448     0.00050676    -0.00000673    -0.00007859
H        -6.48181508    -1.81065651     0.23062226     0.00117516     0.00057894    -0.00018400
H        -4.04177537    -1.50086170     0.45584698    -0.00002663     0.00001486     0.00050253
C        -4.07912089     0.49911886    -0.07437847    -0.00055750    -0.00018208    -0.00008299
C        -2.51256754     0.57430468     0.22992131     0.00075144     0.00024318    -0.00007156
H        -4.57830305     1.36517039    -0.48984573    -0.00077446    -0.00115768    -0.00020116
H        -2.22191240    -0.42138567     0.45211853     0.00075274    -0.00074491     0.00091188
C        -1.80965533     1.70665713     0.03763525    -0.00041887    -0.00014287     0.00014614
H        -2.25012405     2.64995208    -0.25712511     0.00033574    -0.00002557    -0.00004861
N        -0.46173044     1.75006098     0.21501964     0.00021205     0.00010973    -0.00001486
H         0.04948923     2.61525257    -0.09268229     0.00021221     0.00039330     0.00009410
H        -0.00398979     0.80896521     0.16886818     0.00056105    -0.00040273    -0.00027751
    14
  Step:    19            Position(A)                                  Velocity(au)
C        -6.03420287    -0.86373195    -0.13066414    -0.00012170     0.00025284     0.00001499
C        -4.64255399    -0.68692297     0.10012363    -0.00019281    -0.00023061    -0.00003525
H        -6.72351152    -0.02998558    -0.38451259     0.00066334    -0.00014554    -0.00008974
H        -6.46896112    -1.80381252     0.22795750     0.00115227     0.00064541    -0.00029386
H        -4.04182261    -1.50142433     0.46162392     0.00001253    -0.00011372     0.00054982
C        -4.08481453     0.49742818    -0.07529393    -0.00048027    -0.00012809    -0.00008369
C        -2.50481606     0.57688507     0.22905458     0.00066164     0.00021922    -0.00008520
H        -4.58693223     1.35272284    -0.49197321    -0.00081128    -0.00109445    -0.00019713
H        -2.21205282    -0.43026022     0.46262711     0.00103107    -0.00082298     0.00099567
C        -1.81403444     1.70525019     0.03923073    -0.00037540    -0.00010965     0.00014499
H        -2.24695092     2.64982297    -0.25755083     0.00023744     0.00000498    -0.00003035
N        -0.45933997     1.75124293     0.21478153     0.00022405     0.00010504    -0.00002879
H         0.05127414     2.61789297    -0.09104550     0.00011262     0.00008887     0.00020452
H         0.00213692     0.80629567     0.16618466     0.00054816    -0.00006652    -0.00021262
    14
  Step:    20            Position(A)                                  Velocity(au)
C        -6.03559584    -0.86100704    -0.13040833    -0.00012972     0.00024535     0.00003142
C        -4.64492255    -0.68965266     0.09972587    -0.00023908    -0.00026847    -0.00003681
H        -6.71548516    -0.03225372    -0.38557782     0.00078376    -0.00024821    -0.00011089
H        -6.45660701    -1.79653695     0.22419344     0.00108248     0.00065362    -0.00038333
H        -4.04150125    -1.50334945     0.46787524     0.00003763    -0.00022999     0.00058720
C        -4.08962766     0.49631671    -0.07620945    -0.00039749    -0.00007703    -0.00008300
C        -2.49809284     0.57910060     0.22805738     0.00056451     0.00017718    -0.00009535
H        -4.59605140     1.34122729    -0.49415835    -0.00086223    -0.00098599    -0.00021072
H        -2.19935582    -0.43938997     0.47390079     0.00126941    -0.00079241     0.00105051
C        -1.81786784     1.70425832     0.04080725    -0.00032000    -0.00006740     0.00014268
H        -2.24492961     2.65006098    -0.25778898     0.00012747     0.00003988    -0.00001376
N        -0.45682881     1.75235884     0.21438973     0.00023337     0.00009781    -0.00004261