     6
  Step:     0            Position(A)                                  Velocity(au)
C        -0.03565973     0.00643005     0.03810671    -0.00009462     0.00000885    -0.00007537
N        -0.04211811    -0.06249782     1.28050798     0.00020194    -0.00002588     0.00010934
H         0.88411151     0.06284524    -0.51602940     0.00034361     0.00002438    -0.00019385
H         0.82078097    -0.06459528     1.82487250    -0.00139655     0.00005605    -0.00033533
H        -0.94989204     0.02694968     1.86036811    -0.00064703     0.00014941     0.00001786
H        -0.95772669     0.09689382    -0.52564089     0.00002115     0.00002431    -0.00011001
     6
  Step:     1            Position(A)                                  Velocity(au)
C        -0.03618594     0.00648957     0.03746142    -0.00009765     0.00001290    -0.00015992
N        -0.04105328    -0.06265455     1.28135349     0.00018604    -0.00003136     0.00019842
H         0.88635624     0.06302778    -0.51742746     0.00047331     0.00004206    -0.00031479
H         0.81326378    -0.06428037     1.82322131    -0.00133492     0.00005911    -0.00025698
H        -0.95298864     0.02776112     1.86024970    -0.00048173     0.00014685    -0.00006360
H        -0.95788508     0.09705346    -0.52653358    -0.00007850     0.00003405    -0.00021635
     6
  Step:     2            Position(A)                                  Velocity(au)
C        -0.03672769     0.00657113     0.03635769    -0.00010031     0.00001690    -0.00024269
N        -0.04008339    -0.06284081     1.28267807     0.00016743    -0.00003669     0.00028411
H         0.88928801     0.06330524    -0.51947222     0.00059399     0.00005904    -0.00042986
H         0.80618131    -0.06394880     1.82206199    -0.00123833     0.00006219    -0.00015563
H        -0.95516059     0.02855576     1.85967249    -0.00031082     0.00014349    -0.00014875
H        -0.95858527     0.09726618    -0.52800705    -0.00017621     0.00004366    -0.00032203
     6
  Step:     3            Position(A)                                  Velocity(au)
C        -0.03728276     0.00667436     0.03480790    -0.00010251     0.00002081    -0.00032274
N        -0.03922265    -0.06305566     1.28445996     0.00014632    -0.00004181     0.00036530
H         0.89285081     0.06367333    -0.52212754     0.00070330     0.00007516    -0.00053767
H         0.79972404    -0.06360043     1.82151967    -0.00110727     0.00006529    -0.00003185
H        -0.95638709     0.02933000     1.85862329    -0.00013764     0.00013958    -0.00023511
H        -0.95981174     0.09753078    -0.53005461    -0.00027025     0.00005295    -0.00042593
     6
  Step:     4            Position(A)                                  Velocity(au)
C        -0.03784839     0.00679867     0.03282930    -0.00010413     0.00002460    -0.00039912
N        -0.03848375    -0.06329792     1.28667172     0.00012304    -0.00004670     0.00044092
H         0.89697689     0.06412695    -0.52535031     0.00079911     0.00009027    -0.00063690
H         0.79407602    -0.06323499     1.82171382    -0.00094369     0.00006845     0.00011270
H        -0.95666534     0.03008169     1.85710220     0.00003437     0.00013538    -0.00032016
H        -0.96153982     0.09784503    -0.53266353    -0.00035889     0.00006173    -0.00052683
     6
  Step:     5            Position(A)                                  Velocity(au)
C        -0.03842127     0.00694328     0.03044418    -0.00010508     0.00002820    -0.00047084
N        -0.03787737    -0.06356622     1.28928060     0.00009806    -0.00005130     0.00050995
H         0.90158761     0.06466023    -0.52909089     0.00087941     0.00010420    -0.00072629
H         0.78940649    -0.06285210     1.82275189    -0.00075120     0.00007166     0.00027507
H        -0.95601129     0.03081012     1.85512291     0.00020157     0.00013116    -0.00040131
H        -0.96373558     0.09820564    -0.53581451    -0.00044037     0.00006979    -0.00062338
     6
  Step:     6            Position(A)                                  Velocity(au)
C        -0.03899758     0.00710713     0.02767991    -0.00010525     0.00003159    -0.00053689
N        -0.03741136    -0.06385899     1.29224885     0.00007195    -0.00005558     0.00057147
H         0.90659457     0.06526651    -0.53329346     0.00094246     0.00011680    -0.00080469
H         0.78586047    -0.06245129     1.82472211    -0.00053528     0.00007493     0.00045093
H        -0.95446083     0.03151616     1.85271327     0.00036002     0.00012723    -0.00047582
H        -0.96635595     0.09860824    -0.53948120    -0.00051296     0.00007692    -0.00071417
     6
  Step:     7            Position(A)                                  Velocity(au)
C        -0.03957300     0.00728896     0.02456906    -0.00010456     0.00003470    -0.00059624
N        -0.03709004    -0.06417441     1.29553413     0.00004546    -0.00005948     0.00062460
H         0.91190096     0.06593837    -0.53789655     0.00098684     0.00012793    -0.00087102
H         0.78354899    -0.06203211     1.82768639    -0.00030314     0.00007825     0.00063469
H        -0.95207155     0.03220236     1.84991604     0.00050548     0.00012389    -0.00054085
H        -0.96934891     0.09904736    -0.54362966    -0.00057501     0.00008292    -0.00079768
     6
  Step:     8            Position(A)                                  Velocity(au)
C        -0.04014283     0.00748721     0.02114939    -0.00010296     0.00003749    -0.00064793
N        -0.03691344    -0.06451044     1.29909000     0.00001946    -0.00006296     0.00066862
H         0.91740325     0.06666768    -0.54283359     0.00101149     0.00013744    -0.00092439
H         0.78254025    -0.06159424     1.83167371    -0.00006351     0.00008156     0.00081966
H        -0.94892445     0.03287314     1.84678945     0.00063342     0.00012152    -0.00059351
H        -0.97265396     0.09951646    -0.54821806    -0.00062502     0.00008760    -0.00087239
     6
  Step:     9            Position(A)                                  Velocity(au)
C        -0.04070205     0.00770010     0.01746367    -0.00010039     0.00003991    -0.00069104
N        -0.03687668    -0.06486484     1.30286641    -0.00000512    -0.00006598     0.00070291
H         0.92299331     0.06744563    -0.54803378     0.00101581     0.00014523    -0.00096410
H         0.78285249    -0.06113765     1.83667509     0.00017386     0.00008481     0.00099849
H        -0.94512518     0.03353495     1.84340735     0.00073930     0.00012047    -0.00063102
H        -0.97620308     0.10000799    -0.55319658    -0.00066171     0.00009078    -0.00093682
     6
  Step:    10            Position(A)                                  Velocity(au)
C        -0.04124545     0.00792558     0.01355926    -0.00009684     0.00004192    -0.00072484
N        -0.03696965    -0.06523515     1.30681050    -0.00002729    -0.00006851     0.00072708
H         0.92856053     0.06826280    -0.55342295     0.00099973     0.00015119    -0.00098970
H         0.78444986    -0.06066275     1.84264080     0.00039889     0.00008788     0.00116367
H        -0.94080422     0.03419638     1.83985859     0.00081874     0.00012115    -0.00065083
H        -0.97992198     0.10051353    -0.55850776    -0.00068417     0.00009232    -0.00098966
     6
  Step:    11            Position(A)                                  Velocity(au)
C        -0.04176778     0.00816138     0.00948720    -0.00009235     0.00004348    -0.00074881
N        -0.03717702    -0.06561878     1.31086752    -0.00004616    -0.00007054     0.00074096
H         0.93399479     0.06910939    -0.55892497     0.00096381     0.00015529    -0.00100112
H         0.78724212    -0.06017054     1.84948067     0.00060199     0.00009068     0.00130816
H        -0.93611534     0.03486819     1.83624530     0.00086794     0.00012393    -0.00065092
H        -0.98373205     0.10102397    -0.56408735    -0.00069192     0.00009215    -0.00102989
     6
  Step:    12            Position(A)                                  Velocity(au)
C        -0.04226396     0.00840510     0.00530100    -0.00008698     0.00004458    -0.00076278
N        -0.03747868    -0.06601305     1.31498216    -0.00006094    -0.00007205     0.00074471
H         0.93918987     0.06997537    -0.56446374     0.00090934     0.00015753    -0.00099872
H         0.79108883    -0.05966271     1.85706776     0.00077484     0.00009308     0.00142607
H        -0.93123223     0.03556314     1.83267997     0.00088407     0.00012914    -0.00062999
H        -0.98755277     0.10152978    -0.56986588    -0.00068501     0.00009022    -0.00105689
     6
  Step:    13            Position(A)                                  Velocity(au)
C        -0.04272933     0.00865422     0.00105497    -0.00008084     0.00004522    -0.00076691
N        -0.03785068    -0.06641527     1.31910007    -0.00007109    -0.00007308     0.00073883
H         0.94404718     0.07085085    -0.56996551     0.00083825     0.00015801    -0.00098339
H         0.79580769    -0.05914162     1.86524542     0.00091121     0.00009498     0.00151324
H        -0.92634225     0.03629574     1.82928097     0.00086578     0.00013703    -0.00058774
H        -0.99130455     0.10202134    -0.57577093    -0.00066406     0.00008659    -0.00107059
     6
  Step:    14            Position(A)                                  Velocity(au)
C        -0.04315984     0.00890627    -0.00319783    -0.00007408     0.00004543    -0.00076185
N        -0.03826652    -0.06682289     1.32316976    -0.00007635    -0.00007367     0.00072419
H         0.94847928     0.07172643    -0.57536152     0.00075309     0.00015689    -0.00095648
H         0.80118673    -0.05861019     1.87383728     0.00100744     0.00009631     0.00156761
H        -0.92163778     0.03708168     1.82616676     0.00081343     0.00014777    -0.00052494
H        -0.99491185     0.10248931    -0.58173001    -0.00063029     0.00008134    -0.00107151
     6
  Step:    15            Position(A)                                  Velocity(au)
C        -0.04355227     0.00915889    -0.00740800    -0.00006688     0.00004525    -0.00074863
N        -0.03869880    -0.06723360     1.32714466    -0.00007674    -0.00007389     0.00070201
H         0.95241282     0.07259362    -0.58059057     0.00065678     0.00015440    -0.00091984
H         0.80699881    -0.05807172     1.88265912     0.00106264     0.00009707     0.00158938
H        -0.91730627     0.03793725     1.82344969     0.00072924     0.00016142    -0.00044348
H        -0.99830607     0.10292495    -0.58767380    -0.00058534     0.00007466    -0.00106082
     6
  Step:    16            Position(A)                                  Velocity(au)
C        -0.04390437     0.00941002    -0.01153189    -0.00005943     0.00004475    -0.00072863
N        -0.03912085    -0.06764545     1.33098489    -0.00007259    -0.00007384     0.00067382
H         0.95579080     0.07344523    -0.58560157     0.00055243     0.00015084    -0.00087562
H         0.81301653    -0.05752961     1.89153100     0.00107846     0.00009727     0.00158082
H        -0.91351956     0.03887864     1.82122976     0.00061714     0.00017791    -0.00034617
H        -1.00142816     0.10332050    -0.59353955    -0.00053124     0.00006675    -0.00104022
     6
  Step:    17            Position(A)                                  Velocity(au)
C        -0.04421497     0.00965795    -0.01553352    -0.00005191     0.00004401    -0.00070345
N        -0.03950829    -0.06805700     1.33465889    -0.00006443    -0.00007361     0.00064125
H         0.95857340     0.07427573    -0.59035529     0.00044306     0.00014652    -0.00082615
H         0.81902548    -0.05698699     1.90028799     0.00105847     0.00009699     0.00154569
H        -0.91042407     0.03992124     1.81958934     0.00048243     0.00019710    -0.00023646
H        -1.00423036     0.10366934    -0.59927405    -0.00047012     0.00005785    -0.00101178
     6
  Step:    18            Position(A)                                  Velocity(au)
C        -0.04448392     0.00990142    -0.01938559    -0.00004393     0.00004582    -0.00072167
N        -0.03984018    -0.06846732     1.33814416    -0.00005350    -0.00007668     0.00064205
H         0.96073739     0.07508104    -0.59482518     0.00030093     0.00019328    -0.00072960
H         0.82483391    -0.05644673     1.90878791     0.00099407     0.00004637     0.00147803
H        -0.90813346     0.04107917     1.81858976     0.00035495     0.00028656    -0.00012990
H        -1.00667688     0.10396636    -0.60483564    -0.00038304    -0.00000660    -0.00094133
     6
  Step:    19            Position(A)                                  Velocity(au)
C        -0.04470571     0.01016979    -0.02359510    -0.00003513     0.00005041    -0.00078801
N        -0.04010595    -0.06891361     1.34183112    -0.00004087    -0.00008292     0.00068090
H         0.96193503     0.07643484    -0.59850544     0.00012658     0.00026941    -0.00058850
H         0.83013000    -0.05646897     1.91679870     0.00088920    -0.00003176     0.00137692
H        -0.90645902     0.04312229     1.81813822     0.00024198     0.00041854    -0.00003331
H        -1.00850923     0.10359563    -0.60978939    -0.00027121    -0.00010462    -0.00082715
     6
  Step:    20            Position(A)                                  Velocity(au)
C        -0.04487640     0.01046466    -0.02818944    -0.00002605     0.00005502    -0.00085423
N        -0.04029684    -0.06939375     1.34575131    -0.00002674    -0.00008879     0.00072098
H         0.96215161     0.07809095    -0.60139998    -0.00004622     0.00031615    -0.00045080
H         0.83476827    -0.05680160     1.92417114     0.00076337    -0.00007977     0.00125673
H        -0.90542997     0.04575521     1.81821761     0.00012345     0.00051558     0.00006231
H        -1.00970685     0.10279749    -0.61407670    -0.00015865    -0.00017367    -0.00070825
     6
  Step:    21            Position(A)                                  Velocity(au)
C        -0.04499670     0.01078437    -0.03313727    -0.00001719     0.00005929    -0.00091436
N        -0.04040466    -0.06990550     1.34988488    -0.00001143    -0.00009430     0.00075713
H         0.96141870     0.07996643    -0.60354117    -0.00021193     0.00035123    -0.00031990
H         0.83865728    -0.05735999     1.93083701     0.00062420    -0.00011571     0.00112731
H        -0.90507998     0.04888166     1.81883422     0.00000074     0.00059898     0.00015841
H        -1.01028149     0.10165561    -0.61770092    -0.00004948    -0.00023062    -0.00059165
     6
  Step:    22            Position(A)                                  Velocity(au)
C        -0.04506832     0.01112674    -0.03839977    -0.00000867     0.00006317    -0.00096751
N        -0.04042443    -0.07044676     1.35420594     0.00000449    -0.00009945     0.00078866
H         0.95978500     0.08201304    -0.60497221    -0.00036792     0.00037923    -0.00019737
H         0.84173850    -0.05809366     1.93675946     0.00047698    -0.00014410     0.00099333
H        -0.90542171     0.05244387     1.81998649    -0.00012224     0.00067369     0.00025336
H        -1.01025932     0.10022226    -0.62068346     0.00005410    -0.00027959    -0.00047985
     6
  Step:    23            Position(A)                                  Velocity(au)
C        -0.04509348     0.01148940    -0.04393630    -0.00000057     0.00006661    -0.00101340
N        -0.04035457    -0.07101547     1.35868758     0.00002041    -0.00010422     0.00081542
H         0.95731210     0.08419925    -0.60574416    -0.00051199     0.00040254    -0.00008445
H         0.84398110    -0.05896836     1.94192421     0.00032623    -0.00016722     0.00085826
H        -0.90644444     0.05640116     1.82166211    -0.00024131     0.00074191     0.00034515
H        -1.00967767     0.09853494    -0.62305686     0.00015022    -0.00032265    -0.00037449
     6
  Step:    24            Position(A)                                  Velocity(au)
C        -0.04507471     0.01186986    -0.04970581     0.00000705     0.00006959    -0.00105185
N        -0.04019674    -0.07160952     1.36330311     0.00003577    -0.00010860     0.00083736
H         0.95407300     0.08650402    -0.60591437    -0.00064204     0.00042267     0.00001778
H         0.84537814    -0.05995928     1.94633460     0.00017600    -0.00018645     0.00072490
H        -0.90811389     0.06072101     1.82383716    -0.00035228     0.00080460     0.00043167
H        -1.00858335     0.09662263    -0.62486151     0.00023724    -0.00036098    -0.00027681
     6
  Step:    25            Position(A)                                  Velocity(au)
C        -0.04501485     0.01226549    -0.05566683     0.00001414     0.00007208    -0.00108264
N        -0.03995570    -0.07222659     1.36802612     0.00005001    -0.00011252     0.00085445
H         0.95015186     0.08891302    -0.60554586    -0.00075591     0.00044062     0.00010825
H         0.84594396    -0.06104770     1.95000858     0.00003004    -0.00020262     0.00059572
H        -0.91037314     0.06537436     1.82647629    -0.00045120     0.00086200     0.00051089
H        -1.00703189     0.09450923    -0.62614394     0.00031355    -0.00039526    -0.00018784
     6
  Step:    26            Position(A)                                  Velocity(au)
C        -0.04491702     0.01267351    -0.06177722     0.00002064     0.00007404    -0.00110559
N        -0.03963913    -0.07286411     1.37283022     0.00006263    -0.00011593     0.00086662
H         0.94564468     0.09141688    -0.60470735    -0.00085132     0.00045712     0.00018589
H         0.84571304    -0.06221851     1.95297690    -0.00010806    -0.00021627     0.00047297
H        -0.91314470     0.07033224     1.82953362    -0.00053455     0.00091390     0.00058097
H        -1.00508733     0.09221550    -0.62695597     0.00037758    -0.00042590    -0.00010854
     6
  Step:    27            Position(A)                                  Velocity(au)
C        -0.04478476     0.01309098    -0.06799398     0.00002645     0.00007543    -0.00112050
N        -0.03925733    -0.07351925     1.37768888     0.00007319    -0.00011878     0.00087382
H         0.94065979     0.09400985    -0.60347323    -0.00092600     0.00047269     0.00024963
H         0.84473915    -0.06345909     1.95528211    -0.00023483    -0.00022774     0.00035875
H        -0.91633334     0.07556419     1.83295408    -0.00059941     0.00095988     0.00064036
H        -1.00282186     0.08976046    -0.62735419     0.00042792    -0.00045311    -0.00003974
     6
  Step:    28            Position(A)                                  Velocity(au)
C        -0.04462200     0.01351476    -0.07427338     0.00003152     0.00007624    -0.00112733
N        -0.03882292    -0.07418877     1.38257534     0.00008129    -0.00012100     0.00087605
H         0.93531768     0.09668846    -0.60192339    -0.00097786     0.00048773     0.00029853
H         0.84309414    -0.06475834     1.95697782    -0.00034705    -0.00023727     0.00025509
H        -0.91982949     0.08103705     1.83667509    -0.00064360     0.00099946     0.00068791
H        -1.00031504     0.08716231    -0.62739920     0.00046331    -0.00047699     0.00001784
     6
  Step:    29            Position(A)                                  Velocity(au)
C        -0.04443312     0.01394157    -0.08057147     0.00003575     0.00007644    -0.00112616
N        -0.03835043    -0.07486919     1.38746290     0.00008664    -0.00012255     0.00087340
H         0.92974996     0.09945134    -0.60014260    -0.00100514     0.00050259     0.00033183
H         0.84086716    -0.06610624     1.95812817    -0.00044173    -0.00024503     0.00016384
H        -0.92351389     0.08671503     1.84062900    -0.00066587     0.00103225     0.00072297
H        -0.99765281     0.08443873    -0.62715515     0.00048275    -0.00049765     0.00006364
     6
  Step:    30            Position(A)                                  Velocity(au)
C        -0.04422289     0.01436807    -0.08684497     0.00003909     0.00007603    -0.00111729
N        -0.03785578    -0.07555685     1.39232533     0.00008905    -0.00012343     0.00086607
H         0.92409708     0.10229905    -0.59821910    -0.00100661     0.00051766     0.00034909
H         0.83816295    -0.06749364     1.95880685    -0.00051634    -0.00025119     0.00008661
H        -0.92726278     0.09256031     1.84474578    -0.00066595     0.00105804     0.00074542
H        -0.99492596     0.08160689    -0.62668878     0.00048565    -0.00051523     0.00009732
     6
  Step:    31            Position(A)                                  Velocity(au)
C        -0.04399647     0.01479091    -0.09305236     0.00004148     0.00007504    -0.00110124
N        -0.03735572    -0.07624805     1.39713751     0.00008843    -0.00012366     0.00085440
H         0.91850543     0.10523398    -0.59624305    -0.00098172     0.00053327     0.00035023
H         0.83509927    -0.06891220     1.95909570    -0.00056889    -0.00025592     0.00002467
H        -0.93095302     0.09853414     1.84895589    -0.00064449     0.00107689     0.00075567
H        -0.99222776     0.07868321    -0.62606806     0.00047187    -0.00052994     0.00011882
     6
  Step:    32            Position(A)                                  Velocity(au)
C        -0.04375922     0.01520688    -0.09915507     0.00004290     0.00007349    -0.00107873
N        -0.03686722    -0.07693921     1.40187615     0.00008483    -0.00012328     0.00083883
H         0.91312300     0.10826022    -0.59430411    -0.00093076     0.00054980     0.00033564
H         0.83180359    -0.07035446     1.95908263    -0.00059814    -0.00025942    -0.00002116
H        -0.93446722     0.10459826     1.85319298    -0.00060298     0.00108912     0.00075457
H        -0.98965117     0.07568294    -0.62536059     0.00044181    -0.00054209     0.00012841
     6
  Step:    33            Position(A)                                  Velocity(au)
C        -0.04351656     0.01561295    -0.10511863     0.00004337     0.00007144    -0.00105064
N        -0.03640687    -0.07762701     1.40652038     0.00007835    -0.00012235     0.00081991
H         0.90809428     0.11138383    -0.59248871    -0.00085486     0.00056759     0.00030617
H         0.82840863    -0.07181396     1.95885904    -0.00060364    -0.00026185    -0.00005055
H        -0.93769777     0.11071662     1.85739630    -0.00054353     0.00109531     0.00074337
H        -0.98728579     0.07261962    -0.62463166     0.00039637    -0.00055202     0.00012671
     6
  Step:    34            Position(A)                                  Velocity(au)
C        -0.04327382     0.01600636    -0.11091351     0.00004293     0.00006893    -0.00101795
N        -0.03599033    -0.07830855     1.41105233     0.00006922    -0.00012097     0.00079822
H         0.90355568     0.11461254    -0.59087757    -0.00075597     0.00058696     0.00026308
H         0.82504788    -0.07328506     1.95851695    -0.00058567    -0.00026347    -0.00006367
H        -0.94055022     0.11685665     1.86151252    -0.00046873     0.00109627     0.00072354
H        -0.98521511     0.06950496    -0.62394246     0.00033687    -0.00056017     0.00011457
     6
  Step:    35            Position(A)                                  Velocity(au)
C        -0.04303595     0.01638474    -0.11651554     0.00004166     0.00006606    -0.00098164
N        -0.03563187    -0.07898138     1.41545727     0.00005772    -0.00011922     0.00077436
H         0.89963052     0.11795543    -0.58954322    -0.00063681     0.00060813     0.00020805
H         0.82185155    -0.07476371     1.95814615    -0.00054528    -0.00026451    -0.00006124
H        -0.94294564     0.12299045     1.86549700    -0.00038143     0.00109293     0.00069670
H        -0.98351421     0.06634793    -0.62334896     0.00026502    -0.00056706     0.00009306
     6
  Step:    36            Position(A)                                  Velocity(au)
C        -0.04280733     0.01674614    -0.12190615     0.00003968     0.00006289    -0.00094268
N        -0.03534399    -0.07964359     1.41972373     0.00004418    -0.00011720     0.00074887
H         0.89642453     0.12142251    -0.58854777    -0.00050080     0.00063123     0.00014305
H         0.81894172    -0.07624707     1.95783114    -0.00048430    -0.00026520    -0.00004445
H        -0.94482153     0.12909548     1.86931433    -0.00028452     0.00108626     0.00066449
H        -0.98224740     0.06315491    -0.62290033     0.00018286    -0.00057315     0.00006349
     6
  Step:    37            Position(A)                                  Velocity(au)
C        -0.04259161     0.01708905    -0.12707206     0.00003713     0.00005950    -0.00090194
N        -0.03513715    -0.08029378     1.42384333     0.00002898    -0.00011499     0.00072224
H         0.89402237     0.12502414    -0.58794131    -0.00035184     0.00065625     0.00007028
H         0.81642823    -0.07773351     1.95764835    -0.00040518    -0.00026574    -0.00001495
H        -0.94613177     0.13515479     1.87293820    -0.00018082     0.00107725     0.00062846
H        -0.98146653     0.05992965    -0.62263802     0.00009267    -0.00057887     0.00002725
     6
  Step:    38            Position(A)                                  Velocity(au)
C        -0.04239159     0.01741237    -0.13200486     0.00003417     0.00005596    -0.00086019
N        -0.03501954    -0.08093108     1.42781040     0.00001252    -0.00011268     0.00069491
H         0.89248510     0.12877031    -0.58776088    -0.00019423     0.00068307    -0.00000791
H         0.81440511    -0.07922244     1.95766375    -0.00031095    -0.00026629     0.00002525
H        -0.94684606     0.14115698     1.87635099    -0.00007301     0.00106681     0.00059007
H        -0.98120981     0.05667355    -0.62259516    -0.00000309    -0.00058462    -0.00001414
     6
  Step:    39            Position(A)                                  Velocity(au)
C        -0.04220910     0.01771545    -0.13670036     0.00003098     0.00005235    -0.00081806
N        -0.03499697    -0.08155504     1.43162166    -0.00000476    -0.00011034     0.00066721
H         0.89184833     0.13266995    -0.58802987    -0.00003251     0.00071141    -0.00008911
H         0.81294771    -0.08071419     1.95793102    -0.00020509    -0.00026700     0.00007386
H        -0.94694897     0.14709587     1.87954300     0.00003639     0.00105580     0.00055061
H        -0.98150108     0.05338589    -0.62279625    -0.00010186    -0.00059070    -0.00005917
     6
  Step:    40            Position(A)                                  Velocity(au)
C        -0.04204495     0.01799806    -0.14115788     0.00002773     0.00004872    -0.00077607
N        -0.03507278    -0.08216561     1.43527566    -0.00002243    -0.00010802     0.00063940
H         0.89212132     0.13673013    -0.58875792     0.00012866     0.00074087    -0.00017091
H         0.81211041    -0.08220983     1.95849012    -0.00009144    -0.00026796     0.00012834
H        -0.94643886     0.15297006     1.88251165     0.00014506     0.00104498     0.00051125
H        -0.98234955     0.05006433    -0.62325717    -0.00020108    -0.00059736    -0.00010634
     6
  Step:    41            Position(A)                                  Velocity(au)
C        -0.04189898     0.01826031    -0.14537958     0.00002459     0.00004515    -0.00073466
N        -0.03524778    -0.08276308     1.43877243    -0.00004004    -0.00010578     0.00061169
H         0.89328719     0.14095545    -0.58994126     0.00028472     0.00077092    -0.00025100
H         0.81192509    -0.08371093     1.95936635     0.00002594    -0.00026924     0.00018607
H        -0.94532673     0.15878248     1.88526064     0.00025082     0.00103505     0.00047303
H        -0.98374982     0.04670530    -0.62398545    -0.00029816    -0.00060475    -0.00015418
     6
  Step:    42            Position(A)                                  Velocity(au)
C        -0.04177006     0.01850269    -0.14936988     0.00002172     0.00004168    -0.00069414
N        -0.03552033    -0.08334801     1.44211315    -0.00005715    -0.00010366     0.00058424
H         0.89530396     0.14534753    -0.59156358     0.00043137     0.00080100    -0.00032723
H         0.81240036    -0.08521938     1.96057005     0.00014290    -0.00027087     0.00024439
H        -0.94363519     0.16453986     1.88779915     0.00035169     0.00102662     0.00043684
H        -0.98568235     0.04330445    -0.62498064    -0.00039064    -0.00061295    -0.00020134
     6
  Step:    43            Position(A)                                  Velocity(au)
C        -0.04165626     0.01872600    -0.15313489     0.00001926     0.00003838    -0.00065477
N        -0.03588633    -0.08392122     1.44529982    -0.00007335    -0.00010170     0.00055715
H         0.89810669     0.14990469    -0.59359725     0.00056471     0.00083048    -0.00039770
H         0.81352167    -0.08673722     1.96209683     0.00025539    -0.00027286     0.00030073
H        -0.94139742     0.17025238     1.89014120     0.00044585     0.00102024     0.00040348
H        -0.98811421     0.03985711    -0.62623488    -0.00047620    -0.00062198    -0.00024653
     6
  Step:    44            Position(A)                                  Velocity(au)
C        -0.04155497     0.01893133    -0.15668198     0.00001730     0.00003529    -0.00061674
N        -0.03633945    -0.08448374     1.44833503    -0.00008824    -0.00009994     0.00053051
H         0.90161031     0.15462184    -0.59600490     0.00068143     0.00085874    -0.00046081
H         0.81525242    -0.08826647     1.96392840     0.00035961    -0.00027519     0.00035271
H        -0.93865618     0.17593328     1.89230493     0.00053166     0.00101644     0.00037364
H        -0.99100022     0.03635859    -0.62773369    -0.00055276    -0.00063180    -0.00028863
     6