 Fermi distribution function

Calculation with static geometry


********************************************************************************
 iSCC Total electronic   Diff electronic      SCC error    
   11   -0.53717254E+01   -0.54907190E-11    0.16412561E-07
********************************************************************************

 Total charge:     1.00000000

 Atomic gross charges (e)
 Atom           Charge
    1       0.30626891
    2      -0.19724251
    3       0.15919185
    4       0.27115270
    5       0.30454830
    6       0.15608075

Nr. of electrons (up):     12.00000000
Atom populations (up)
 Atom       Population
    1       3.69373109
    2       5.19724251
    3       0.84080815
    4       0.72884730
    5       0.69545170
    6       0.84391925

l-shell populations (up)
 Atom Sh.   l       Population
    1   1   0       1.31475439
    1   2   1       2.37897670
    2   1   0       1.43167929
    2   2   1       3.76556322
    3   1   0       0.84080815
    4   1   0       0.72884730
    5   1   0       0.69545170
    6   1   0       0.84391925

Orbital populations (up)
 Atom Sh.   l   m       Population  Label
    1   1   0   0       1.31475439  s
    1   2   1  -1       0.51414171  p_y
    1   2   1   0       0.89027985  p_z
    1   2   1   1       0.97455515  p_x
    2   1   0   0       1.43167929  s
    2   2   1  -1       1.32949173  p_y
    2   2   1   0       1.08430887  p_z
    2   2   1   1       1.35176262  p_x
    3   1   0   0       0.84080815  s
    4   1   0   0       0.72884730  s
    5   1   0   0       0.69545170  s
    6   1   0   0       0.84391925  s

Fermi level:                        -0.4919038698 H          -13.3854 eV
Band energy:                        -8.8295997989 H         -240.2656 eV
TS:                                  0.0000000000 H            0.0000 eV
Band free energy (E-TS):            -8.8295997989 H         -240.2656 eV
Extrapolated E(0K):                 -8.8295997989 H         -240.2656 eV
Input / Output electrons (q):     12.0000000000     12.0000000000

Energy H0:                          -5.5056926045 H         -149.8175 eV
Energy SCC:                          0.1339671705 H            3.6454 eV
Total Electronic energy:            -5.3717254340 H         -146.1721 eV
Repulsive energy:                    0.1805670432 H            4.9135 eV
Total energy:                       -5.1911583908 H         -141.2586 eV
Extrapolated to 0:                  -5.1911583908 H         -141.2586 eV
Total Mermin free energy:           -5.1911583908 H         -141.2586 eV
Force related energy:               -5.1911583908 H         -141.2586 eV

SCC converged

Excitation Energy:                   0.0953161015 H            2.5937 eV

Total Forces
    1      0.007726263691      0.002555176065      0.041445526728
    2     -0.014320813454      0.016650562653     -0.043832996601
    3     -0.006767288665      0.010932644275      0.000312702575
    4     -0.004833820220     -0.016201511677     -0.000236791842
    5      0.014831477093      0.002431345397     -0.001414563971
    6      0.003364181555     -0.016368216714      0.003726123111

Maximal derivative component:        0.438330E-01 au


