     6
  Step:   120            Position(A)                                  Velocity(au)
C        -0.01911805     0.07572837     0.01797429     0.00017525     0.00002183    -0.00020346
N        -0.04695543    -0.05338621     1.31267926    -0.00005784    -0.00005527     0.00012383
H         0.63878879    -0.65253555    -0.58137744    -0.00068196    -0.00124629     0.00032431
H         0.76577293     0.23912233     1.89340780    -0.00053438     0.00157663    -0.00014231
H        -0.81615427    -0.58389425     1.79424701     0.00047440    -0.00122208    -0.00001338
H        -0.92103936     0.16700665    -0.66986190    -0.00054261     0.00139958     0.00053511
