     6
  Step:     0            Position(A)                                  Velocity(au)
C        -0.04429349     0.02571247     0.03900633    -0.00010981     0.00008187    -0.00026095
N        -0.04265189    -0.05550036     1.28455429     0.00019327    -0.00011176     0.00023523
H         0.90667789    -0.03398238    -0.52122848     0.00057113    -0.00003018     0.00006333
H         0.83909106    -0.14510202     1.82918148    -0.00112266     0.00034291    -0.00124023
H        -0.91179787    -0.04905707     1.80805320    -0.00145124     0.00056504     0.00096915
H        -0.92639914     0.02322448    -0.53938482     0.00062542    -0.00030035     0.00004847
     6
  Step:     1            Position(A)                                  Velocity(au)
C        -0.04484386     0.02622120     0.03714634    -0.00009049     0.00010404    -0.00041748
N        -0.04157949    -0.05611847     1.28621766     0.00019577    -0.00011395     0.00037158
H         0.90993576    -0.03430268    -0.52084662     0.00061233    -0.00008614     0.00007795
H         0.83296548    -0.14338171     1.82235586    -0.00109688     0.00028324    -0.00124061
H        -0.92003371    -0.04609757     1.81350918    -0.00153665     0.00051677     0.00101358
H        -0.92364038     0.02139192    -0.53934773     0.00037894    -0.00037012    -0.00003975
     6
  Step:     2            Position(A)                                  Velocity(au)
C        -0.04528371     0.02685098     0.03443781    -0.00006956     0.00012571    -0.00056937
N        -0.04050964    -0.05674736     1.28862052     0.00019192    -0.00011544     0.00050377
H         0.91337855    -0.03492506    -0.52037545     0.00063714    -0.00013995     0.00009518
H         0.82708796    -0.14200258     1.81560548    -0.00102873     0.00021811    -0.00120896
H        -0.92861336    -0.04340212     1.81914480    -0.00157431     0.00046760     0.00103363
H        -0.92225242     0.01917425    -0.53981979     0.00012777    -0.00043962    -0.00013567
     6
  Step:     3            Position(A)                                  Velocity(au)
C        -0.04560587     0.02759835     0.03090917    -0.00004767     0.00014634    -0.00071410
N        -0.03947715    -0.05738309     1.29173618     0.00018161    -0.00011611     0.00062916
H         0.91691534    -0.03583571    -0.51980394     0.00064503    -0.00019030     0.00011360
H         0.82169624    -0.14099245     1.80911227    -0.00091608     0.00014877    -0.00114254
H        -0.93727959    -0.04097524     1.82483209    -0.00156469     0.00041771     0.00103041
H        -0.92224072     0.01657606    -0.54083396    -0.00012001    -0.00050660    -0.00023520
     6
  Step:     4            Position(A)                                  Velocity(au)
C        -0.04580670     0.02845661     0.02660291    -0.00002549     0.00016526    -0.00084853
N        -0.03851711    -0.05802126     1.29552349     0.00016492    -0.00011587     0.00074469
H         0.92045560    -0.03701302    -0.51912904     0.00063672    -0.00023572     0.00013171
H         0.81703695    -0.14037037     1.80306989    -0.00075858     0.00007713    -0.00104035
H        -0.94578071    -0.03881915     1.83045013    -0.00150944     0.00036766     0.00100526
H        -0.92356912     0.01361595    -0.54240035    -0.00035690    -0.00056827    -0.00033390
     6
  Step:     5            Position(A)                                  Velocity(au)
C        -0.04588614     0.02941545     0.02157929    -0.00000372     0.00018180    -0.00096901
N        -0.03766375    -0.05865708     1.29992430     0.00014224    -0.00011462     0.00084700
H         0.92391636    -0.03842759    -0.51835578     0.00061416    -0.00027495     0.00014802
H         0.81335540    -0.14014441     1.79767322    -0.00055848     0.00000528    -0.00090383
H        -0.95387645    -0.03693270     1.83588528    -0.00141165     0.00031804     0.00095978
H        -0.92616502     0.01032771    -0.54450528    -0.00057640    -0.00062198    -0.00042737
     6
  Step:     6            Position(A)                                  Velocity(au)
C        -0.04584774     0.03046121     0.01591856     0.00001695     0.00019542    -0.00107187
N        -0.03694876    -0.05928510     1.30486257     0.00011431    -0.00011226     0.00093292
H         0.92722734    -0.04004462    -0.51749692     0.00058002    -0.00030725     0.00016118
H         0.81087915    -0.14031220     1.79310421    -0.00032158    -0.00006490    -0.00073723
H        -0.96134562    -0.03531246     1.84103272    -0.00127613     0.00026922     0.00089613
H        -0.92992453     0.00675791    -0.54711259    -0.00077284    -0.00066576    -0.00051171
     6
  Step:     7            Position(A)                                  Velocity(au)
C        -0.04569859     0.03157758     0.00972040     0.00003587     0.00020574    -0.00115404
N        -0.03639911    -0.05989914     1.31024586     0.00008228    -0.00010870     0.00099997
H         0.93033352    -0.04182687    -0.51657254     0.00053736    -0.00033243     0.00016994
H         0.80979754    -0.14086244     1.78951668    -0.00005755    -0.00013176    -0.00054758
H        -0.96799517    -0.03395411     1.84579981    -0.00110944     0.00022144     0.00081725
H        -0.93471553     0.00296190    -0.55016668    -0.00094135    -0.00069843    -0.00058379
     6
  Step:     8            Position(A)                                  Velocity(au)
C        -0.04544929     0.03274645     0.00310010     0.00005245     0.00021259    -0.00121370
N        -0.03603481    -0.06049245     1.31596961     0.00004770    -0.00010392     0.00104689
H         0.93319596    -0.04373706    -0.51560931     0.00048933    -0.00035077     0.00017334
H         0.81023997    -0.14177569     1.78702205     0.00022060    -0.00019382    -0.00034409
H        -0.97366866    -0.03285287     1.85011025    -0.00091967     0.00017491     0.00072693
H        -0.94038056    -0.00099984    -0.55359697    -0.00107815    -0.00071961    -0.00064153
     6
  Step:     9            Position(A)                                  Velocity(au)
C        -0.04511356     0.03394903    -0.00381832     0.00006622     0.00021609    -0.00125079
N        -0.03586702    -0.06105831     1.32192379     0.00001229    -0.00009804     0.00107403
H         0.93579199    -0.04573967    -0.51463895     0.00043913    -0.00036295     0.00017081
H         0.81225826    -0.14302452     1.78567843     0.00049798    -0.00024983    -0.00013716
H        -0.97825397    -0.03200297     1.85390864    -0.00071594     0.00012999     0.00062969
H        -0.94674220    -0.00506532    -0.55732289    -0.00118115    -0.00072980    -0.00068393
     6
  Step:    10            Position(A)                                  Velocity(au)
C        -0.04470745     0.03516717    -0.01091157     0.00007698     0.00021665    -0.00126736
N        -0.03589714    -0.06159076     1.32800119    -0.00002225    -0.00009135     0.00108353
H         0.93811521    -0.04780295    -0.51369589     0.00038979    -0.00037010     0.00016228
H         0.81581851    -0.14457428     1.78548555     0.00076023    -0.00029889     0.00006311
H        -0.98168874    -0.03139666     1.85716421    -0.00050761     0.00008710     0.00053042
H        -0.95361202    -0.00917521    -0.56125848    -0.00125049    -0.00073039    -0.00071092
     6
  Step:    11            Position(A)                                  Velocity(au)
C        -0.04424806     0.03638502    -0.01806837     0.00008474     0.00021495    -0.00126740
N        -0.03611724    -0.06208540     1.33410684    -0.00005451    -0.00008419     0.00107911
H         0.94017481    -0.04990108    -0.51281431     0.00034402    -0.00037371     0.00014818
H         0.82080621    -0.14638521     1.78638806     0.00099575    -0.00034075     0.00024851
H        -0.98396148    -0.03102365     1.85987268    -0.00030318     0.00004659     0.00043384
H        -0.96080263    -0.01327780    -0.56531644    -0.00128895    -0.00072363    -0.00072377
     6
  Step:    12            Position(A)                                  Velocity(au)
C        -0.04375215     0.03759048    -0.02520001     0.00008976     0.00021182    -0.00125602
N        -0.03651163    -0.06253988     1.34016687    -0.00008347    -0.00007695     0.00106539
H         0.94199366    -0.05201614    -0.51202537     0.00030386    -0.00037546     0.00012925
H         0.82704444    -0.14841581     1.78828721     0.00119713    -0.00037575     0.00041371
H        -0.98510674    -0.03087145     1.86205524    -0.00010923     0.00000860     0.00034387
H        -0.96814350    -0.01733334    -0.56941813    -0.00130140    -0.00071215    -0.00072504
     6
  Step:    13            Position(A)                                  Velocity(au)
C        -0.04323491     0.03877601    -0.03224599     0.00009240     0.00020804    -0.00123816
N        -0.03705946    -0.06295403     1.34613270    -0.00010861    -0.00006996     0.00104674
H         0.94360475    -0.05413920    -0.51135538     0.00027059    -0.00037691     0.00010629
H         0.83431908    -0.15062661     1.79105785     0.00136082    -0.00040465     0.00055627
H        -0.98519444    -0.03092661     1.86375419     0.00006997    -0.00002702     0.00026328
H        -0.97549244    -0.02131634    -0.57350048    -0.00129332    -0.00069836    -0.00071770
     6
  Step:    14            Position(A)                                  Velocity(au)
C        -0.04270936     0.03993825    -0.03917275     0.00014405     0.00031613    -0.00188517
N        -0.03773727    -0.06332936     1.35197942    -0.00020076    -0.00009816     0.00158921
H         0.94504734    -0.05626962    -0.51082590     0.00037899    -0.00058718     0.00012363
H         0.84240150    -0.15298230     1.79456482     0.00230044    -0.00066298     0.00104646
H        -0.98431709    -0.03117633     1.86502644     0.00035926    -0.00009385     0.00029996
H        -0.98273872    -0.02521438    -0.57751743    -0.00196547    -0.00105900    -0.00109044
     6
  Step:    15            Position(A)                                  Velocity(au)
C        -0.04192079     0.04167728    -0.04935742     0.00008329     0.00018597    -0.00106811
N        -0.03890558    -0.06385901     1.36059614    -0.00013020    -0.00005556     0.00090714
H         0.94740875    -0.05953342    -0.51053686     0.00028361    -0.00035333    -0.00001196
H         0.85554157    -0.15669121     1.80075638     0.00143967    -0.00040190     0.00069921
H        -0.98191490    -0.03167620     1.86655272     0.00029689    -0.00005140     0.00015427
H        -0.99380421    -0.03110430    -0.58390386    -0.00120341    -0.00063735    -0.00071979
     6
  Step:    16            Position(A)                                  Velocity(au)
C        -0.04146012     0.04271314    -0.05530902     0.00007947     0.00018160    -0.00104327
N        -0.03967541    -0.06415509     1.36564461    -0.00014088    -0.00004974     0.00088408
H         0.94895582    -0.06153643    -0.51068726     0.00026768    -0.00035788    -0.00004217
H         0.86377777    -0.15899357     1.80491013     0.00146450    -0.00041257     0.00076448
H        -0.97987612    -0.03205937     1.86728290     0.00041634    -0.00008374     0.00011058
H        -1.00041796    -0.03464504    -0.58787299    -0.00113779    -0.00061873    -0.00068669
     6
  Step:    17            Position(A)                                  Velocity(au)
C        -0.04102544     0.04372334    -0.06111144     0.00007467     0.00017805    -0.00102209
N        -0.04049283    -0.06441935     1.37055663    -0.00014808    -0.00004456     0.00086453
H         0.95042463    -0.06356550    -0.51101199     0.00025729    -0.00036499    -0.00007414
H         0.87204144    -0.16133943     1.80936946     0.00146010    -0.00042022     0.00081374
H        -0.97722419    -0.03261970     1.86779856     0.00051714    -0.00011510     0.00007891
H        -1.00662324    -0.03807523    -0.59164048    -0.00106656    -0.00060210    -0.00065308
     6
  Step:    18            Position(A)                                  Velocity(au)
C        -0.04062165     0.04471239    -0.06678595     0.00006886     0.00017483    -0.00100212
N        -0.04133820    -0.06465545     1.37535236    -0.00015153    -0.00003987     0.00084633
H         0.95184484    -0.06563491    -0.51151977     0.00025117    -0.00037384    -0.00010762
H         0.88017312    -0.16371218     1.81404749     0.00142490    -0.00042406     0.00084675
H        -0.97406926    -0.03335177     1.86816891     0.00059730    -0.00014556     0.00005930
H        -1.01239420    -0.04140594    -0.59520629    -0.00098831    -0.00058580    -0.00061797
     6
  Step:    19            Position(A)                                  Velocity(au)
C        -0.04025383     0.04568230    -0.07234024     0.00006208     0.00017162    -0.00098158
N        -0.04219070    -0.06486609     1.38003979    -0.00015106    -0.00003555     0.00082785
H         0.95323900    -0.06775435    -0.51221790     0.00024827    -0.00038373    -0.00014220
H         0.88800750    -0.16609107     1.81885739     0.00135881    -0.00042353     0.00086369
H        -0.97053135    -0.03425077     1.86846300     0.00065482    -0.00017513     0.00005192
H        -1.01769729    -0.04463913    -0.59856493    -0.00090262    -0.00056862    -0.00058094
     6
  Step:    20            Position(A)                                  Velocity(au)
C        -0.03992678     0.04663321    -0.07777216     0.00005445     0.00016821    -0.00095944
N        -0.04302887    -0.06505335     1.38461798    -0.00014667    -0.00003153     0.00080813
H         0.95462353    -0.06992976    -0.51311132     0.00024766    -0.00039421    -0.00017736
H         0.89538144    -0.16845255     1.82371429     0.00126355    -0.00041842     0.00086538
H        -0.96674027    -0.03531185     1.86875007     0.00068817    -0.00020374     0.00005684
H        -1.02249666    -0.04777018    -0.60170845    -0.00081004    -0.00054986    -0.00054208
     6
  Step:    21            Position(A)                                  Velocity(au)
C        -0.03964467     0.04756414    -0.08307390     0.00004613     0.00016451    -0.00093529
N        -0.04383157    -0.06521888     1.38908062    -0.00013855    -0.00002778     0.00078671
H         0.95600962    -0.07216450    -0.51420214     0.00024853    -0.00040499    -0.00021259
H         0.90214330    -0.17077212     1.82853869     0.00114228    -0.00040881     0.00085323
H        -0.96283254    -0.03653004     1.86909884     0.00069668    -0.00023140     0.00007383
H        -1.02675956    -0.05079065    -0.60462940    -0.00071186    -0.00052921    -0.00050187
     6
  Step:    22            Position(A)                                  Velocity(au)
C        -0.03941075     0.04847361    -0.08823518     0.00003732     0.00016051    -0.00090910
N        -0.04457882    -0.06536408     1.39341883    -0.00012700    -0.00002424     0.00076350
H         0.95740381    -0.07446035    -0.51548951     0.00025016    -0.00041594    -0.00024736
H         0.90816004    -0.17302587     1.83325938     0.00099914    -0.00039500     0.00082915
H        -0.95894653    -0.03790048     1.86957597     0.00068063    -0.00025819     0.00010236
H        -1.03046019    -0.05369039    -0.60732291    -0.00060975    -0.00050661    -0.00046105
     6
  Step:    23            Position(A)                                  Velocity(au)
C        -0.03922713     0.04936000    -0.09324564     0.00002823     0.00015622    -0.00088114
N        -0.04525260    -0.06549013     1.39762323    -0.00011247    -0.00002091     0.00073866
H         0.95880858    -0.07681836    -0.51696982     0.00025189    -0.00042704    -0.00028125
H         0.91332250    -0.17519173     1.83781586     0.00083888    -0.00037748     0.00079530
H        -0.95521706    -0.03941885     1.87024410     0.00064125    -0.00028427     0.00014153
H        -1.03358194    -0.05645907    -0.60978796    -0.00050559    -0.00048223    -0.00042043
     6
  Step:    24            Position(A)                                  Velocity(au)
C        -0.03909480     0.05022191    -0.09809628     0.00001907     0.00015172    -0.00085182
N        -0.04583745    -0.06559805     1.40168531    -0.00009544    -0.00001774     0.00071249
H         0.96022272    -0.07923949    -0.51863705     0.00025313    -0.00043837    -0.00031389
H         0.91754816    -0.17725030     1.84215973     0.00066642    -0.00035678     0.00075398
H        -0.95177013    -0.04108186     1.87115992     0.00058065    -0.00030991     0.00019011
H        -1.03611831    -0.05908717    -0.61202801    -0.00040122    -0.00045630    -0.00038086
     6
  Step:    25            Position(A)                                  Velocity(au)
C        -0.03901363     0.05105822    -0.10278020     0.00001004     0.00014707    -0.00082157
N        -0.04632090    -0.06568872     1.40559825    -0.00007649    -0.00001472     0.00068536
H         0.96164187    -0.08172511    -0.52048326     0.00025337    -0.00045005    -0.00034501
H         0.92078184    -0.17918527     1.84625527     0.00048655    -0.00033350     0.00070747
H        -0.94871774    -0.04288771     1.87237208     0.00050174    -0.00033541     0.00024653
H        -1.03807283    -0.06156651    -0.61405101    -0.00029838    -0.00042909    -0.00034315
     6
  Step:    26            Position(A)                                  Velocity(au)
C        -0.03898244     0.05186824    -0.10729285     0.00000129     0.00014236    -0.00079080
N        -0.04669367    -0.06576281     1.40935720    -0.00005618    -0.00001180     0.00065764
H         0.96305889    -0.08427733    -0.52249904     0.00025217    -0.00046225    -0.00037440
H         0.92299460    -0.18098346     1.85007905     0.00030374    -0.00030816     0.00065789
H        -0.94615375    -0.04483642     1.87391955     0.00040800    -0.00036115     0.00030895
H        -1.03945831    -0.06389036    -0.61586916    -0.00019860    -0.00040086    -0.00030800
     6
  Step:    27            Position(A)                                  Velocity(au)
C        -0.03899918     0.05265167    -0.11163178    -0.00000702     0.00013763    -0.00075984
N        -0.04694975    -0.06582079     1.41295933    -0.00003509    -0.00000895     0.00062964
H         0.96446443    -0.08689924    -0.52467398     0.00024916    -0.00047517    -0.00040192
H         0.92418168    -0.18263461     1.85361920     0.00012201    -0.00028126     0.00060719
H        -0.94415087    -0.04693010     1.87583023     0.00030337    -0.00038750     0.00037535
H        -1.04029583    -0.06605339    -0.61749848    -0.00010323    -0.00037182    -0.00027604
     6
  Step:    28            Position(A)                                  Velocity(au)
C        -0.03906106     0.05340854    -0.11579634    -0.00001479     0.00013296    -0.00072893
N        -0.04708637    -0.06586295     1.41640362    -0.00001377    -0.00000613     0.00060164
H         0.96584730    -0.08959509    -0.52699703     0.00024407    -0.00048902    -0.00042749
H         0.92436003    -0.18413104     1.85687422    -0.00005503    -0.00025318     0.00055710
H        -0.94275872    -0.04917301     1.87812016     0.00019199    -0.00041486     0.00044358
H        -1.04061361    -0.06805142    -0.61895833    -0.00001342    -0.00034212    -0.00024781
     6
  Step:    29            Position(A)                                  Velocity(au)
C        -0.03916464     0.05413920    -0.11978707    -0.00002191     0.00012837    -0.00069823
N        -0.04710386    -0.06588936     1.41969050     0.00000723    -0.00000330     0.00057385
H         0.96719505    -0.09237043    -0.52945677     0.00023669    -0.00050405    -0.00045107
H         0.92356596    -0.18546713     1.85985197    -0.00022416    -0.00022423     0.00050916
H        -0.94200288    -0.05157160     1.88079297     0.00007813    -0.00044362     0.00051142
H        -1.04044592    -0.06988108    -0.62027101     0.00006987    -0.00031188    -0.00022382
     6
  Step:    30            Position(A)                                  Velocity(au)
C        -0.03930605     0.05484421    -0.12360521    -0.00002831     0.00012390    -0.00066776
N        -0.04700550    -0.06589989     1.42282148     0.00002742    -0.00000044     0.00054638
H         0.96849444    -0.09523228    -0.53204169     0.00022694    -0.00052052    -0.00047263
H         0.92185309    -0.18663884     1.86256865    -0.00038244    -0.00019465     0.00046480
H        -0.94188496    -0.05413437     1.88383983    -0.00003407    -0.00047412     0.00057669
H        -1.03983223    -0.07153940    -0.62146145     0.00014576    -0.00028110    -0.00020449
     6
  Step:    31            Position(A)                                  Velocity(au)
C        -0.03948107     0.05552431    -0.12725201    -0.00003393     0.00011958    -0.00063743
N        -0.04679731    -0.06589423     1.42579855     0.00004634     0.00000251     0.00051925
H         0.96973208    -0.09818940    -0.53474037     0.00021484    -0.00053878    -0.00049222
H         0.91929059    -0.18764313     1.86504801    -0.00052723    -0.00016453     0.00042527
H        -0.94238374    -0.05687184     1.88723987    -0.00014070    -0.00050671     0.00063730
H        -1.03881648    -0.07302352    -0.62255706     0.00021350    -0.00024975    -0.00019029
     6
  Step:    32            Position(A)                                  Velocity(au)
C        -0.03968524     0.05618036    -0.13072794    -0.00003877     0.00011541    -0.00060705
N        -0.04648772    -0.06587185     1.42862358     0.00006357     0.00000556     0.00049237
H         0.97089512    -0.10125269    -0.53754182     0.00020056    -0.00055926    -0.00050994
H         0.91596174    -0.18847732     1.86732068    -0.00065611    -0.00013387     0.00039177
H        -0.94345713    -0.05979636     1.89096104    -0.00023827    -0.00054171     0.00069133
H        -1.03744654    -0.07433019    -0.62358774     0.00027242    -0.00021774    -0.00018167
     6
  Step:    33            Position(A)                                  Velocity(au)
C        -0.03991408     0.05681333    -0.13403220    -0.00004281     0.00011143    -0.00057635
N        -0.04608732    -0.06583208     1.43129787     0.00007876     0.00000875     0.00046562
H         0.97197213    -0.10443581    -0.54043583     0.00018445    -0.00058254    -0.00052595
H         0.91196251    -0.18913835     1.86942367    -0.00076690    -0.00010251     0.00036540
H        -0.94504497    -0.06292216     1.89496136    -0.00032384    -0.00057946     0.00073714
H        -1.03577384    -0.07545548    -0.62458616     0.00032187    -0.00018490    -0.00017920
     6
  Step:    34            Position(A)                                  Velocity(au)
C        -0.04016317     0.05742432    -0.13716225    -0.00004609     0.00010766    -0.00054496
N        -0.04560842    -0.06577414     1.43382173     0.00009165     0.00001208     0.00043878
H         0.97295428    -0.10775608    -0.54341349     0.00016712    -0.00060938    -0.00054059
H         0.90740017    -0.18962179     1.87140001    -0.00085769    -0.00007010     0.00034723
H        -0.94707249    -0.06626539     1.89919045    -0.00039513    -0.00062031     0.00077337
H        -1.03385320    -0.07639434    -0.62558834     0.00036123    -0.00015099    -0.00018359
     6
  Step:    35            Position(A)                                  Velocity(au)
C        -0.04042838     0.05801465    -0.14011339    -0.00004868     0.00010414    -0.00051235
N        -0.04506458    -0.06569723     1.43619415     0.00010205     0.00001556     0.00041149
H         0.97383699    -0.11123584    -0.54646826     0.00014957    -0.00064086    -0.00055443
H         0.90239161    -0.18992057     1.87329839    -0.00092693    -0.00003600     0.00033825
H        -0.94945423    -0.06984421     1.90359137    -0.00045058    -0.00066464     0.00079902
H        -1.03174286    -0.07714031    -0.62663486     0.00038982    -0.00011575    -0.00019586
     6
  Step:    36            Position(A)                                  Velocity(au)
C        -0.04070614     0.05858594    -0.14287705    -0.00005071     0.00010096    -0.00047757
N        -0.04447012    -0.06560057     1.43841155     0.00010988     0.00001917     0.00038312
H         0.97462257    -0.11490426    -0.54959765     0.00013342    -0.00067841    -0.00056850
H         0.89706115    -0.19002335     1.87517286    -0.00097347     0.00000070     0.00033942
H        -0.95209829    -0.07367879     1.90810270    -0.00048939    -0.00071272     0.00081346
H        -1.02950509    -0.07768539    -0.62777301     0.00040677    -0.00007899    -0.00021758
     6
  Step:    37            Position(A)                                  Velocity(au)
C        -0.04099378     0.05914027    -0.14543788    -0.00005238     0.00009821    -0.00043893
N        -0.04383950    -0.06548353     1.44046558     0.00011515     0.00002287     0.00035246
H         0.97532453    -0.11879958    -0.55280650     0.00012133    -0.00072378    -0.00058464
H         0.89153822    -0.18991274     1.87708267    -0.00099661     0.00004113     0.00035168
H        -0.95491052    -0.07779046     1.91266073    -0.00051150    -0.00076442     0.00081654
H        -1.02720776    -0.07802102    -0.62906064     0.00041073    -0.00004098    -0.00025120
     6
  Step:    38            Position(A)                                  Velocity(au)
C        -0.04128987     0.05968037    -0.14776860    -0.00005391     0.00009603    -0.00039367
N        -0.04318685    -0.06534571     1.44233948     0.00011793     0.00002660     0.00031756
H         0.97597469    -0.12297024    -0.55611300     0.00011739    -0.00077832    -0.00060614
H         0.88595479    -0.18956500     1.87909207    -0.00099607     0.00008584     0.00037582
H        -0.95779850    -0.08219767     1.91720240    -0.00051742    -0.00081809     0.00080879
H        -1.02492784    -0.07814203    -0.63057242     0.00039960    -0.00000339    -0.00030042
     6
  Step:    39            Position(A)                                  Velocity(au)
C        -0.04159426     0.06020995    -0.14982301    -0.00005541     0.00009461    -0.00033824
N        -0.04252583    -0.06518723     1.44400293     0.00011823     0.00003024     0.00027588
H         0.97663213    -0.12746935    -0.55955830     0.00012651    -0.00084072    -0.00063772
H         0.88044296    -0.18895659     1.88126899    -0.00097204     0.00013273     0.00041205
H        -0.96067410    -0.08690319     1.92166988    -0.00050779    -0.00086852     0.00079174
H        -1.02275664    -0.07805874    -0.63240700     0.00037069     0.00002886    -0.00036924
     6
  Step:    40            Position(A)                                  Velocity(au)
C        -0.04190681     0.06073372    -0.15153445    -0.00005665     0.00009403    -0.00027060
N        -0.04187058    -0.06500901     1.44541098     0.00011580     0.00003366     0.00022590
H         0.97738318    -0.13233035    -0.56321306     0.00015086    -0.00090407    -0.00068324
H         0.87513256    -0.18808728     1.88367967    -0.00092533     0.00017483     0.00045906
H        -0.96345203    -0.09186736     1.92601726    -0.00048260    -0.00090629     0.00076785
H        -1.02080076    -0.07782071    -0.63468331     0.00032291     0.00004735    -0.00045834
     6
  Step:    41            Position(A)                                  Velocity(au)
C        -0.04222460     0.06125623    -0.15283417    -0.00005698     0.00009412    -0.00019279
N        -0.04123731    -0.06481269     1.44651668     0.00011027     0.00003678     0.00016897
H         0.97831083    -0.13752941    -0.56716105     0.00018606    -0.00095755    -0.00074199
H         0.87014632    -0.18701113     1.88637721    -0.00085782     0.00020261     0.00051381
H        -0.96604421    -0.09698794     1.93021414    -0.00044116    -0.00092214     0.00073937
H        -1.01916344    -0.07753181    -0.63750725     0.00025947     0.00004449    -0.00056194
     6
  Step:    42            Position(A)                                  Velocity(au)
C        -0.04254051     0.06178041    -0.15367845    -0.00006320     0.00010723    -0.00012468
N        -0.04064419    -0.06460001     1.44729008     0.00011505     0.00004492     0.00012315
H         0.97945235    -0.14297941    -0.57146484     0.00025283    -0.00112456    -0.00091755
H         0.86559264    -0.18583404     1.88939382    -0.00087613     0.00023671     0.00064934
H        -0.96835827    -0.10212265     1.93423993    -0.00043442    -0.00103376     0.00080252
H        -1.01791516    -0.07732596    -0.64093274     0.00021213     0.00001960    -0.00075998
     6
  Step:    43            Position(A)                                  Velocity(au)
C        -0.04286296     0.06236373    -0.15435047    -0.00005370     0.00010285    -0.00011698
N        -0.04004682    -0.06433871     1.44795098     0.00010005     0.00004921     0.00011456
H         0.98061903    -0.14907702    -0.57650183     0.00016541    -0.00108623    -0.00088995
H         0.86098516    -0.18467599     1.89309305    -0.00077643     0.00019507     0.00068772
H        -0.97053245    -0.10781233     1.93858086    -0.00034473    -0.00102976     0.00075214
H        -1.01675928    -0.07727871    -0.64511221     0.00020533     0.00001142    -0.00074791
     6
  Step:    44            Position(A)                                  Velocity(au)
C        -0.04313716     0.06292321    -0.15497820    -0.00004593     0.00009890    -0.00010577
N        -0.03953257    -0.06405318     1.44856293     0.00008528     0.00005357     0.00010351
H         0.98129021    -0.15504871    -0.58135323     0.00007967    -0.00107764    -0.00085643
H         0.85696564    -0.18366657     1.89703515    -0.00066657     0.00018033     0.00073659
H        -0.97218861    -0.11356450     1.94259707    -0.00024943    -0.00105123     0.00068843
H        -1.01563369    -0.07719909    -0.64924287     0.00019850     0.00002568    -0.00074659
     6