     6
  Step:   120            Position(A)                                  Velocity(au)
C        -0.03365792    -0.02649841    -0.21720691    -0.00000942    -0.00004385     0.00001310
N        -0.04636067    -0.14423157     1.51477166     0.00006677    -0.00000987    -0.00000602
H         0.94112905     0.28329120    -0.65920061     0.00035548    -0.00037699     0.00005280
H         0.74912032     0.46216298     1.76249374    -0.00101807     0.00047836    -0.00099320
H        -0.91052309     0.36847531     1.84799656    -0.00042124    -0.00028775     0.00002577
H        -0.94735147     0.53633863    -0.52079369     0.00026830     0.00084602     0.00084224
