     6
  Step:     0            Position(A)                                  Velocity(au)
C        -0.03708417     0.00358292     0.00270437    -0.00007175     0.00007266    -0.00026464
N        -0.05294908    -0.05943802     1.31344320     0.00022547    -0.00005217     0.00022688
H         0.93387238     0.06638432    -0.51006069    -0.00008353    -0.00037870     0.00051330
H         0.90410407    -0.07888852     1.80435948    -0.00155936     0.00027767    -0.00070102
H        -0.91062818     0.01186617     1.82791463    -0.00086755     0.00004391     0.00043235
H        -0.96258936     0.11413794    -0.51446682     0.00023219    -0.00008377    -0.00024393
     6
  Step:     1            Position(A)                                  Velocity(au)
C        -0.03745150     0.00396834     0.00097353    -0.00006256     0.00006833    -0.00036677
N        -0.05165535    -0.05975573     1.31492596     0.00024502    -0.00006375     0.00031415
H         0.93344273     0.06443774    -0.50724990    -0.00007158    -0.00033358     0.00051167
H         0.89513965    -0.07724166     1.80043790    -0.00169904     0.00032361    -0.00072257
H        -0.91575435     0.01226690     1.83056290    -0.00099149     0.00010042     0.00052757
H        -0.96167020     0.11385901    -0.51598424     0.00010267    -0.00001877    -0.00031181
     6
  Step:     2            Position(A)                                  Velocity(au)
C        -0.03776860     0.00433048    -0.00130834    -0.00005346     0.00006408    -0.00046514
N        -0.05026839    -0.06013552     1.31688028     0.00025894    -0.00007473     0.00039835
H         0.93308926     0.06273470    -0.50446263    -0.00005529    -0.00028938     0.00050381
H         0.88551527    -0.07534795     1.79645405    -0.00179526     0.00036737    -0.00072123
H        -0.92147583     0.01296483     1.83368663    -0.00108285     0.00015220     0.00060494
H        -0.96146602     0.11393254    -0.51787827    -0.00002786     0.00004476    -0.00038051
     6
  Step:     3            Position(A)                                  Velocity(au)
C        -0.03803674     0.00466980    -0.00411851    -0.00004471     0.00005988    -0.00055834
N        -0.04882067    -0.06057387     1.31928686     0.00026647    -0.00008496     0.00047803
H         0.93283743     0.06126980    -0.50173448    -0.00003405    -0.00024612     0.00048890
H         0.87548618    -0.07321994     1.79254230    -0.00184049     0.00040840    -0.00069341
H        -0.92760879     0.01393313     1.83718548    -0.00113923     0.00019872     0.00066320
H        -0.96197522     0.11434900    -0.52014979    -0.00015645     0.00010610    -0.00044827
     6
  Step:     4            Position(A)                                  Velocity(au)
C        -0.03825853     0.00498660    -0.00742672    -0.00003657     0.00005570    -0.00064489
N        -0.04734839    -0.06106650     1.32211857     0.00026703    -0.00009428     0.00055166
H         0.93271613     0.06003769    -0.49910520    -0.00000734    -0.00020386     0.00046635
H         0.86534699    -0.07087271     1.78885554    -0.00182822     0.00044625    -0.00063625
H        -0.93395960     0.01514248     1.84095410    -0.00115947     0.00023954     0.00070174
H        -0.96318041     0.11509517    -0.52279043    -0.00028007     0.00016451    -0.00051336
     6
  Step:     5            Position(A)                                  Velocity(au)
C        -0.03843796     0.00528095    -0.01119475    -0.00002927     0.00005151    -0.00072329
N        -0.04589055    -0.06160840     1.32534013     0.00026028    -0.00010258     0.00061774
H         0.93275686     0.05903290    -0.49661733     0.00002512    -0.00016267     0.00043586
H         0.85542544    -0.06832327     1.78556081    -0.00175373     0.00048065    -0.00054797
H        -0.94033144     0.01656153     1.84488559    -0.00114383     0.00027432     0.00072069
H        -0.96504840     0.11615418    -0.52578278    -0.00039578     0.00021931    -0.00057413
     6
  Step:     6            Position(A)                                  Velocity(au)
C        -0.03858020     0.00555275    -0.01537661    -0.00002302     0.00004729    -0.00079222
N        -0.04448758    -0.06219395     1.32890835     0.00024616    -0.00010975     0.00067493
H         0.93299227     0.05824973    -0.49431458     0.00006332    -0.00012266     0.00039749
H         0.84607117    -0.06558975     1.78283269    -0.00161503     0.00051146    -0.00042829
H        -0.94653182     0.01815766     1.84887541    -0.00109399     0.00030293     0.00072090
H        -0.96753053     0.11750569    -0.52910087    -0.00050078     0.00026986    -0.00062907
     6
  Step:     7            Position(A)                                  Velocity(au)
C        -0.03869144     0.00580174    -0.01991949    -0.00001798     0.00004302    -0.00085061
N        -0.04317958    -0.06281708     1.33277321     0.00022500    -0.00011575     0.00072221
H         0.93345426     0.05768201    -0.49223978     0.00010686    -0.00008397     0.00035169
H         0.83763905    -0.06269048     1.78084398    -0.00141379     0.00053878    -0.00027894
H        -0.95237967     0.01989773     1.85282495    -0.00101294     0.00032538     0.00070393
H        -0.97056357     0.11912616    -0.53271072    -0.00059256     0.00031561    -0.00067673
     6
  Step:     8            Position(A)                                  Velocity(au)
C        -0.03877862     0.00602757    -0.02476520    -0.00001425     0.00003870    -0.00089779
N        -0.04200419    -0.06347149     1.33687966     0.00019751    -0.00012056     0.00075894
H         0.93417172     0.05732295    -0.49043285     0.00015495    -0.00004674     0.00029926
H         0.83046655    -0.05964304     1.77975393    -0.00115609     0.00056282    -0.00010381
H        -0.95771213     0.02174901     1.85664496    -0.00090487     0.00034188     0.00067191
H        -0.97407084     0.12098919    -0.53657021    -0.00066891     0.00035611    -0.00071570
     6
  Step:     9            Position(A)                                  Velocity(au)
C        -0.03884908     0.00622992    -0.02985222    -0.00001186     0.00003435    -0.00093347
N        -0.04099439    -0.06415086     1.34116975     0.00016482    -0.00012421     0.00078498
H         0.93516851     0.05716491    -0.48892885     0.00020647    -0.00001114     0.00024133
H         0.82484860    -0.05646365     1.77969549    -0.00085234     0.00058395     0.00009106
H        -0.96239081     0.02368018     1.86025869    -0.00077495     0.00035285     0.00062751
H        -0.97796409     0.12306599    -0.54062892    -0.00072828     0.00039107    -0.00074494
     6
  Step:    10            Position(A)                                  Velocity(au)
C        -0.03891020     0.00640853    -0.03511786    -0.00002011     0.00005590    -0.00178567
N        -0.04017622    -0.06484904     1.34558547     0.00023933    -0.00023636     0.00149273
H         0.93646160     0.05719939    -0.48775634     0.00048482     0.00004228     0.00033415
H         0.82101371    -0.05316680     1.78076378    -0.00096309     0.00112326     0.00055541
H        -0.96630664     0.02566231     1.86360433    -0.00117252     0.00066901     0.00106951
H        -0.98214783     0.12532633    -0.54483192    -0.00143536     0.00078372    -0.00142436
     6
  Step:    11            Position(A)                                  Velocity(au)
C        -0.03903115     0.00669797    -0.04476406    -0.00001249     0.00002455    -0.00085707
N        -0.03895511    -0.06613802     1.35367311     0.00010107    -0.00011585     0.00072039
H         0.93959808     0.05750533    -0.48642462     0.00032842     0.00003441     0.00007446
H         0.81669175    -0.04702000     1.78447579    -0.00029445     0.00055585     0.00040046
H        -0.97240402     0.02929713     1.86938279    -0.00051634     0.00032493     0.00051206
H        -0.99039285     0.12970149    -0.55309784    -0.00077328     0.00040212    -0.00078491
     6
  Step:    12            Position(A)                                  Velocity(au)
C        -0.03910539     0.00682302    -0.04956946    -0.00001438     0.00002010    -0.00085192
N        -0.03850859    -0.06678808     1.35769418     0.00005840    -0.00011551     0.00070963
H         0.94158241     0.05778449    -0.48619487     0.00037692     0.00006400     0.00000815
H         0.81611164    -0.04386619     1.78733314     0.00008214     0.00056744     0.00061287
H        -0.97480443     0.03110754     1.87205086    -0.00033914     0.00031901     0.00043819
H        -0.99471704     0.13200127    -0.55746972    -0.00076022     0.00041517    -0.00076896
     6
  Step:    13            Position(A)                                  Velocity(au)
C        -0.03919266     0.00692382    -0.05433509    -0.00001703     0.00001592    -0.00084408
N        -0.03829897    -0.06743576     1.36164559     0.00001743    -0.00011514     0.00069676
H         0.94383268     0.05822433    -0.48633307     0.00042286     0.00009178    -0.00005616
H         0.81761454    -0.04064498     1.79136114     0.00044016     0.00058026     0.00081433
H        -0.97621416     0.03288110     1.87430570    -0.00016585     0.00031246     0.00036637
H        -0.99893362     0.13436580    -0.56173686    -0.00073645     0.00042579    -0.00074877
     6
  Step:    14            Position(A)                                  Velocity(au)
C        -0.03929662     0.00700181    -0.05904719    -0.00002027     0.00001200    -0.00083515
N        -0.03831287    -0.06808094     1.36551769    -0.00002067    -0.00011491     0.00068344
H         0.94633043     0.05881506    -0.48682550     0.00046560     0.00011809    -0.00011796
H         0.82105398    -0.03735080     1.79647677     0.00076738     0.00059460     0.00099949
H        -0.97666665     0.03461601     1.87616458     0.00000002     0.00030629     0.00029879
H        -1.00298621     0.13678218    -0.56587721    -0.00070424     0.00043486    -0.00072593
     6
  Step:    15            Position(A)                                  Velocity(au)
C        -0.03941997     0.00705838    -0.06370070    -0.00002392     0.00000831    -0.00082610
N        -0.03853076    -0.06872440     1.36930989    -0.00005501    -0.00011491     0.00067077
H         0.94905402     0.05954868    -0.48765593     0.00050450     0.00014326    -0.00017699
H         0.82622021    -0.03397698     1.80256974     0.00105434     0.00061032     0.00116414
H        -0.97621394     0.03631591     1.87765639     0.00015586     0.00030123     0.00023703
H        -1.00683113     0.13924247    -0.56987766    -0.00066526     0.00044303    -0.00070152
     6
  Step:    16            Position(A)                                  Velocity(au)
C        -0.03956440     0.00709479    -0.06829588    -0.00002781     0.00000481    -0.00081734
N        -0.03892873    -0.06936741     1.37302733    -0.00008493    -0.00011515     0.00065927
H         0.95197857     0.06041891    -0.48880704     0.00053878     0.00016752    -0.00023309
H         0.83285787    -0.03051796     1.80950992     0.00129391     0.00062686     0.00130489
H        -0.97492165     0.03798840     1.87881827     0.00029951     0.00029779     0.00018228
H        -1.01043419     0.14174215    -0.57373106    -0.00062067     0.00045062    -0.00067608
     6
  Step:    17            Position(A)                                  Velocity(au)
C        -0.03973075     0.00711217    -0.07283503    -0.00003178     0.00000149    -0.00080880
N        -0.03947988    -0.07001129     1.37667771    -0.00010992    -0.00011559     0.00064902
H         0.95507530     0.06142079    -0.49026084     0.00056753     0.00019100    -0.00028602
H         0.84068061    -0.02697132     1.81715278     0.00148103     0.00064340     0.00141909
H        -0.97286665     0.03964388     1.87969345     0.00042885     0.00029633     0.00013551
H        -1.01376755     0.14427851    -0.57743334    -0.00057122     0.00045773    -0.00064983
     6
  Step:    18            Position(A)                                  Velocity(au)
C        -0.03991896     0.00711143    -0.07732012    -0.00003567    -0.00000168    -0.00080019
N        -0.04015521    -0.07065710     1.38026879    -0.00012964    -0.00011615     0.00063980
H         0.95831085     0.06255005    -0.49199834     0.00058977     0.00021376    -0.00033549
H         0.84938262    -0.02333913     1.82534350     0.00161259     0.00065897     0.00150487
H        -0.97013671     0.04129468     1.88033025     0.00054166     0.00029711     0.00009766
H        -1.01680761     0.14684933    -0.58098155    -0.00051751     0.00046429    -0.00062278
     6
  Step:    19            Position(A)                                  Velocity(au)
C        -0.04012818     0.00709340    -0.08175138    -0.00003932    -0.00000473    -0.00079111
N        -0.04092441    -0.07130554     1.38380685    -0.00014386    -0.00011676     0.00063125
H         0.96164695     0.06380263    -0.49399918     0.00060456     0.00023573    -0.00038114
H         0.85864944    -0.01962852     1.83392130     0.00168759     0.00067262     0.00156133
H        -0.96683099     0.04295450     1.88078165     0.00063570     0.00030035     0.00006959
H        -1.01953410     0.14945199    -0.58437288    -0.00046016     0.00047015    -0.00059494
     6
  Step:    20            Position(A)                                  Velocity(au)
C        -0.04035672     0.00705879    -0.08612681    -0.00004261    -0.00000765    -0.00078120
N        -0.04175665    -0.07195687     1.38729591    -0.00015253    -0.00011735     0.00062298
H         0.96504082     0.06517420    -0.49624124     0.00061115     0.00025683    -0.00042260
H         0.86816903    -0.01585146     1.84272440     0.00170723     0.00068356     0.00158866
H        -0.96306005     0.04463820     1.88110495     0.00070887     0.00030626     0.00005208
H        -1.02193010     0.15208314    -0.58760451    -0.00039985     0.00047520    -0.00056638
     6
  Step:    21            Position(A)                                  Velocity(au)
C        -0.04060223     0.00700828    -0.09044240    -0.00004540    -0.00001046    -0.00077021
N        -0.04262136    -0.07261104     1.39073759    -0.00015577    -0.00011787     0.00061462
H         0.96844607     0.06665993    -0.49870072     0.00060904     0.00027697    -0.00045958
H         0.87764265    -0.01202382     1.85159542     0.00167464     0.00069121     0.00158807
H        -0.95894473     0.04636171     1.88136107     0.00075947     0.00031504     0.00004572
H        -1.02398253     0.15473864    -0.59067396    -0.00033743     0.00047932    -0.00053727
     6
  Step:    22            Position(A)                                  Velocity(au)
C        -0.04086169     0.00694249    -0.09469270    -0.00004761    -0.00001315    -0.00075801
N        -0.04348905    -0.07326774     1.39413138    -0.00015384    -0.00011831     0.00060590
H         0.97181419     0.06825450    -0.50135245     0.00059803     0.00029606    -0.00049188
H         0.88679337    -0.00816427     1.86038602     0.00159449     0.00069522     0.00156166
H        -0.95461370     0.04814188     1.88161346     0.00078639     0.00032685     0.00005085
H        -1.02568281     0.15741390    -0.59357967    -0.00027382     0.00048251    -0.00050787
     6
  Step:    23            Position(A)                                  Velocity(au)
C        -0.04113166     0.00686208    -0.09887143    -0.00004916    -0.00001572    -0.00074457
N        -0.04433201    -0.07392659     1.39747512    -0.00014711    -0.00011866     0.00059661
H         0.97509619     0.06995216    -0.50417042     0.00057824     0.00031406    -0.00051943
H         0.89537337    -0.00429294     1.86896100     0.00147257     0.00069551     0.00151215
H        -0.95020006     0.04999633     1.88192653     0.00078927     0.00034185     0.00006748
H        -1.02702736     0.16010418    -0.59632151    -0.00020999     0.00048481    -0.00047856
     6
  Step:    24            Position(A)                                  Velocity(au)
C        -0.04140832     0.00676766    -0.10297222    -0.00005000    -0.00001819    -0.00072997
N        -0.04512493    -0.07458720     1.40076561    -0.00013609    -0.00011894     0.00058666
H         0.97824420     0.07174689    -0.50712851     0.00055005     0.00033096    -0.00054231
H         0.90316827    -0.00043027     1.87720108     0.00131531     0.00069215     0.00144274
H        -0.94583706     0.05194323     1.88236378     0.00076851     0.00036011     0.00009525
H        -1.02801790     0.16280500    -0.59890127    -0.00014694     0.00048633    -0.00044974
     6
  Step:    25            Position(A)                                  Velocity(au)
C        -0.04168768     0.00665983    -0.10698909    -0.00005011    -0.00002055    -0.00071436
N        -0.04584540    -0.07524928     1.40399909    -0.00012134    -0.00011919     0.00057602
H         0.98121302     0.07363263    -0.51020118     0.00051407     0.00034678    -0.00056069
H         0.91000042     0.00340415     1.88500508     0.00112956     0.00068542     0.00135686
H        -0.94165373     0.05400094     1.88298580     0.00072536     0.00038164     0.00013347
H        -1.02866143     0.16551246    -0.60132285    -0.00008561     0.00048722    -0.00042181
     6
  Step:    26            Position(A)                                  Velocity(au)
C        -0.04196565     0.00653916    -0.11091682    -0.00004950    -0.00002281    -0.00069793
N        -0.04647440    -0.07591269     1.40717167    -0.00010351    -0.00011942     0.00056473
H         0.98396125     0.07560351    -0.51336413     0.00047108     0.00036158    -0.00057488
H         0.91573041     0.00719245     1.89229106     0.00092212     0.00067570     0.00125801
H        -0.93777016     0.05618754     1.88384810     0.00066185     0.00040636     0.00018101
H        -1.02896998     0.16822350    -0.60359234    -0.00002685     0.00048766    -0.00039519
     6
  Step:    27            Position(A)                                  Velocity(au)
C        -0.04223819     0.00640618    -0.11475119    -0.00004817    -0.00002498    -0.00068087
N        -0.04699654    -0.07657746     1.41027975    -0.00008323    -0.00011969     0.00055287
H         0.98645213     0.07765401    -0.51659479     0.00042196     0.00037546    -0.00058523
H         0.92025591     0.01091906     1.89899614     0.00069936     0.00066346     0.00114949
H        -0.93429295     0.05852027     1.88499894     0.00058077     0.00043406     0.00023642
H        -1.02896010     0.17093606    -0.60571793     0.00002856     0.00048786    -0.00037022
     6
  Step:    28            Position(A)                                  Velocity(au)
C        -0.04250138     0.00626137    -0.11848903    -0.00004616    -0.00002707    -0.00066337
N        -0.04740007    -0.07724376     1.41332032    -0.00006118    -0.00011999     0.00054057
H         0.98865404     0.07977913    -0.51987264     0.00036768     0.00038851    -0.00059213
H         0.92350825     0.01457098     1.90507486     0.00046702     0.00064915     0.00103428
H        -0.93131125     0.06101485     1.88647737     0.00048552     0.00046443     0.00029790
H        -1.02865233     0.17364911    -0.60770972     0.00007999     0.00048799    -0.00034724
     6
  Step:    29            Position(A)                                  Velocity(au)
C        -0.04275146     0.00610511    -0.12212815    -0.00004349    -0.00002910    -0.00064559
N        -0.04767691    -0.07791183     1.41629112    -0.00003800    -0.00012036     0.00052797
H         0.99054084     0.08197441    -0.52317946     0.00030920     0.00040084    -0.00059599
H         0.92544937     0.01813785     1.91049776     0.00023033     0.00063326     0.00091513
H        -0.92889381     0.06368490     1.88831170     0.00037995     0.00049703     0.00036343
H        -1.02807058     0.17636263    -0.60957935     0.00012689     0.00048822    -0.00032648
     6
  Step:    30            Position(A)                                  Velocity(au)
C        -0.04298495     0.00593776    -0.12566725    -0.00004022    -0.00003108    -0.00062765
N        -0.04782263    -0.07858201     1.41919070    -0.00001434    -0.00012079     0.00051519
H         0.99209198     0.08423603    -0.52649934     0.00024752     0.00041256    -0.00059722
H         0.92606921     0.02161204     1.91524997    -0.00000595     0.00061625     0.00079449
H        -0.92708667     0.06654126     1.89051828     0.00026823     0.00053132     0.00043079
H        -1.02724145     0.17907751    -0.61133977     0.00016883     0.00048870    -0.00030814
     6
  Step:    31            Position(A)                                  Velocity(au)
C        -0.04319862     0.00575959    -0.12910564    -0.00003640    -0.00003302    -0.00060962
N        -0.04783637    -0.07925458     1.42201836     0.00000917    -0.00012126     0.00050233
H         0.99329246     0.08656079    -0.52981865     0.00018361     0.00042377    -0.00059621
H         0.92538327     0.02498857     1.91932994    -0.00023741     0.00059858     0.00067463
H        -0.92591191     0.06959146     1.89310074     0.00015468     0.00056664     0.00049768
H        -1.02619373     0.18179535    -0.61300484     0.00020546     0.00048952    -0.00029235
     6
  Step:    32            Position(A)                                  Velocity(au)
C        -0.04338957     0.00557079    -0.13244293    -0.00003209    -0.00003492    -0.00059151
N        -0.04772069    -0.07992978     1.42477387     0.00003194    -0.00012177     0.00048945
H         0.99413277     0.08894609    -0.53312593     0.00011845     0.00043458    -0.00059331
H         0.92343049     0.02826501     1.92274818    -0.00045999     0.00058069     0.00055763
H        -0.92536749     0.07283925     1.89604981     0.00004355     0.00060230     0.00056179
H        -1.02495781     0.18451828    -0.61458906     0.00023655     0.00049074    -0.00027918
     6
  Step:    33            Position(A)                                  Velocity(au)
C        -0.04355526     0.00537151    -0.13567870    -0.00002736    -0.00003681    -0.00057330
N        -0.04748143    -0.08060773     1.42745727     0.00005340    -0.00012229     0.00047658
H         0.99460875     0.09138993    -0.53641164     0.00005300     0.00044508    -0.00058883
H         0.92027169     0.03144135     1.92552644    -0.00066985     0.00056298     0.00044543
H        -0.92542799     0.07628442     1.89934357    -0.00006112     0.00063757     0.00062091
H        -1.02356513     0.18724862    -0.61610720     0.00026193     0.00049237    -0.00026867
     6
  Step:    34            Position(A)                                  Velocity(au)
C        -0.04369353     0.00516183    -0.13881244    -0.00002228    -0.00003868    -0.00055498
N        -0.04712743    -0.08128845     1.43006874     0.00007302    -0.00012280     0.00046373
H         0.99472159     0.09389108    -0.53966802    -0.00001178     0.00045546    -0.00058308
H         0.91598835     0.03451985     1.92769704    -0.00086330     0.00054582     0.00033992
H        -0.92604650     0.07992281     1.90294825    -0.00015566     0.00067178     0.00067298
H        -1.02204771     0.18998860    -0.61757409     0.00028155     0.00049431    -0.00026082
     6
  Step:    35            Position(A)                                  Velocity(au)
C        -0.04380274     0.00494180    -0.14184371    -0.00001696    -0.00004055    -0.00053659
N        -0.04667031    -0.08197182     1.43260864     0.00009034    -0.00012328     0.00045096
H         0.99447785     0.09644941    -0.54288876    -0.00007488     0.00046602    -0.00057625
H         0.91068168     0.03750461     1.92930249    -0.00103687     0.00052942     0.00024294
H        -0.92715719     0.08374693     1.90681944    -0.00023698     0.00070449     0.00071623
H        -1.02043755     0.19273971    -0.61900451     0.00029547     0.00049631    -0.00025563
     6
  Step:    36            Position(A)                                  Velocity(au)
C        -0.04388193     0.00471148    -0.14477250    -0.00001162    -0.00004240    -0.00051815
N        -0.04612401    -0.08265772     1.43507773     0.00010502    -0.00012373     0.00043829
H         0.99388987     0.09906729    -0.54606857    -0.00013495     0.00047789    -0.00056837
H         0.90447157     0.04040025     1.93039540    -0.00118730     0.00051319     0.00015641
H        -0.92867875     0.08774778     1.91090362    -0.00030264     0.00073621     0.00074902
H        -1.01876589     0.19550128    -0.62041346     0.00030395     0.00049734    -0.00025341
     6
  Step:    37            Position(A)                                  Velocity(au)
C        -0.04393175     0.00447092    -0.14759853    -0.00001041    -0.00004726    -0.00046868
N        -0.04550394    -0.08334607     1.43747651     0.00011950    -0.00012248     0.00040475
H         0.99297897     0.10175706    -0.54920134    -0.00013432     0.00051437    -0.00060123
H         0.89749488     0.04320436     1.93103965    -0.00131798     0.00047659     0.00009341
H        -0.93051845     0.09192365     1.91513850    -0.00036220     0.00077925     0.00077935
H        -1.01706172     0.19826348    -0.62181904     0.00027797     0.00049490    -0.00031125
     6
  Step:    38            Position(A)                                  Velocity(au)
C        -0.04395963     0.00420158    -0.15013072    -0.00000171    -0.00004935    -0.00044784
N        -0.04482150    -0.08402347     1.43967581     0.00012580    -0.00012218     0.00039051
H         0.99206482     0.10451128    -0.55258506    -0.00019320     0.00049740    -0.00060537
H         0.88988625     0.04594826     1.93134589    -0.00140981     0.00049394     0.00002692
H        -0.93264115     0.09616216     1.91954671    -0.00039194     0.00077003     0.00079668
H        -1.01556747     0.20114973    -0.62353817     0.00026715     0.00052455    -0.00030839
     6
  Step:    39            Position(A)                                  Velocity(au)
C        -0.04395078     0.00392289    -0.15257177     0.00000474    -0.00005102    -0.00043163
N        -0.04410691    -0.08470286     1.44181310     0.00012983    -0.00012257     0.00037942
H         0.99083348     0.10728058    -0.55592392    -0.00024811     0.00050108    -0.00059688
H         0.88183911     0.04868956     1.93133864    -0.00147268     0.00049444    -0.00002169
H        -0.93487089     0.10047470     1.92398560    -0.00040170     0.00078246     0.00079604
H        -1.01409503     0.20408858    -0.62524372     0.00026175     0.00053322    -0.00030677
     6
  Step:    40            Position(A)                                  Velocity(au)
C        -0.04390695     0.00363505    -0.15492356     0.00001092    -0.00005265    -0.00041574
N        -0.04337983    -0.08538448     1.44388898     0.00013025    -0.00012300     0.00036838
H         0.98930981     0.11007534    -0.55921293    -0.00029844     0.00050592    -0.00058787
H         0.87353336     0.05143860     1.93110499    -0.00150235     0.00049782    -0.00005430
H        -0.93710166     0.10485068     1.92838607    -0.00039278     0.00079211     0.00078336
H        -1.01266095     0.20707065    -0.62694460     0.00025343     0.00054086    -0.00030642
     6
  Step:    41            Position(A)                                  Velocity(au)
C        -0.04382950     0.00333825    -0.15718790     0.00001684    -0.00005426    -0.00040018
N        -0.04266071    -0.08606862     1.44590343     0.00012699    -0.00012351     0.00035730
H         0.98751979     0.11289809    -0.56245137    -0.00034388     0.00051108    -0.00057895
H         0.86515786     0.05421706     1.93073568    -0.00149772     0.00050555    -0.00007035
H        -0.93923206     0.10926984     1.93268365    -0.00036628     0.00079796     0.00075953
H        -1.01128112     0.21009404    -0.62864600     0.00024245     0.00054835    -0.00030682
     6
  Step:    42            Position(A)                                  Velocity(au)
C        -0.04371998     0.00303263    -0.15936659     0.00002245    -0.00005584    -0.00038497
N        -0.04196987    -0.08675580     1.44785593     0.00012016    -0.00012414     0.00034611
H         0.98549189     0.11574966    -0.56564079    -0.00038400     0.00051638    -0.00057049
H         0.85690482     0.05705153     1.93032393    -0.00145871     0.00051838    -0.00006960
H        -0.94116832     0.11371004     1.93681882    -0.00032380     0.00079988     0.00072554
H        -1.00996917     0.21315870    -0.63035113     0.00022926     0.00055591    -0.00030768
     6
  Step:    43            Position(A)                                  Velocity(au)
C        -0.04358033     0.00271834    -0.16146158     0.00002767    -0.00005741    -0.00037015
N        -0.04132680    -0.08744675     1.44974563     0.00010994    -0.00012494     0.00033476
H         0.98325697     0.11863048    -0.56878454    -0.00041842     0.00052179    -0.00056281
H         0.84896445     0.05997167     1.92996309    -0.00138616     0.00053675    -0.00005226
H        -0.94282665     0.11814945     1.94073805    -0.00026729     0.00079805     0.00068257
H        -1.00873605     0.21626529    -0.63206163     0.00021438     0.00056365    -0.00030872
     6
  Step:    44            Position(A)                                  Velocity(au)
C        -0.04341283     0.00239544    -0.16347494     0.00003246    -0.00005897    -0.00035573
N        -0.04074965    -0.08814250     1.45157151     0.00009662    -0.00012594     0.00032325
H         0.98084775     0.12154112    -0.57188760    -0.00044686     0.00052737    -0.00055618
H         0.84151946     0.06300905     1.92974386    -0.00128201     0.00056091    -0.00001912
H        -0.94413502     0.12256778     1.94439480    -0.00019896     0.00079282     0.00063191
H        -1.00758977     0.21941485    -0.63377774     0.00019831     0.00057165    -0.00030972
     6