    14
  Step:     0            Position(A)                                  Velocity(au)
C        -6.00287769    -0.79212646    -0.09063500     0.00024078     0.00008910     0.00005358
C        -4.65741491    -0.73752132     0.12025575    -0.00036766    -0.00016193     0.00004261
H        -6.52025924     0.03443723    -0.50188294     0.00012105     0.00028668    -0.00029404
H        -6.61758614    -1.67747730    -0.09466452    -0.00135732     0.00064594    -0.00048156
H        -4.13783620    -1.65350752     0.47798515     0.00078428     0.00004341    -0.00012823
C        -3.94131882     0.46818975    -0.07699708     0.00007787    -0.00017815     0.00002137
C        -2.57862002     0.54484831     0.18476728     0.00044191     0.00009247     0.00006687
H        -4.40681155     1.40554602    -0.42752844     0.00010242     0.00065472    -0.00026453
H        -1.97711148    -0.31023396     0.65163455    -0.00027419    -0.00053977    -0.00032190
C        -1.82215877     1.74470248     0.06000128    -0.00020537    -0.00004775    -0.00006634
H        -2.36882931     2.69223485    -0.15495291     0.00010603     0.00053128     0.00013161
N        -0.53869801     1.72526192     0.14938365    -0.00000781     0.00007593    -0.00002449
H        -0.02125276     2.60054329     0.14680459    -0.00035588     0.00049359    -0.00005149
H        -0.00417717     0.94047025     0.48835560    -0.00125226    -0.00071301     0.00034315
    14
  Step:     1            Position(A)                                  Velocity(au)
C        -6.00041027    -0.79121836    -0.09013889     0.00020425     0.00007704     0.00003557
C        -4.66130000    -0.73932184     0.12079142    -0.00033713    -0.00016649     0.00005589
H        -6.51952972     0.03900266    -0.50531959     0.00002664     0.00053381    -0.00032500
H        -6.63229891    -1.67111857    -0.09938971    -0.00131523     0.00052882    -0.00037961
H        -4.12933230    -1.65223062     0.47628542     0.00075892     0.00019250    -0.00018355
C        -3.94079110     0.46620416    -0.07682478     0.00001780    -0.00018342     0.00000966
C        -2.57324555     0.54588654     0.18566693     0.00053720     0.00009600     0.00009697
H        -4.40601385     1.41200887    -0.43027410     0.00005291     0.00050432    -0.00022894
H        -1.98146806    -0.31524890     0.64705786    -0.00051098    -0.00037569    -0.00051163
C        -1.82502018     1.74411876     0.05922309    -0.00031387    -0.00005723    -0.00007572
H        -2.36680810     2.69738511    -0.15355555     0.00026099     0.00040043     0.00012369
N        -0.53831568     1.72620689     0.14915844     0.00007523     0.00009667    -0.00001670
H        -0.02510059     2.60584075     0.14618161    -0.00034604     0.00046337    -0.00005994
H        -0.01796411     0.93212253     0.49209789    -0.00126230    -0.00080130     0.00033875
    14
  Step:     2            Position(A)                                  Velocity(au)
C        -5.99840931    -0.79044098    -0.08985691     0.00015557     0.00006573     0.00001429
C        -4.66479036    -0.74116369     0.12147850    -0.00029610    -0.00016903     0.00007002
H        -6.51967633     0.04611526    -0.50899299    -0.00003551     0.00074437    -0.00033404
H        -6.64635929    -1.66590827    -0.10296921    -0.00123815     0.00043733    -0.00027274
H        -4.12123330    -1.64929616     0.47396962     0.00071295     0.00034150    -0.00023877
C        -3.94092942     0.46417715    -0.07678577    -0.00004348    -0.00018624    -0.00000272
C        -2.56686776     0.54694852     0.18688874     0.00062435     0.00009729     0.00012533
H        -4.40565413     1.41657901    -0.43253698     0.00001971     0.00031461    -0.00017845
H        -1.98829006    -0.31845294     0.64044161    -0.00071847    -0.00021609    -0.00069070
C        -1.82902525     1.74345047     0.05834479    -0.00041226    -0.00006355    -0.00008442
H        -2.36311959     2.70099497    -0.15224685     0.00040602     0.00025572     0.00011384
N        -0.53705221     1.72737686     0.14901825     0.00015184     0.00011654    -0.00000894
H        -0.02882308     2.61068045     0.14549327    -0.00033047     0.00041414    -0.00006339
H        -0.03179243     0.92294017     0.49576636    -0.00126053    -0.00086289     0.00032867
    14
  Step:     3            Position(A)                                  Velocity(au)
C        -5.99700684    -0.78978032    -0.08982630     0.00009542     0.00005612    -0.00001034
C        -4.66777780    -0.74301961     0.12232315    -0.00024608    -0.00016869     0.00008441
H        -6.52030652     0.05528723    -0.51262739    -0.00006041     0.00090554    -0.00031629
H        -6.65938574    -1.66155121    -0.10535644    -0.00112769     0.00037250    -0.00016244
H        -4.11373515    -1.64475955     0.47106195     0.00065209     0.00048047    -0.00028970
C        -3.94174223     0.46212971    -0.07688428    -0.00010494    -0.00018764    -0.00001519
C        -2.55958668     0.54801497     0.18840881     0.00070129     0.00009729     0.00015108
H        -4.40558257     1.41889148    -0.43417801    -0.00000259     0.00009794    -0.00011771
H        -1.99718594    -0.31997639     0.63194742    -0.00088387    -0.00007639    -0.00085099
C        -1.83403919     1.74272853     0.05737633    -0.00049657    -0.00006732    -0.00009202
H        -2.35792558     2.70297940    -0.15106506     0.00053174     0.00010938     0.00009906
N        -0.53499390     1.72875654     0.14896276     0.00021945     0.00013451    -0.00000121
H        -0.03233017     2.61490085     0.14479474    -0.00030431     0.00035470    -0.00006186
H        -0.04554054     0.91324520     0.49928828    -0.00124804    -0.00089305     0.00031128
    14
  Step:     4            Position(A)                                  Velocity(au)
C        -5.99632181    -0.78921334    -0.09008308     0.00002546     0.00004887    -0.00003802
C        -4.67017388    -0.74485403     0.12332509    -0.00018916    -0.00016484     0.00009848
H        -6.52099787     0.06592579    -0.51591248    -0.00004747     0.00101091    -0.00027030
H        -6.67102960    -1.65775915    -0.10652278    -0.00098807     0.00033234    -0.00005043
H        -4.10696750    -1.63878485     0.46763195     0.00058263     0.00059968    -0.00033234
C        -3.94322515     0.46007221    -0.07711814    -0.00016517    -0.00018848    -0.00002716
C        -2.55152570     0.54907690     0.19019384     0.00076574     0.00009686     0.00017336
H        -4.40571079     1.41872165    -0.43511218    -0.00001968    -0.00013261    -0.00005179
H        -2.00762651    -0.32012417     0.62182467    -0.00099514     0.00002718    -0.00098463
C        -1.83988860     1.74197775     0.05633175    -0.00056373    -0.00006899    -0.00009820
H        -2.35148683     2.70338789    -0.15007974     0.00062959    -0.00002640     0.00007671
N        -0.53225134     1.73031962     0.14899172     0.00027623     0.00014966     0.00000649
H        -0.03548049     2.61844021     0.14413992    -0.00026332     0.00029398    -0.00005555
H        -0.05909560     0.90340292     0.50257630    -0.00122523    -0.00088887     0.00028563
    14
  Step:     5            Position(A)                                  Velocity(au)
C        -5.99644976    -0.78871125    -0.09065809    -0.00005178     0.00004439    -0.00006814
C        -4.67191613    -0.74662580     0.12447751    -0.00012796    -0.00015713     0.00011163
H        -6.52134503     0.07740282    -0.51854078     0.00000013     0.00105975    -0.00019769
H        -6.68100170    -1.65428072    -0.10645960    -0.00082566     0.00031250     0.00006143
H        -4.10098902    -1.63164051     0.46379139     0.00051113     0.00068995    -0.00036307
C        -3.94535573     0.45800643    -0.07747850    -0.00022229    -0.00018944    -0.00003801
C        -2.54283460     0.55013405     0.19220136     0.00081520     0.00009668     0.00019138
H        -4.40601315     1.41599033    -0.43531111    -0.00003728    -0.00036369     0.00001412
H        -2.01895663    -0.31938172     0.61040671    -0.00104183     0.00007849    -0.00108445
C        -1.84637183     1.74121922     0.05522802    -0.00061164    -0.00006876    -0.00010276
H        -2.34415212     2.70240177    -0.14938691     0.00069223    -0.00013994     0.00004466
N        -0.52895086     1.73203056     0.14910482     0.00032112     0.00016126     0.00001415
H        -0.03809082     2.62133212     0.14357958    -0.00020432     0.00023996    -0.00004480
H        -0.07234470     0.89379955     0.50553697    -0.00119167    -0.00084961     0.00025160
    14
  Step:     6            Position(A)                                  Velocity(au)
C        -5.99745462    -0.78824214    -0.09157370    -0.00013319     0.00004287    -0.00009982
C        -4.67297331    -0.74829152     0.12576718    -0.00006544    -0.00014546     0.00012330
H        -6.52099502     0.08910995    -0.52023725     0.00007638     0.00105584    -0.00010234
H        -6.68909247    -1.65092267    -0.10517890    -0.00064836     0.00030705     0.00017123
H        -4.09578553    -1.62369092     0.45968921     0.00044407     0.00074317    -0.00037877
C        -3.94808816     0.45592788    -0.07794962    -0.00027407    -0.00019104    -0.00004711
C        -2.53369162     0.55119187     0.19438067     0.00084717     0.00009706     0.00020449
H        -4.40652626     1.41076519    -0.43480322    -0.00006098    -0.00058193     0.00007489
H        -2.03041858    -0.31840707     0.59810028    -0.00101642     0.00006337    -0.00114483
C        -1.85326932     1.74047339     0.05408364    -0.00063905    -0.00006658    -0.00010562
H        -2.33634305     2.70032649    -0.14910262     0.00071393    -0.00022070     0.00000140
N        -0.52522614     1.73384745     0.14930135     0.00035378     0.00016892     0.00002171
H        -0.03995039     2.62368979     0.14315989    -0.00012569     0.00019871    -0.00003009
H        -0.08516564     0.88481601     0.50808062    -0.00114625    -0.00077698     0.00021001
    14
  Step:     7            Position(A)                                  Velocity(au)
C        -5.99936344    -0.78777332    -0.09284184    -0.00021529     0.00004431    -0.00013207
C        -4.67334779    -0.74980806     0.12717493    -0.00000464    -0.00012997     0.00013298
H        -6.51967406     0.10050131    -0.52077965     0.00017340     0.00100613     0.00001033
H        -6.69518574    -1.64756352    -0.10271357    -0.00046502     0.00030908     0.00027716
H        -4.09127411    -1.61538215     0.45550502     0.00038731     0.00075294    -0.00037708
C        -3.95135144     0.45382713    -0.07850910    -0.00031833    -0.00019372    -0.00005389
C        -2.52430106     0.55225736     0.19667508     0.00085971     0.00009790     0.00021234
H        -4.40734713     1.40325939    -0.43367273    -0.00009615    -0.00077427     0.00012556
H        -2.04119268    -0.31799543     0.58536140    -0.00091604    -0.00002730    -0.00116315
C        -1.86035236     1.73976271     0.05291748    -0.00064555    -0.00006216    -0.00010678
H        -2.32853361     2.69757343    -0.14935632     0.00069119    -0.00026050    -0.00005390
N        -0.52121133     1.73572595     0.14957975     0.00037439     0.00017262     0.00002906
H        -0.04084056     2.62567936     0.14292128    -0.00002765     0.00017356    -0.00001197
H        -0.09742103     0.87680164     0.51013127    -0.00108736    -0.00067504     0.00016251
    14
  Step:     8            Position(A)                                  Velocity(au)
C        -6.00216458    -0.78727285    -0.09446306    -0.00029464     0.00004858    -0.00016387
C        -4.67307490    -0.75113480     0.12867641     0.00005161    -0.00011095     0.00014026
H        -6.51720147     0.11112100    -0.52001135     0.00028245     0.00091957     0.00013411
H        -6.69926571    -1.64416086    -0.09911542    -0.00028489     0.00031129     0.00037760
H        -4.08731248    -1.60721901     0.45143980     0.00034544     0.00071535    -0.00035661
C        -3.95505223     0.45168990    -0.07912853    -0.00035334    -0.00019796    -0.00005784
C        -2.51488385     0.55333367     0.19902607     0.00085194     0.00009853     0.00021501
H        -4.40862978     1.39382656    -0.43205637    -0.00014772    -0.00092836     0.00016157
H        -2.05045865    -0.31900438     0.57265415    -0.00074424    -0.00019377    -0.00114128
C        -1.86739203     1.73911349     0.05174761    -0.00063152    -0.00005511    -0.00010638
H        -2.32122189     2.69462745    -0.15028184     0.00062333    -0.00025472    -0.00012119
N        -0.51703563     1.73762387     0.14993710     0.00038364     0.00017278     0.00003607
H        -0.04055523     2.62748678     0.14289803     0.00008771     0.00016464     0.00000899
H        -0.10895372     0.87004826     0.51163577    -0.00101318    -0.00055003     0.00011152
    14
  Step:     9            Position(A)                                  Velocity(au)
C        -6.00580926    -0.78671058    -0.09642677    -0.00036802     0.00005547    -0.00019422
C        -4.67221867    -0.75223529     0.13024332     0.00010101    -0.00008888     0.00014484
H        -6.51349486     0.12061865    -0.51784563     0.00039454     0.00080626     0.00026253
H        -6.70141828    -1.64075348    -0.09445283    -0.00011706     0.00030638     0.00047124
H        -4.08371695    -1.59973245     0.44770350     0.00032111     0.00062990    -0.00031724
C        -3.95908142     0.44949633    -0.07977455    -0.00037800    -0.00020428    -0.00005859
C        -2.50566331     0.55441279     0.20137889     0.00082435     0.00009753     0.00021311
H        -4.41057875     1.38294979    -0.43013809    -0.00021979    -0.00103336     0.00017901
H        -2.05747426    -0.32223452     0.56039374    -0.00051183    -0.00042426    -0.00108639
C        -1.87416816     1.73855708     0.05059030    -0.00059812    -0.00004492    -0.00010461
H        -2.31489712     2.69200086    -0.15200751     0.00051279    -0.00020353    -0.00019940
N        -0.51281847     1.73950584     0.15036884     0.00038255     0.00017020     0.00004257
H        -0.03892165     2.62928126     0.14311798     0.00021649     0.00016886     0.00003220
H        -0.11958625     0.86476870     0.51257096    -0.00092197    -0.00040989     0.00005998
    14
  Step:    10            Position(A)                                  Velocity(au)
C        -6.01021570    -0.78605927    -0.09871203    -0.00043267     0.00006467    -0.00022225
C        -4.67086513    -0.75307932     0.13184504     0.00014190    -0.00006447     0.00014661
H        -6.50857015     0.12875952    -0.51426803     0.00050082     0.00067709     0.00038905
H        -6.70182669    -1.63745819    -0.08880624     0.00003006     0.00028763     0.00055713
H        -4.08028768    -1.59343879     0.44449967     0.00031434     0.00050003    -0.00026032
C        -3.96332178     0.44722088    -0.08041028    -0.00039189    -0.00021312    -0.00005589
C        -2.49684957     0.55546736     0.20368833     0.00077873     0.00009283     0.00020771
H        -4.41343804     1.37121977    -0.42814010    -0.00031506    -0.00108128     0.00017510
H        -2.06165593    -0.32828586     0.54888738    -0.00023623    -0.00069430    -0.00101037
C        -1.88047699     1.73813081     0.04945902    -0.00054715    -0.00003097    -0.00010178
H        -2.31000355     2.69017488    -0.15464408     0.00036534    -0.00011279    -0.00028631
N        -0.50866652     1.74134742     0.15086846     0.00037241     0.00016602     0.00004839
H        -0.03581909     2.63118083     0.14360254     0.00035331     0.00018031     0.00005708
H        -0.12912351     0.86108108     0.51294801    -0.00081238    -0.00026362     0.00001109
    14
  Step:    11            Position(A)                                  Velocity(au)
C        -6.01527481    -0.78529588    -0.10128885    -0.00048642     0.00007569    -0.00024718
C        -4.66911437    -0.75364559     0.13345074     0.00017337    -0.00003866     0.00014566
H        -6.50253844     0.13543132    -0.50933439     0.00059287     0.00054343     0.00050743
H        -6.70076071    -1.63446102    -0.08226453     0.00014939     0.00024945     0.00063470
H        -4.07684005    -1.58879338     0.44200841     0.00032219     0.00033353    -0.00018882
C        -3.96765466     0.44483402    -0.08099723    -0.00039512    -0.00022466    -0.00004970
C        -2.48862716     0.55644359     0.20592291     0.00071777     0.00008188     0.00020011
H        -4.41747127     1.35929469    -0.42630746    -0.00043409    -0.00106850     0.00014870
H        -2.06264214    -0.33742364     0.53829005     0.00006099    -0.00096966    -0.00092776
C        -1.88613806     1.73787949     0.04836357    -0.00048096    -0.00001256    -0.00009826
H        -2.30690461     2.68953335    -0.15827106     0.00018968     0.00000590    -0.00037849
N        -0.50467135     1.74313794     0.15142749     0.00035461     0.00016155     0.00005335
H        -0.03119233     2.63322599     0.14436662     0.00049186     0.00019131     0.00008302
H        -0.13735853     0.85900142     0.51281350    -0.00068370    -0.00012051    -0.00003202
    14
  Step:    12            Position(A)                                  Velocity(au)
C        -6.02085713    -0.78440336    -0.10411965    -0.00052776     0.00008790    -0.00026842
C        -4.66707222    -0.75392508     0.13503163     0.00019527    -0.00001272     0.00014226
H        -6.49560009     0.14064819    -0.50316701     0.00066291     0.00041689     0.00061182
H        -6.69855850    -1.63200097    -0.07492091     0.00023584     0.00018814     0.00070375
H        -4.07323926    -1.58614213     0.44036881     0.00033870     0.00014227    -0.00010715
C        -3.97196574     0.44230592    -0.08149759    -0.00038831    -0.00023871    -0.00004021
C        -2.48114703     0.55725872     0.20806620     0.00064467     0.00006229     0.00019161
H        -4.42293463     1.34784427    -0.42488692    -0.00057463    -0.00099716     0.00010089
H        -2.06032169    -0.34949901     0.52859094     0.00035757    -0.00121277    -0.00085266
C        -1.89099895     1.73785599     0.04730943    -0.00040224     0.00001099    -0.00009443
H        -2.30585391     2.69030390    -0.16292422    -0.00000334     0.00013650    -0.00047153
N        -0.50090873     1.74488173     0.15203562     0.00033058     0.00015813     0.00005730
H        -0.02505864     2.63536617     0.14541869     0.00062558     0.00019361     0.00010945
H        -0.14408073     0.85844479     0.51224740    -0.00053608     0.00001079    -0.00006659
    14
  Step:    13            Position(A)                                  Velocity(au)
C        -6.02682052    -0.78337284    -0.10716095    -0.00055587     0.00010044    -0.00028548
C        -4.66484247    -0.75392392     0.13656301     0.00020804     0.00001187     0.00013686
H        -6.48803611     0.14455166    -0.49594976     0.00070412     0.00030893     0.00069696
H        -6.69560122    -1.63034501    -0.06686863     0.00028693     0.00010263     0.00076438
H        -4.06943038    -1.58568101     0.43966437     0.00035571    -0.00005896    -0.00002075
C        -3.97614973     0.43961170    -0.08187681    -0.00037247    -0.00025452    -0.00002783
C        -2.47452369     0.55780621     0.21011478     0.00056271     0.00003240     0.00018318
H        -4.43004231     1.33747980    -0.42410029    -0.00073107    -0.00087613     0.00003529
H        -2.05481966    -0.36395538     0.51963641     0.00063413    -0.00139047    -0.00079587
C        -1.89493784     1.73811989     0.04629769    -0.00031383     0.00004012    -0.00009068
H        -2.30697764     2.69251963    -0.16858671    -0.00020190     0.00026085    -0.00056048
N        -0.49743918     1.74659735     0.15268098     0.00030167     0.00015694     0.00006011
H        -0.01750662     2.63746158     0.14676094     0.00074828     0.00017982     0.00013577
H        -0.14908621     0.85923744     0.51135675    -0.00037065     0.00012307    -0.00009055
    14
  Step:    14            Position(A)                                  Velocity(au)
C        -6.03301791    -0.78220605    -0.11036498    -0.00057065     0.00011223    -0.00029805
C        -4.66252101    -0.75366529     0.13802577     0.00021256     0.00003356     0.00013000
H        -6.48019621     0.14740654    -0.48791967     0.00071092     0.00023030     0.00075856
H        -6.69228141    -1.62975568    -0.05819856     0.00030322    -0.00000494     0.00081682
H        -4.06545734    -1.58743200     0.43991486     0.00036407    -0.00025415     0.00006455
C        -3.98011429     0.43673771    -0.08210636    -0.00034892    -0.00027081    -0.00001322
C        -2.46883658     0.55796759     0.21207367     0.00047495    -0.00000813     0.00017536
H        -4.43892817     1.32867714    -0.42411487    -0.00089452    -0.00072075    -0.00004201
H        -2.04644894    -0.37991824     0.51117979     0.00087638    -0.00147997    -0.00076329
C        -1.89786456     1.73873366     0.04532553    -0.00021859     0.00007480    -0.00008732
H        -2.31027091     2.69601040    -0.17518588    -0.00039445     0.00036138    -0.00064042
N        -0.49430901     1.74831506     0.15335071     0.00026911     0.00015886     0.00006175
H        -0.00868850     2.63929997     0.14838902     0.00085481     0.00014460     0.00016141
H        -0.15218950     0.86113720     0.51026646    -0.00018971     0.00021146    -0.00010283
    14
  Step:    15            Position(A)                                  Velocity(au)
C        -6.03930463    -0.78091759    -0.11368131    -0.00057264     0.00012204    -0.00030597
C        -4.66019241    -0.75318966     0.13940709     0.00020992     0.00005085     0.00012225
H        -6.47248340     0.14958989    -0.47935472     0.00067946     0.00019008     0.00079365
H        -6.68896770    -1.63045311    -0.04899915     0.00028849    -0.00012889     0.00086121
H        -4.06146567    -1.59124098     0.44107661     0.00035511    -0.00042815     0.00014332
C        -3.98378299     0.43368714    -0.08216609    -0.00031917    -0.00028590     0.00000278
C        -2.46413324     0.55762832     0.21395104     0.00038410    -0.00005825     0.00016820
H        -4.44961161     1.32171195    -0.42501924    -0.00105353    -0.00055098    -0.00012312
H        -2.03564720    -0.39633250     0.50293791     0.00107575    -0.00147133    -0.00075599
C        -1.89972000     1.73975632     0.04438734    -0.00011928     0.00011438    -0.00008453
H        -2.31560708     2.70042561    -0.18259720    -0.00057075     0.00042384    -0.00070703
N        -0.49155199     1.75007266     0.15403177     0.00023394     0.00016435     0.00006222
H         0.00119400     2.64062496     0.15029210     0.00094142     0.00008551     0.00018574
H        -0.15323642     0.86386354     0.50910720     0.00000330     0.00027408    -0.00010356
    14
  Step:    16            Position(A)                                  Velocity(au)
C        -6.04554557    -0.77953613    -0.11705858    -0.00056299     0.00012863    -0.00030923
C        -4.65792855    -0.75255284     0.14070029     0.00020127     0.00006250     0.00011413
H        -6.46533168     0.15156482    -0.47055705     0.00060821     0.00019416     0.00080103
H        -6.68597025    -1.63257537    -0.03935798     0.00024932    -0.00026021     0.00089744
H        -4.05768870    -1.59679849     0.44305034     0.00032203    -0.00056853     0.00021112
C        -3.98709676     0.43048313    -0.08204555    -0.00028482    -0.00029797     0.00001929
C        -2.46043370     0.55669317     0.21575345     0.00029250    -0.00011566     0.00016144
H        -4.46197614     1.31662329    -0.42680826    -0.00119554    -0.00038838    -0.00019946
H        -2.02291474    -0.41210649     0.49464099     0.00122876    -0.00136655    -0.00077126
C        -1.90047410     1.74123593     0.04347621    -0.00001844     0.00015751    -0.00008236
H        -2.32275726     2.70528267    -0.19065358    -0.00072261     0.00043898    -0.00075703
N        -0.48919119     1.75191044     0.15471190     0.00019709     0.00017338     0.00006166
H         0.01190677     2.64117058     0.15245250     0.00100597     0.00000327     0.00020813
H        -0.15211729     0.86713330     0.50800083     0.00020372     0.00031242    -0.00009424
    14
  Step:    17            Position(A)                                  Velocity(au)
C        -6.05162103    -0.77810362    -0.12044636    -0.00054329     0.00013092    -0.00030801
C        -4.65578935    -0.75182243     0.14190396     0.00018758     0.00006764     0.00010606
H        -6.45917772     0.15383753    -0.46183065     0.00049836     0.00024390     0.00078167
H        -6.68351341    -1.63614566    -0.02936585     0.00019423    -0.00038755     0.00092501
H        -4.05442055    -1.60367870     0.44569527     0.00026085    -0.00066691     0.00026495
C        -3.99001395     0.42716858    -0.08174412    -0.00024738    -0.00030537     0.00003546
C        -2.45773419     0.55509808     0.21748274     0.00020218    -0.00017718     0.00015455
H        -4.47576624     1.31321536    -0.42938272    -0.00130860    -0.00025262    -0.00026307
H        -2.00876582    -0.42622836     0.48606504     0.00133562    -0.00117639    -0.00080422
C        -1.90012333     1.74320220     0.04258560     0.00008165     0.00020225    -0.00008070
H        -2.33141565     2.71002918    -0.19915879    -0.00084422     0.00040333    -0.00078845
N        -0.48724035     1.75386577     0.15538066     0.00015935     0.00018549     0.00006027
H         0.02320162     2.64069644     0.15484529     0.00104799    -0.00009836     0.00022789
H        -0.14877972     0.87069827     0.50704556     0.00040580     0.00033120    -0.00007762
    14
  Step:    18            Position(A)                                  Velocity(au)
C        -6.05743107    -0.77667208    -0.12379689    -0.00051548     0.00012825    -0.00030263
C        -4.65382495    -0.75107313     0.14302057     0.00016965     0.00006584     0.00009833
H        -6.45442913     0.15690058    -0.45345647     0.00035414     0.00033484     0.00073889
H        -6.68172099    -1.64105383    -0.01912158     0.00013242    -0.00049876     0.00094299
H        -4.05198215    -1.61138833     0.44884652     0.00017059    -0.00071932     0.00030336
C        -3.99250857     0.42380264    -0.08126978    -0.00020814    -0.00030689     0.00005061
C        -2.45601051     0.55281702     0.21913449     0.00011488    -0.00023925     0.00014696
H        -4.49060435     1.31109682    -0.43256350    -0.00138308    -0.00015854    -0.00030780
H        -1.99369549    -0.43784232     0.47704703     0.00139899    -0.00091691    -0.00084921
C        -1.89868782     1.74566059     0.04171085     0.00017894     0.00024624    -0.00007933
H        -2.34122615     2.71410623    -0.20790250    -0.00093205     0.00031867    -0.00080062
N        -0.48570506     1.75596831     0.15603045     0.00012145     0.00019978     0.00005835
H         0.03483360     2.63901885     0.15743808     0.00106845    -0.00021309     0.00024435
H        -0.14323953     0.87437900     0.50630281     0.00060298     0.00033782    -0.00005748
    14
  Step:    19            Position(A)                                  Velocity(au)
C        -6.06289810    -0.77529780    -0.12706701    -0.00048162     0.00012060    -0.00029359
C        -4.65207802    -0.75038194     0.14405505     0.00014804     0.00005713     0.00009109
H        -6.45143028     0.16116278    -0.44566603     0.00018271     0.00045617     0.00067820
H        -6.68061653    -1.64705703    -0.00873621     0.00007238    -0.00058261     0.00095018
H        -4.05068855    -1.61941517     0.45233177     0.00005309    -0.00072602     0.00032635
C        -3.99456750     0.42045474    -0.08063698    -0.00016815    -0.00030193     0.00006426
C        -2.45522087     0.54986399     0.22069784     0.00003208    -0.00029830     0.00013812
H        -4.50602384     1.30974698    -0.43611653    -0.00141274    -0.00011448    -0.00032999
H        -1.97816020    -0.44628761     0.46748703     0.00142291    -0.00060657    -0.00090067
C        -1.89620858     1.74858921     0.04085020     0.00027166     0.00028696    -0.00007796
H        -2.35180611     2.71700077    -0.21667392    -0.00098463     0.00019102    -0.00079403
N        -0.48458338     1.75823634     0.15665721     0.00008405     0.00021514     0.00005624
H         0.04657594     2.63603463     0.16019083     0.00106954    -0.00033290     0.00025680
H        -0.13558838     0.87808877     0.50578817     0.00078818     0.00034118    -0.00003815
    14
  Step:    20            Position(A)                                  Velocity(au)
C        -6.06796752    -0.77403381    -0.13021978    -0.00044377     0.00010857    -0.00028150
C        -4.65058620    -0.74982336     0.14501331     0.00012315     0.00004192     0.00008437
H        -6.45043206     0.16688013    -0.43861964    -0.00000645     0.00059154     0.00060666
H        -6.68013748    -1.65379962     0.00166532     0.00002091    -0.00063040     0.00094536
H        -4.05082079    -1.62727136     0.45598602    -0.00008758    -0.00069083     0.00033513
C        -3.99618727     0.41719728    -0.07986392    -0.00012816    -0.00029053     0.00007619
C        -2.45530863     0.54629111     0.22215623    -0.00004500    -0.00035104     0.00012756
H        -4.52151064     1.30859245    -0.43978266    -0.00139506    -0.00012212    -0.00032858
H        -1.96256657    -0.45111210     0.45734325     0.00141228    -0.00026447    -0.00095363
C        -1.89274466     1.75193843     0.04000534     0.00035828     0.00032198    -0.00007628
H        -2.36276692     2.71828514    -0.22527353    -0.00100220     0.00002938    -0.00077016
N        -0.48386626     1.76067480     0.15726083     0.00004780     0.00023033     0.00005429