     6
  Step:   600            Position(A)                                  Velocity(au)
C        -0.24923922     0.06151306     0.03182438    -0.00021573    -0.00078406    -0.00053463
N         0.15758177    -0.08878430     1.31712608     0.00005262     0.00077959     0.00080993
H        -0.63012867     0.84452604    -0.75027404     0.00045530     0.00511368    -0.00342231
H        -0.47601846    -0.94022932     1.41350187     0.00237194    -0.00486690    -0.00104032
H         0.85317555     0.99309927     1.97697702     0.00063312    -0.00304952    -0.00023493
H        -0.17909105    -1.06646562    -0.42987964    -0.00162081     0.00131217    -0.00018675
