     6
  Step:   600            Position(A)                                  Velocity(au)
C        -0.11988823     0.06026424     0.00000199     0.00006979    -0.00010866     0.00080320
N         0.06395836    -0.03372554     1.32339709     0.00025853    -0.00021412    -0.00041998
H         0.22867506     0.88747901    -0.60777656     0.00057475     0.00464935    -0.00696933
H         0.49735911    -1.00913730     1.57301623     0.00081863    -0.00059500     0.00144346
H        -0.44196096    -0.04223099     2.05123053    -0.00418378     0.00095283     0.00401190
H        -0.95691517    -0.75489474    -0.51520104    -0.00163379    -0.00073683    -0.00222083
