 Fermi distribution function

Calculation with static geometry


********************************************************************************
 iSCC Total electronic   Diff electronic      SCC error    
   13   -0.52809325E+01   -0.50479620E-10    0.20924014E-07
********************************************************************************

 Total charge:     1.00000000

 Atomic gross charges (e)
 Atom           Charge
    1       0.31414040
    2      -0.20248373
    3       0.18345070
    4       0.27385386
    5       0.25937557
    6       0.17166320

Nr. of electrons (up):     12.00000000
Atom populations (up)
 Atom       Population
    1       3.68585960
    2       5.20248373
    3       0.81654930
    4       0.72614614
    5       0.74062443
    6       0.82833680

l-shell populations (up)
 Atom Sh.   l       Population
    1   1   0       1.39640851
    1   2   1       2.28945109
    2   1   0       1.51235256
    2   2   1       3.69013117
    3   1   0       0.81654930
    4   1   0       0.72614614
    5   1   0       0.74062443
    6   1   0       0.82833680

Orbital populations (up)
 Atom Sh.   l   m       Population  Label
    1   1   0   0       1.39640851  s
    1   2   1  -1       0.46305755  p_y
    1   2   1   0       0.86685368  p_z
    1   2   1   1       0.95953987  p_x
    2   1   0   0       1.51235256  s
    2   2   1  -1       1.39561291  p_y
    2   2   1   0       1.06795672  p_z
    2   2   1   1       1.22656154  p_x
    3   1   0   0       0.81654930  s
    4   1   0   0       0.72614614  s
    5   1   0   0       0.74062443  s
    6   1   0   0       0.82833680  s

Fermi level:                        -0.5111661321 H          -13.9095 eV
Band energy:                        -8.6698079615 H         -235.9175 eV
TS:                                  0.0000000000 H            0.0000 eV
Band free energy (E-TS):            -8.6698079615 H         -235.9175 eV
Extrapolated E(0K):                 -8.6698079615 H         -235.9175 eV
Input / Output electrons (q):     12.0000000000     12.0000000000

Energy H0:                          -5.4164719320 H         -147.3897 eV
Energy SCC:                          0.1355393832 H            3.6882 eV
Total Electronic energy:            -5.2809325488 H         -143.7015 eV
Repulsive energy:                    0.1369727377 H            3.7272 eV
Total energy:                       -5.1439598111 H         -139.9743 eV
Extrapolated to 0:                  -5.1439598111 H         -139.9743 eV
Total Mermin free energy:           -5.1439598111 H         -139.9743 eV
Force related energy:               -5.1439598111 H         -139.9743 eV

SCC converged

Excitation Energy:                   0.0983106534 H            2.6752 eV

Total Forces
    1     -0.007313384723      0.002061908532      0.052550703354
    2      0.005577374308      0.014275828441     -0.052126362528
    3     -0.001803399818     -0.012179818459      0.000054079407
    4     -0.010123705137      0.004617909855     -0.003010112653
    5      0.004218611967     -0.014449797321     -0.001664391453
    6      0.009444503403      0.005673968952      0.004196083874

Maximal derivative component:        0.525507E-01 au


