     6
  Step:     0            Position(A)                                  Velocity(au)
C        -0.03433908     0.00814499     0.03152646     0.00010080    -0.00008953    -0.00029601
N        -0.03711252    -0.03327319     1.29563752    -0.00026573    -0.00009435     0.00026480
H         0.87666875     0.01954050    -0.55886851     0.00001184     0.00038985     0.00012190
H         0.81688851    -0.20899984     1.84671608     0.00243553     0.00047428     0.00155786
H        -0.96488831    -0.16143226     1.74849557     0.00151828     0.00067130    -0.00104542
H        -1.01669197     0.04643241    -0.52460802    -0.00147410     0.00084253    -0.00078681
     6
  Step:     1            Position(A)                                  Velocity(au)
C        -0.03381695     0.00769253     0.02950288     0.00008879    -0.00007585    -0.00044143
N        -0.03857953    -0.03377793     1.29741776    -0.00026624    -0.00009011     0.00038407
H         0.87707236     0.02152149    -0.55822373     0.00013749     0.00033399     0.00011150
H         0.83030155    -0.20657403     1.85524837     0.00243421     0.00041817     0.00154123
H        -0.95654130    -0.15790981     1.74284963     0.00150559     0.00061120    -0.00100360
H        -1.02469124     0.05090876    -0.52876492    -0.00143554     0.00079255    -0.00072614
     6
  Step:     2            Position(A)                                  Velocity(au)
C        -0.03336684     0.00731449     0.02669283     0.00007437    -0.00006206    -0.00058020
N        -0.04002783    -0.03425984     1.29984303    -0.00025785    -0.00008555     0.00049760
H         0.87817428     0.02319764    -0.55764758     0.00026407     0.00027725     0.00009657
H         0.84354297    -0.20442090     1.86359248     0.00236515     0.00037204     0.00148493
H        -0.94840218    -0.15473968     1.73750620     0.00143463     0.00054014    -0.00092983
H        -1.03241107     0.05511074    -0.53255924    -0.00136681     0.00073893    -0.00065279
     6
  Step:     3            Position(A)                                  Velocity(au)
C        -0.03300083     0.00701145     0.02313558     0.00005809    -0.00004829    -0.00070987
N        -0.04140926    -0.03471679     1.30287860    -0.00024092    -0.00008057     0.00060303
H         0.87997030     0.02456413    -0.55716393     0.00038678     0.00022015     0.00007764
H         0.85625743    -0.20249111     1.87154443     0.00223458     0.00033425     0.00139420
H        -0.94079721    -0.15198214     1.73264536     0.00130424     0.00045879    -0.00082323
H        -1.03969099     0.05901798    -0.53592889    -0.00126983     0.00068179    -0.00056970
     6
  Step:     4            Position(A)                                  Velocity(au)
C        -0.03272781     0.00678328     0.01888323     0.00004058    -0.00003469    -0.00082815
N        -0.04267832    -0.03514622     1.30647726    -0.00021618    -0.00007514     0.00069818
H         0.88242944     0.02561965    -0.55679346     0.00050073     0.00016362     0.00005540
H         0.86812667    -0.20074368     1.87893075     0.00205041     0.00030347     0.00127517
H        -0.93405355    -0.14969230     1.72844942     0.00111659     0.00036873    -0.00068470
H        -1.04638109     0.06261144    -0.53882678    -0.00114719     0.00062169    -0.00047972
     6
  Step:     5            Position(A)                                  Velocity(au)
C        -0.03255319     0.00662876     0.01399990     0.00002250    -0.00002153    -0.00093299
N        -0.04379400    -0.03554566     1.31058051    -0.00018468    -0.00006934     0.00078121
H         0.88549410     0.02636903    -0.55655280     0.00060153     0.00010901     0.00003069
H         0.87887636    -0.19914343     1.88561131     0.00182149     0.00027889     0.00113415
H        -0.92847963    -0.14791451     1.72509217     0.00087769     0.00027257    -0.00051733
H        -1.05234612     0.06587609    -0.54122089    -0.00100248     0.00055968    -0.00038587
     6
  Step:     6            Position(A)                                  Velocity(au)
C        -0.03247883     0.00654508     0.00856080     0.00000449    -0.00000910    -0.00102261
N        -0.04472158    -0.03591341     1.31512039    -0.00014781    -0.00006336     0.00085069
H         0.88908465     0.02682569    -0.55645390     0.00068599     0.00005795     0.00000447
H         0.88827926    -0.19765810     1.89147873     0.00155743     0.00026005     0.00097739
H        -0.92434297    -0.14667668     1.72272576     0.00059746     0.00017370    -0.00032664
H        -1.05747232     0.06880366    -0.54309597    -0.00084047     0.00049719    -0.00029121
     6
  Step:     7            Position(A)                                  Velocity(au)
C        -0.03250331     0.00652773     0.00265092    -0.00001290     0.00000230    -0.00109567
N        -0.04543436    -0.03624879     1.32002150    -0.00010720    -0.00005737     0.00090571
H         0.89310727     0.02701213    -0.55650324     0.00075253     0.00001188    -0.00002222
H         0.89616082    -0.19625744     1.89645843     0.00126862     0.00024646     0.00081100
H        -0.92184894    -0.14598678     1.72146712     0.00028921     0.00007581    -0.00012028
H        -1.06167371     0.07139389    -0.54445279    -0.00066687     0.00043567    -0.00019858
     6
  Step:     8            Position(A)                                  Velocity(au)
C        -0.03262244     0.00657073    -0.00363745    -0.00002924     0.00001249    -0.00115153
N        -0.04591511    -0.03655216     1.32520385    -0.00006470    -0.00005157     0.00094608
H         0.89746268     0.02695799    -0.55670124     0.00080114    -0.00002827    -0.00004840
H         0.90240304    -0.19491416     1.90050771     0.00096569     0.00023746     0.00064076
H        -0.92112318    -0.14583267     1.72138671    -0.00003149    -0.00001773     0.00009268
H        -1.06489674     0.07365401    -0.54530675    -0.00048788     0.00037638    -0.00011045
     6
  Step:     9            Position(A)                                  Velocity(au)
C        -0.03282981     0.00666718    -0.01020881    -0.00004419     0.00002136    -0.00119058
N        -0.04615687    -0.03682470     1.33058689    -0.00002213    -0.00004608     0.00097251
H         0.90205399     0.02669643    -0.55704371     0.00083306    -0.00006227    -0.00007337
H         0.90694518    -0.19360559     1.90361417     0.00065887     0.00023211     0.00047200
H        -0.92220061    -0.14618475     1.72250215    -0.00034827    -0.00010422     0.00030289
H        -1.06712217     0.07559715    -0.54568622    -0.00030959     0.00032027    -0.00002892
     6
  Step:    10            Position(A)                                  Velocity(au)
C        -0.03311726     0.00680990    -0.01697036    -0.00005752     0.00002894    -0.00121435
N        -0.04616296    -0.03706823     1.33609471     0.00001879    -0.00004101     0.00098667
H         0.90679185     0.02626065    -0.55752287     0.00085031    -0.00009043    -0.00009666
H         0.90978149    -0.19231483     1.90579354     0.00035729     0.00022939     0.00030936
H        -0.92502339    -0.14699983     1.72477865    -0.00064587    -0.00018182     0.00050198
H        -1.06836369     0.07724061    -0.54563057    -0.00013733     0.00026795     0.00004441
     6
  Step:    11            Position(A)                                  Velocity(au)
C        -0.03347546     0.00699199    -0.02383850    -0.00006914     0.00003534    -0.00122533
N        -0.04594601    -0.03728503     1.34166118     0.00005665    -0.00003644     0.00099095
H         0.91159777     0.02568142    -0.55812859     0.00085531    -0.00011343    -0.00011803
H         0.91095535    -0.19103098     1.90708643     0.00006839     0.00022830     0.00015659
H        -0.92944981    -0.14822548     1.72813626    -0.00091179    -0.00024949     0.00068356
H        -1.06866354     0.07860454    -0.54518772     0.00002469     0.00021976     0.00010848
     6
  Step:    12            Position(A)                                  Velocity(au)
C        -0.03389446     0.00720719    -0.03074382    -0.00007902     0.00004073    -0.00122647
N        -0.04552613    -0.03747778     1.34723354     0.00009046    -0.00003240     0.00098799
H         0.91640608     0.02498561    -0.55884965     0.00085053    -0.00013210    -0.00013748
H         0.91055027    -0.18974855     1.90755374    -0.00020236     0.00022798     0.00001643
H        -0.93527242    -0.14980428     1.73246223    -0.00113721    -0.00030693     0.00084362
H        -1.06808614     0.07971086    -0.54441124     0.00017359     0.00017582     0.00016272
     6
  Step:    13            Position(A)                                  Velocity(au)
C        -0.03436420     0.00745015    -0.03763332    -0.00008717     0.00004528    -0.00122055
N        -0.04492860    -0.03764940     1.35277363     0.00011954    -0.00002890     0.00098020
H         0.92116417     0.02419564    -0.55967492     0.00083809    -0.00014725    -0.00015513
H         0.90867925    -0.18846671     1.90727121    -0.00045127     0.00022761    -0.00010930
H        -0.94224062    -0.15167770     1.73762496    -0.00131690    -0.00035432     0.00098028
H        -1.06671103     0.08058207    -0.54335753     0.00030762     0.00013598     0.00020697
     6
  Step:    14            Position(A)                                  Velocity(au)
C        -0.03487474     0.00771644    -0.04446953    -0.00014843     0.00007792    -0.00191781
N        -0.04418183    -0.03780281     1.35825648     0.00022753    -0.00004111     0.00153684
H         0.92583087     0.02332969    -0.56059416     0.00129924    -0.00025299    -0.00027136
H         0.90547544    -0.18718891     1.90632458    -0.00107120     0.00035889    -0.00034772
H        -0.95008162    -0.15378881     1.74348603    -0.00229619    -0.00062159     0.00173293
H        -1.06462675     0.08124004    -0.54208373     0.00067492     0.00015844     0.00038244
     6
  Step:    15            Position(A)                                  Velocity(au)
C        -0.03570579     0.00813418    -0.05484002    -0.00008991     0.00004340    -0.00108702
N        -0.04285823    -0.03802294     1.36658935     0.00014703    -0.00002290     0.00087618
H         0.93320256     0.02198021    -0.56248664     0.00080992    -0.00014010    -0.00024318
H         0.89895502    -0.18514510     1.90413060    -0.00075432     0.00022441    -0.00025771
H        -0.96319037    -0.15730535     1.75344753    -0.00143033    -0.00038381     0.00109981
H        -1.06085957     0.08214336    -0.54017990     0.00040292     0.00010066     0.00017842
     6
  Step:    16            Position(A)                                  Velocity(au)
C        -0.03621948     0.00838678    -0.06089917    -0.00009171     0.00004611    -0.00106437
N        -0.04199381    -0.03814540     1.37147129     0.00015751    -0.00002076     0.00085753
H         0.93765414     0.02116793    -0.56387768     0.00076894    -0.00014752    -0.00025003
H         0.89422164    -0.18390225     1.90245945    -0.00091223     0.00021575    -0.00032720
H        -0.97132029    -0.15951869     1.75981519    -0.00143678    -0.00039853     0.00115202
H        -1.05833917     0.08261790    -0.53912541     0.00048402     0.00006938     0.00019170
     6
  Step:    17            Position(A)                                  Velocity(au)
C        -0.03673801     0.00865314    -0.06681985    -0.00009213     0.00004857    -0.00104370
N        -0.04108538    -0.03825662     1.37624117     0.00016361    -0.00001897     0.00084102
H         0.94185727     0.02031978    -0.56530082     0.00072596    -0.00015376    -0.00025611
H         0.88868760    -0.18271675     1.90044785    -0.00104341     0.00020484    -0.00038032
H        -0.97936179    -0.16179092     1.76641393    -0.00140841    -0.00040725     0.00118923
H        -1.05541177     0.08292431    -0.53802228     0.00055020     0.00004102     0.00019679
     6
  Step:    18            Position(A)                                  Velocity(au)
C        -0.03725362     0.00893198    -0.07261396    -0.00009100     0.00005076    -0.00102320
N        -0.04015744    -0.03835837     1.38091121     0.00016513    -0.00001741     0.00082503
H         0.94580253     0.01944210    -0.56675234     0.00067993    -0.00015867    -0.00026123
H         0.88251012    -0.18160305     1.89819060    -0.00114452     0.00019057    -0.00041578
H        -0.98712872    -0.16408980     1.77316354    -0.00134598    -0.00040983     0.00121115
H        -1.05216357     0.08307832    -0.53691663     0.00060023     0.00001504     0.00019333
     6
  Step:    19            Position(A)                                  Velocity(au)
C        -0.03775758     0.00922183    -0.07828337    -0.00008817     0.00005263    -0.00100145
N        -0.03923528    -0.03845170     1.38548458     0.00016198    -0.00001596     0.00080826
H         0.94947497     0.01854207    -0.56822759     0.00063028    -0.00016210    -0.00026528
H         0.87586473    -0.18058171     1.89578965    -0.00121195     0.00017196    -0.00043212
H        -0.99444173    -0.16638253     1.77998328    -0.00125136    -0.00040622     0.00121784
H        -1.04868704     0.08309280    -0.53585630     0.00063282    -0.00000890     0.00018104
     6
  Step:    20            Position(A)                                  Velocity(au)
C        -0.03824045     0.00952097    -0.08382218    -0.00008357     0.00005414    -0.00097760
N        -0.03834461    -0.03853703     1.38995724     0.00015416    -0.00001453     0.00078983
H         0.95285662     0.01762783    -0.56972137     0.00057697    -0.00016391    -0.00026825
H         0.86894601    -0.17967848     1.89335431    -0.00124273     0.00014829    -0.00042828
H        -1.00113396    -0.16863627     1.78679360    -0.00112770    -0.00039660     0.00120999
H        -1.04508106     0.08297871    -0.53489040     0.00064702    -0.00003103     0.00015986
     6
  Step:    21            Position(A)                                  Velocity(au)
C        -0.03869246     0.00982753    -0.08921967    -0.00007720     0.00005531    -0.00095129
N        -0.03751072    -0.03861426     1.39432037     0.00014188    -0.00001304     0.00076933
H         0.95592950     0.01670841    -0.57122849     0.00052044    -0.00016399    -0.00027026
H         0.86196239    -0.17892280     1.89099852    -0.00123530     0.00011909    -0.00040387
H        -1.00705725    -0.17081926     1.79351928    -0.00097926    -0.00038135     0.00118893
H        -1.04144884     0.08274565    -0.53406799     0.00064245    -0.00005156     0.00012996
     6
  Step:    22            Position(A)                                  Velocity(au)
C        -0.03910399     0.01013961    -0.09446319    -0.00006915     0.00005612    -0.00092257
N        -0.03675758    -0.03868290     1.39856285     0.00012549    -0.00001143     0.00074666
H         0.95867816     0.01579345    -0.57274450     0.00046143    -0.00016228    -0.00027155
H         0.85512809    -0.17834632     1.88883671    -0.00118960     0.00008415    -0.00035926
H        -1.01208787    -0.17290199     1.80009284    -0.00081105    -0.00036103     0.00115653
H        -1.03789463     0.08240197    -0.53343664     0.00061935    -0.00007070     0.00009180
     6
  Step:    23            Position(A)                                  Velocity(au)
C        -0.03946601     0.01045533    -0.09954028    -0.00005956     0.00005661    -0.00089174
N        -0.03610689    -0.03874215     1.40267312     0.00010549    -0.00000966     0.00072199
H         0.96109142     0.01489303    -0.57426624     0.00040089    -0.00015873    -0.00027241
H         0.84865452    -0.17798145     1.88697950    -0.00110714     0.00004345    -0.00029562
H        -1.01613032    -0.17485806     1.80645723    -0.00062842    -0.00033631     0.00111499
H        -1.03452025     0.08195475    -0.53304099     0.00057855    -0.00008871     0.00004604
     6
  Step:    24            Position(A)                                  Velocity(au)
C        -0.03977038     0.01077299    -0.10444012    -0.00004863     0.00005682    -0.00085925
N        -0.03557739    -0.03879101     1.40664059     0.00008246    -0.00000771     0.00069564
H         0.96316343     0.01401756    -0.57579231     0.00033986    -0.00015329    -0.00027323
H         0.84274113    -0.17786024     1.88552920    -0.00099100    -0.00000284    -0.00021488
H        -1.01911881    -0.17666474     1.81256754    -0.00043670    -0.00030788     0.00106663
H        -1.03142165     0.08140944    -0.53292156     0.00052147    -0.00010593    -0.00000650
     6
  Step:    25            Position(A)                                  Velocity(au)
C        -0.04001018     0.01109106    -0.10915435    -0.00003660     0.00005678    -0.00082561
N        -0.03518426    -0.03882838     1.41045656     0.00005708    -0.00000555     0.00066802
H         0.96489409     0.01317786    -0.57732332     0.00027936    -0.00014589    -0.00027438
H         0.83756637    -0.17801320     1.88457529    -0.00084562    -0.00005437    -0.00011963
H        -1.02101651    -0.17830293     1.81839159    -0.00024085    -0.00027637     0.00101375
H        -1.02868558     0.08076946    -0.53311371     0.00044997    -0.00012278    -0.00006484
     6
  Step:    26            Position(A)                                  Velocity(au)
C        -0.04017986     0.01140825    -0.11367719    -0.00002371     0.00005654    -0.00079124
N        -0.03493873    -0.03885316     1.41411457     0.00003008    -0.00000321     0.00063954
H         0.96628895     0.01238527    -0.57886209     0.00022035    -0.00013639    -0.00027627
H         0.83328011    -0.17846851     1.88419075    -0.00067667    -0.00011069    -0.00001310
H        -1.02181351    -0.17975682     1.82390958    -0.00004539    -0.00024229     0.00095849
H        -1.02638722     0.08003577    -0.53364699     0.00036626    -0.00013973    -0.00012794
     6
  Step:    27            Position(A)                                  Velocity(au)
C        -0.04027536     0.01172351    -0.11800525    -0.00001022     0.00005613    -0.00075651
N        -0.03484783    -0.03886431     1.41761053     0.00000219    -0.00000070     0.00061058
H         0.96735898     0.01165214    -0.58041372     0.00016375    -0.00012456    -0.00027933
H         0.82999704    -0.17925135     1.88442875    -0.00049077    -0.00017126     0.00010102
H        -1.02152424    -0.18101324     1.82911341     0.00014564    -0.00020602     0.00090283
H        -1.02458854     0.07920638    -0.53454488     0.00027274    -0.00015738    -0.00019474
     6
  Step:    28            Position(A)                                  Velocity(au)
C        -0.04029417     0.01203599    -0.12213694     0.00000359     0.00005559    -0.00072163
N        -0.03491423    -0.03886095     1.42094244    -0.00002580     0.00000196     0.00058144
H         0.96812015     0.01099234    -0.58198570     0.00011042    -0.00011003    -0.00028399
H         0.82779200    -0.18038363     1.88532037    -0.00029517    -0.00023553     0.00021870
H        -1.02018487    -0.18206069     1.83400561     0.00032860    -0.00016774     0.00084853
H        -1.02333731     0.07827586    -0.53582471     0.00017192    -0.00017639    -0.00026418
     6
  Step:    29            Position(A)                                  Velocity(au)
C        -0.04023528     0.01234495    -0.12607167     0.00001745     0.00005493    -0.00068663
N        -0.03513620    -0.03884241     1.42410991    -0.00005312     0.00000472     0.00055230
H         0.96859329     0.01042219    -0.58358814     0.00006121    -0.00009224    -0.00029076
H         0.82669757    -0.18188412     1.88687340    -0.00009741    -0.00030301     0.00033579
H        -1.01785111    -0.18288826     1.83859835     0.00050016    -0.00012739     0.00079721
H        -1.02266680     0.07723471    -0.53749789     0.00006632    -0.00019755    -0.00033527
     6
  Step:    30            Position(A)                                  Velocity(au)
C        -0.04009921     0.01264975    -0.12980860     0.00003111     0.00005415    -0.00065129
N        -0.03550776    -0.03880821     1.42711323    -0.00007904     0.00000755     0.00052314
H         0.96880410     0.00996171    -0.58523432     0.00001708    -0.00007036    -0.00030031
H         0.82670361    -0.18376916     1.88907210     0.00009505    -0.00037340     0.00044816
H        -1.01459661    -0.18348406     1.84291273     0.00065719    -0.00008463     0.00075039
H        -1.02259628     0.07606868    -0.53957060    -0.00004173    -0.00022180    -0.00040719
     6
  Step:    31            Position(A)                                  Velocity(au)
C        -0.03988783     0.01294963    -0.13334494     0.00004434     0.00005319    -0.00061502
N        -0.03601885    -0.03875806     1.42995209    -0.00010284     0.00001043     0.00049367
H         0.96878400     0.00963648    -0.58694182    -0.00002077    -0.00004312    -0.00031363
H         0.82775909    -0.18605408     1.89187817     0.00027523    -0.00044672     0.00055192
H        -1.01051193    -0.18383335     1.84697831     0.00079667    -0.00003869     0.00070959
H        -1.02313282     0.07475780    -0.54204522    -0.00015038    -0.00025026    -0.00047954
     6
  Step:    32            Position(A)                                  Velocity(au)
C        -0.03960426     0.01324351    -0.13667354     0.00005692     0.00005198    -0.00057662
N        -0.03665569    -0.03869181     1.43262371    -0.00012389     0.00001333     0.00046316
H         0.96857223     0.00948044    -0.58873515    -0.00005045    -0.00000870    -0.00033246
H         0.82977575    -0.18875552     1.89523267     0.00043690    -0.00052343     0.00064363
H        -1.00570406    -0.18391589     1.85083327     0.00091560     0.00001168     0.00067638
H        -1.02427484     0.07327527    -0.54492329    -0.00025869    -0.00028419    -0.00055268
     6
  Step:    33            Position(A)                                  Velocity(au)
C        -0.03925271     0.01352958    -0.13977848     0.00006866     0.00005031    -0.00053378
N        -0.03740116    -0.03860933     1.43511967    -0.00014163     0.00001627     0.00043005
H         0.96822107     0.00953942    -0.59065121    -0.00006858     0.00003517    -0.00036003
H         0.83263372    -0.19189410     1.89905932     0.00057505    -0.00060418     0.00072065
H        -1.00029639    -0.18370303     1.85452487     0.00101094     0.00006796     0.00065245
H        -1.02601905     0.07158702    -0.54821160    -0.00036743    -0.00032453    -0.00062862
     6
  Step:    34            Position(A)                                  Velocity(au)
C        -0.03883852     0.01380456    -0.14262670     0.00007925     0.00004782    -0.00048230
N        -0.03823525    -0.03851033     1.43741996    -0.00015554     0.00001931     0.00039147
H         0.96780742     0.00987273    -0.59275048    -0.00006910     0.00008966    -0.00040193
H         0.83618914    -0.19549381     1.90326996     0.00068621    -0.00068796     0.00078175
H        -0.99442927    -0.18315799     1.85810990     0.00107965     0.00012997     0.00063930
H        -1.02837269     0.06965588    -0.55193417    -0.00047968    -0.00036989    -0.00071195
     6
  Step:    35            Position(A)                                  Velocity(au)
C        -0.03836919     0.01406275    -0.14515551     0.00009836     0.00004930    -0.00046586
N        -0.03913521    -0.03839405     1.43948401    -0.00018432     0.00002512     0.00038399
H         0.96745065     0.01053901    -0.59513219    -0.00005032     0.00016779    -0.00051794
H         0.84028408    -0.19956398     1.90777480     0.00085786    -0.00085699     0.00092363
H        -0.98825965    -0.18225401     1.86165226     0.00124934     0.00021369     0.00071108
H        -1.03136682     0.06746327    -0.55614894    -0.00066748    -0.00046105    -0.00090160
     6
  Step:    36            Position(A)                                  Velocity(au)
C        -0.03782452     0.01433227    -0.14759937     0.00009705     0.00004816    -0.00042072
N        -0.04017323    -0.03824639     1.44151001    -0.00018629     0.00002759     0.00034990
H         0.96726060     0.01126315    -0.59812390    -0.00003080     0.00009833    -0.00054448
H         0.84525222    -0.20416291     1.91309050     0.00090605    -0.00079955     0.00096958
H        -0.98121828    -0.18130186     1.86552674     0.00126559     0.00013512     0.00068491
H        -1.03525191     0.06512235    -0.56138028    -0.00070853    -0.00039123    -0.00095909
     6
  Step:    37            Position(A)                                  Velocity(au)
C        -0.03728741     0.01459953    -0.14984484     0.00009557     0.00004812    -0.00039033
N        -0.04121166    -0.03808648     1.44338405    -0.00018445     0.00002961     0.00032641
H         0.96710732     0.01163505    -0.60120105    -0.00003095     0.00004349    -0.00055426
H         0.85038299    -0.20847576     1.91858179     0.00091751    -0.00075524     0.00098815
H        -0.97415329    -0.18074796     1.86928626     0.00125684     0.00007197     0.00067078
H        -1.03926413     0.06310257    -0.56683907    -0.00071902    -0.00034511    -0.00098938
     6
  Step:    38            Position(A)                                  Velocity(au)
C        -0.03675940     0.01486852    -0.15194948     0.00009361     0.00004858    -0.00036758
N        -0.04222890    -0.03791634     1.44514775    -0.00017875     0.00003134     0.00030848
H         0.96691565     0.01174788    -0.60430105    -0.00004036     0.00000347    -0.00055619
H         0.85547771    -0.21257997     1.92410318     0.00089515    -0.00072219     0.00098263
H        -0.96721108    -0.18049980     1.87300240     0.00122174     0.00002271     0.00066930
H        -1.04326521     0.06127611    -0.57240672    -0.00070800    -0.00031839    -0.00100230
     6
  Step:    39            Position(A)                                  Velocity(au)
C        -0.03624433     0.01514084    -0.15394077     0.00009085     0.00004926    -0.00034868
N        -0.04320347    -0.03773725     1.44682136    -0.00016933     0.00003287     0.00029338
H         0.96665763     0.01167366    -0.60739865    -0.00005289    -0.00002566    -0.00055499
H         0.86035759    -0.21652307     1.92953115     0.00084277    -0.00069554     0.00095675
H        -0.96053954    -0.18049491     1.87674421     0.00116090    -0.00001772     0.00067974
H        -1.04715328     0.05955475    -0.57800757    -0.00068031    -0.00030485    -0.00100353
     6
  Step:    40            Position(A)                                  Velocity(au)
C        -0.03574726     0.01541725    -0.15583384     0.00008717     0.00005005    -0.00033207
N        -0.04411529    -0.03755013     1.44841606    -0.00015652     0.00003426     0.00027997
H         0.96632644     0.01146202    -0.61048371    -0.00006584    -0.00004727    -0.00055254
H         0.86486634    -0.22032842     1.93476160     0.00076446    -0.00067190     0.00091376
H        -0.95427839    -0.18069716     1.88057481     0.00107633    -0.00005313     0.00070093
H        -1.05084401     0.05788007    -0.58358621    -0.00063856    -0.00030017    -0.00099587
     6
  Step:    41            Position(A)                                  Velocity(au)
C        -0.03527359     0.01569818    -0.15763885     0.00008253     0.00005091    -0.00031709
N        -0.04494658    -0.03735569     1.44993933    -0.00014077     0.00003555     0.00026777
H         0.96592436     0.01114720    -0.61355213    -0.00007804    -0.00006365    -0.00054966
H         0.86887111    -0.22400576     1.93970734     0.00066444    -0.00064945     0.00085654
H        -0.94855281    -0.18108656     1.88455025     0.00097102    -0.00008578     0.00073153
H        -1.05426470     0.05621191    -0.58909819    -0.00058467    -0.00030171    -0.00098098
     6
  Step:    42            Position(A)                                  Velocity(au)
C        -0.03482849     0.01598397    -0.15936371     0.00007702     0.00005183    -0.00030344
N        -0.04568237    -0.03715443     1.45139690    -0.00012261     0.00003675     0.00025653
H         0.96545766     0.01075343    -0.61660257    -0.00008898    -0.00007630    -0.00054669
H         0.87226293    -0.22755819     1.94429672     0.00054692    -0.00062736     0.00078777
H        -0.94346894    -0.18165209     1.88871830     0.00084861    -0.00011690     0.00076994
H        -1.05735265     0.05452144    -0.59450658    -0.00052038    -0.00030780    -0.00096006
     6
  Step:    43            Position(A)                                  Velocity(au)
C        -0.03441666     0.01627489    -0.16101516     0.00007071     0.00005281    -0.00029095
N        -0.04631087    -0.03694676     1.45279369    -0.00010263     0.00003790     0.00024615
H         0.96493430     0.01029827    -0.61963497    -0.00009846    -0.00008622    -0.00054380
H         0.87495650    -0.23098621     1.94847261     0.00041604    -0.00060536     0.00070992
H        -0.93911054    -0.18238723     1.89311713     0.00071332    -0.00014702     0.00081431
H        -1.06005479     0.05278715    -0.59978045    -0.00044734    -0.00031733    -0.00093409
     6
  Step:    44            Position(A)                                  Velocity(au)
C        -0.03404215     0.01657123    -0.16259920     0.00006374     0.00005384    -0.00027948
N        -0.04682364    -0.03673298     1.45413423    -0.00008141     0.00003899     0.00023657
H         0.96436276     0.00979459    -0.62264995    -0.00010643    -0.00009415    -0.00054108
H         0.87688952    -0.23429006     1.95219145     0.00027577    -0.00058349     0.00062531
H        -0.93553645    -0.18328706     1.89777388     0.00056970    -0.00017628     0.00086258
H        -1.06232736     0.05099257    -0.60489414    -0.00036719    -0.00032953    -0.00090395
     6