     6
  Step:   300            Position(A)                                  Velocity(au)
C        -0.04473860     0.00294581     0.01818598    -0.00003539     0.00003375    -0.00014953
N        -0.03998494    -0.04890892     1.29863817     0.00000970     0.00001926     0.00010853
H         0.90000664     0.19292883    -0.48272441     0.00038644     0.00001067     0.00067887
H         0.84078939    -0.25061186     1.78047053     0.00030332    -0.00036753    -0.00041035
H        -0.88002099     0.16655328     1.83888760    -0.00020140     0.00009413    -0.00026229
H        -0.98497567    -0.13412070    -0.50760630    -0.00020149    -0.00040712     0.00026733
