 Fermi distribution function

Calculation with static geometry


********************************************************************************
 iSCC Total electronic   Diff electronic      SCC error    
   13   -0.53159376E+01   -0.11519674E-11    0.23200591E-06
********************************************************************************

 Total charge:     1.00000000

 Atomic gross charges (e)
 Atom           Charge
    1       0.30992436
    2      -0.21326805
    3       0.17392803
    4       0.28822649
    5       0.27050581
    6       0.17068335

Nr. of electrons (up):     12.00000000
Atom populations (up)
 Atom       Population
    1       3.69007564
    2       5.21326805
    3       0.82607197
    4       0.71177351
    5       0.72949419
    6       0.82931665

l-shell populations (up)
 Atom Sh.   l       Population
    1   1   0       1.37192509
    1   2   1       2.31815055
    2   1   0       1.47151710
    2   2   1       3.74175094
    3   1   0       0.82607197
    4   1   0       0.71177351
    5   1   0       0.72949419
    6   1   0       0.82931665

Orbital populations (up)
 Atom Sh.   l   m       Population  Label
    1   1   0   0       1.37192509  s
    1   2   1  -1       0.48652657  p_y
    1   2   1   0       0.86096826  p_z
    1   2   1   1       0.97065572  p_x
    2   1   0   0       1.47151710  s
    2   2   1  -1       1.36370839  p_y
    2   2   1   0       1.06481287  p_z
    2   2   1   1       1.31322968  p_x
    3   1   0   0       0.82607197  s
    4   1   0   0       0.71177351  s
    5   1   0   0       0.72949419  s
    6   1   0   0       0.82931665  s

Fermi level:                        -0.4971511649 H          -13.5282 eV
Band energy:                        -8.6864057606 H         -236.3691 eV
TS:                                  0.0000000000 H            0.0000 eV
Band free energy (E-TS):            -8.6864057606 H         -236.3691 eV
Extrapolated E(0K):                 -8.6864057606 H         -236.3691 eV
Input / Output electrons (q):     12.0000000000     12.0000000000

Energy H0:                          -5.4480404145 H         -148.2487 eV
Energy SCC:                          0.1321028091 H            3.5947 eV
Total Electronic energy:            -5.3159376054 H         -144.6540 eV
Repulsive energy:                    0.1484311067 H            4.0390 eV
Total energy:                       -5.1675064987 H         -140.6150 eV
Extrapolated to 0:                  -5.1675064987 H         -140.6150 eV
Total Mermin free energy:           -5.1675064987 H         -140.6150 eV
Force related energy:               -5.1675064987 H         -140.6150 eV

SCC converged

Excitation Energy:                   0.1017790505 H            2.7695 eV

Total Forces
    1     -0.007637558767     -0.006644758930      0.085566771034
    2      0.020739418416     -0.005088744054     -0.084341690766
    3     -0.002503113306      0.013988322352      0.002351196810
    4     -0.021310623719     -0.002317064023     -0.008784410930
    5      0.001923275419      0.012534065515      0.002615645440
    6      0.008788601957     -0.012471820860      0.002592488412

Maximal derivative component:        0.855668E-01 au


