|===============================================================================
|
|  DFTB+ release 20.1
|
|  Copyright (C) 2006 - 2020  DFTB+ developers group
|
|===============================================================================
|
|  When publishing results obtained with DFTB+, please cite the following
|  reference:
|
|  * DFTB+, a software package for efficient approximate density functional
|    theory based atomistic simulations, J. Chem. Phys. 152, 124101 (2020).
|    [doi: 10.1063/1.5143190]
|
|  You should also cite additional publications crediting the parametrization
|  data you use. Please consult the documentation of the SK-files for the
|  references.
|
|===============================================================================

Reading input file 'dftb_in.hsd'
Parser version: 8

--------------------------------------------------------------------------------
Reading SK-files:
Done.


Processed input in HSD format written to 'dftb_pin.hsd'

Starting initialization...
--------------------------------------------------------------------------------
OpenMP threads:              1
Chosen random seed:          451684570
Mode:                        Static calculation
Self consistent charges:     Yes
SCC-tolerance:                 0.100000E-05
Max. scc iterations:                   1000
Shell resolved Hubbard:      No
Spin polarisation:           No
Nr. of up electrons:             6.000000
Nr. of down electrons:           6.000000
Periodic boundaries:         No
Electronic solver:           Relatively robust
Maximal SCC-cycles:                    1000
Initial charges:             Set automatically (system chrg:   0.100E+01)
Included shells:             C:  s, p
                             N:  s, p
                             H:  s
Spin coupling constants:     C   1(s)-1(s):  -0.455900E-01
                             C   1(s)-2(p):  -0.293000E-01
                             C   2(p)-1(s):  -0.293000E-01
                             C   2(p)-2(p):  -0.275500E-01
                             N   1(s)-1(s):  -0.468700E-01
                             N   1(s)-2(p):  -0.317000E-01
                             N   2(p)-1(s):  -0.317000E-01
                             N   2(p)-2(p):  -0.307200E-01
                             H   1(s)-1(s):  -0.792500E-01
Range separated hybrid:      Yes
  Screening parameter omega:   0.300000E+00
  Range separated algorithm:   MatrixBased
Extra options:
                             Mulliken analysis
                             Force calculation
Force type                   original
                             Eigenvector printing


REKS Calcuation:             Yes
SSR(2,2) Calcuation:         Yes
Energy Functional:           (PPS+OSS)/2
Number of Core Orbitals:                  5
Number of Active Orbitals:                2
Number of Basis:                         12
Number of States:                         2
State-Averaging Weight:          0.500000
                                 0.500000
State of Interest:                        1
Initial Guess:               Diagonalize H0 matrix
Newton-Raphson for FON opt:  Yes
NR max. Iterations:                      50
Level Shifting:              Yes
Shift Value:                     0.300000
W Scale Factor:              C  =    3.200000
                             N  =    3.200000
                             H  =    3.200000
Transition Dipole:           No
Gradient of Microstate:      No
CP-REKS Solver:              Preconditioned Conjugate-Gradient
CG max. Iterations:                     100
CG Tolerance:                  0.100000E-07
Memory for A and Hxc:        Direct Updating Without Saving
Non-Adiabatic Coupling:      Yes

--------------------------------------------------------------------------------

***  Geometry step: 0

  iSCC       reks energy        Diff energy         x_a       SCC error   
    1       -6.1853995969       0.0000000000     0.999753    1.17452264
    2       -6.1905196659      -0.0051200690     0.999847    0.03512483
    3       -6.1918811456      -0.0013614797     0.999886    0.01317115
    4       -6.1923817166      -0.0005005710     0.999904    0.00630422
    5       -6.1925893350      -0.0002076184     0.999913    0.00400138
    6       -6.1926807989      -0.0000914638     0.999918    0.00299202
    7       -6.1927223080      -0.0000415092     0.999921    0.00213959
    8       -6.1927414377      -0.0000191296     0.999923    0.00149571
    9       -6.1927503354      -0.0000088977     0.999924    0.00103363
   10       -6.1927545030      -0.0000041676     0.999925    0.00071040
   11       -6.1927564681      -0.0000019651     0.999926    0.00048721
   12       -6.1927574015      -0.0000009334     0.999926    0.00033407
   13       -6.1927578489      -0.0000004473     0.999926    0.00022928
   14       -6.1927580656      -0.0000002167     0.999926    0.00015762
   15       -6.1927581720      -0.0000001064     0.999926    0.00010858
   16       -6.1927582252      -0.0000000531     0.999926    0.00007498
   17       -6.1927582522      -0.0000000270     0.999926    0.00005192
   18       -6.1927582662      -0.0000000141     0.999926    0.00003605
   19       -6.1927582737      -0.0000000075     0.999926    0.00002541
   20       -6.1927582778      -0.0000000041     0.999926    0.00002095
   21       -6.1927582801      -0.0000000023     0.999926    0.00001756
   22       -6.1927582814      -0.0000000013     0.999926    0.00001459
   23       -6.1927582822      -0.0000000008     0.999926    0.00001204
   24       -6.1927582827      -0.0000000005     0.999926    0.00000987
   25       -6.1927582829      -0.0000000003     0.999926    0.00000807
   26       -6.1927582831      -0.0000000002     0.999926    0.00000656
   27       -6.1927582832      -0.0000000001     0.999926    0.00000533
   28       -6.1927582833      -0.0000000001     0.999926    0.00000431
   29       -6.1927582833      -0.0000000000     0.999926    0.00000349
   30       -6.1927582834      -0.0000000000     0.999926    0.00000281
   31       -6.1927582834      -0.0000000000     0.999926    0.00000227
   32       -6.1927582834      -0.0000000000     0.999926    0.00000182
   33       -6.1927582834      -0.0000000000     0.999926    0.00000147
   34       -6.1927582834      -0.0000000000     0.999926    0.00000118
   35       -6.1927582834      -0.0000000000     0.999926    0.00000095
  
--------------------------------------------------
 Final SA-REKS(2,2) energy:      -6.19275828
  
 State     Energy      FON(1)    FON(2)   Spin
  PPS   -6.31788447   1.999853  0.000147  0.00
  OSS   -6.06763210   1.000000  1.000000  0.00
 Trip   -6.15214396   1.000000  1.000000  1.00
--------------------------------------------------

 Lagrangian Wab:  -0.00297238 -0.00297232

--------------------------------------------------
 SSR: 2SI-2SA-REKS(2,2) Hamiltonian matrix
               PPS           OSS
   PPS    -6.31788447   -0.00416737
   OSS    -0.00416737   -6.06763210
--------------------------------------------------

----------------------------------------------------------------
 SSR: 2SI-2SA-REKS(2,2) states
                    E_n       C_{PPS}    C_{OSS}
 SSR state  1   -6.31795385  -0.999861  -0.016646
 SSR state  2   -6.06756272   0.016646  -0.999861
----------------------------------------------------------------

 unrelaxed SSR FONs for S0:  1.999576  0.000424

Total Energy:                       -6.3179538463 H         -171.9203 eV
Extrapolated to 0:                  -6.3179538463 H         -171.9203 eV

----------------------------------------------------------------------------------
 Solving CP-REKS equation for  1 state vector...
----------------------------------------------------------------------------------
  CG solver: Constructing Y initial guess
  CG solver: Iteration    1    eps =    0.000030921202
  CG solver: Iteration    2    eps =    0.000019858130
  CG solver: Iteration    3    eps =    0.000000590836
  CG solver: Iteration    4    eps =    0.000000064667
  CG solver: Iteration    5    eps =    0.000000013987
  CG solver: Iteration    6    eps =    0.000000000323
  Convergence reached in CG solver after    6 iterations
  CG solver: Calculating converged R, Z, Q2 matrix
----------------------------------------------------------------------------------

----------------------------------------------------------------------------------
 Solving CP-REKS equation for SI between  1 and  2 state vectors...
----------------------------------------------------------------------------------
  CG solver: Constructing Y initial guess
  CG solver: Iteration    1    eps =    0.000969275593
  CG solver: Iteration    2    eps =    0.000287234114
  CG solver: Iteration    3    eps =    0.000092195124
  CG solver: Iteration    4    eps =    0.000001724363
  CG solver: Iteration    5    eps =    0.000000190671
  CG solver: Iteration    6    eps =    0.000000037565
  CG solver: Iteration    7    eps =    0.000000008607
  Convergence reached in CG solver after    7 iterations
  CG solver: Calculating converged R, Z, Q2 matrix
----------------------------------------------------------------------------------

--------------------------------------------------
 Gradient Information
--------------------------------------------------
           1 st state (SSR)
     0.04679775     0.04020082     0.03014316
     0.16187774    -0.02110557    -0.00051478
    -0.05371051     0.00783281     0.04908400
    -0.02744504    -0.01245604    -0.03675482
    -0.08839987    -0.00149109    -0.07996280
    -0.03912007    -0.01298093     0.03800525

           2 st state (SSR)
     0.05930270     0.01585826     0.16173728
     0.11944740    -0.03077290    -0.15021333
    -0.07133338     0.01789313     0.05716307
    -0.02504101    -0.00773859    -0.05064655
    -0.06561595    -0.00849184    -0.05567637
    -0.01675977     0.01325193     0.03763590
--------------------------------------------------
 Coupling Information
--------------------------------------------------
 between  1 and  2 states
--------------------------------------------------
 g vector - difference gradient
    -0.00569122     0.01209690    -0.06583046
     0.02104267     0.00513428     0.07496380
     0.00858593    -0.00479405    -0.00411870
    -0.00119623    -0.00267185     0.00699084
    -0.01132077     0.00365187    -0.01224597
    -0.01142038    -0.01341715     0.00024049

 h vector - derivative coupling
    -0.01695585     0.00243590    -0.00009241
     0.00553253    -0.00894554    -0.00219247
     0.00691742    -0.00717290     0.00230954
    -0.00019364     0.00936218    -0.00123492
    -0.00232702    -0.00449048     0.00288292
     0.00702657     0.00881084    -0.00167265

 G vector - GDV
    -0.00625247     0.01217128    -0.06579706
     0.02121517     0.00483366     0.07484927
     0.00881143    -0.00503016    -0.00403954
    -0.00120201    -0.00235873     0.00694586
    -0.01139196     0.00350037    -0.01214322
    -0.01118015    -0.01311643     0.00018468

 H vector - DCV - non-adiabatic coupling
    -0.06692334     0.00811483     0.00838260
     0.01928591    -0.03638903    -0.01871697
     0.02646972    -0.02799359     0.00976614
    -0.00061391     0.03772469    -0.00585860
    -0.00778342    -0.01840939     0.01313528
     0.02956504     0.03695249    -0.00670844
--------------------------------------------------


--------------------------------------------------------------------------------
DFTB+ running times                          cpu [s]             wall clock [s]
--------------------------------------------------------------------------------
SCC                                    +     0.02  ( 42.1%)      0.02  ( 34.6%)
Post-SCC processing                    +     0.02  ( 54.5%)      0.02  ( 40.4%)
  Force calculation                          0.02  ( 53.5%)      0.02  ( 38.5%)
Post-geometry optimisation             +     0.00  (  1.1%)      0.01  ( 21.2%)
--------------------------------------------------------------------------------
Missing                                +     0.00  (  2.3%)      0.00  (  3.8%)
Total                                  =     0.04  (100.0%)      0.05  (100.0%)
--------------------------------------------------------------------------------
