|===============================================================================
|
|  DFTB+ release 20.1
|
|  Copyright (C) 2006 - 2020  DFTB+ developers group
|
|===============================================================================
|
|  When publishing results obtained with DFTB+, please cite the following
|  reference:
|
|  * DFTB+, a software package for efficient approximate density functional
|    theory based atomistic simulations, J. Chem. Phys. 152, 124101 (2020).
|    [doi: 10.1063/1.5143190]
|
|  You should also cite additional publications crediting the parametrization
|  data you use. Please consult the documentation of the SK-files for the
|  references.
|
|===============================================================================

Reading input file 'dftb_in.hsd'
Parser version: 8

--------------------------------------------------------------------------------
Reading SK-files:
Done.


Processed input in HSD format written to 'dftb_pin.hsd'

Starting initialization...
--------------------------------------------------------------------------------
OpenMP threads:              1
Chosen random seed:          498018089
Mode:                        Static calculation
Self consistent charges:     Yes
SCC-tolerance:                 0.100000E-05
Max. scc iterations:                   1000
Shell resolved Hubbard:      No
Spin polarisation:           No
Nr. of up electrons:            16.000000
Nr. of down electrons:          16.000000
Periodic boundaries:         No
Electronic solver:           Relatively robust
Maximal SCC-cycles:                    1000
Initial charges:             Set automatically (system chrg:   0.100E+01)
Included shells:             C:  s, p
                             H:  s
                             N:  s, p
Spin coupling constants:     C   1(s)-1(s):  -0.455900E-01
                             C   1(s)-2(p):  -0.293000E-01
                             C   2(p)-1(s):  -0.293000E-01
                             C   2(p)-2(p):  -0.275500E-01
                             H   1(s)-1(s):  -0.792500E-01
                             N   1(s)-1(s):  -0.468700E-01
                             N   1(s)-2(p):  -0.317000E-01
                             N   2(p)-1(s):  -0.317000E-01
                             N   2(p)-2(p):  -0.307200E-01
Range separated hybrid:      Yes
  Screening parameter omega:   0.300000E+00
  Range separated algorithm:   MatrixBased
Extra options:
                             Mulliken analysis
                             Force calculation
Force type                   original
                             Eigenvector printing


REKS Calcuation:             Yes
SSR(2,2) Calcuation:         Yes
Energy Functional:           (PPS+OSS)/2
Number of Core Orbitals:                 15
Number of Active Orbitals:                2
Number of Basis:                         32
Number of States:                         2
State-Averaging Weight:          0.500000
                                 0.500000
State of Interest:                        1
Initial Guess:               Diagonalize H0 matrix
Newton-Raphson for FON opt:  Yes
NR max. Iterations:                      50
Level Shifting:              Yes
Shift Value:                     0.300000
W Scale Factor:              C  =    3.200000
                             H  =    3.200000
                             N  =    3.200000
Transition Dipole:           No
Gradient of Microstate:      No
CP-REKS Solver:              Preconditioned Conjugate-Gradient
CG max. Iterations:                     100
CG Tolerance:                  0.100000E-07
Memory for A and Hxc:        Direct Updating Without Saving
Non-Adiabatic Coupling:      Yes

--------------------------------------------------------------------------------

***  Geometry step: 0

  iSCC       reks energy        Diff energy         x_a       SCC error   
    1      -16.4004329501       0.0000000000     0.999992    1.18162342
    2      -16.4085095462      -0.0080765962     0.999999    0.02290368
    3      -16.4104832680      -0.0019737218     0.999999    0.01285773
    4      -16.4111606415      -0.0006773735     1.000000    0.00802855
    5      -16.4114473833      -0.0002867418     1.000000    0.00530099
    6      -16.4115873132      -0.0001399299     1.000000    0.00361092
    7      -16.4116639290      -0.0000766158     1.000000    0.00251892
    8      -16.4117105580      -0.0000466291     1.000000    0.00179902
    9      -16.4117418702      -0.0000313121     1.000000    0.00131833
   10      -16.4117647721      -0.0000229020     1.000000    0.00100873
   11      -16.4117826932      -0.0000179211     1.000000    0.00088545
   12      -16.4117974215      -0.0000147283     1.000000    0.00078969
   13      -16.4118099375      -0.0000125160     1.000000    0.00071388
   14      -16.4118208096      -0.0000108721     1.000000    0.00065263
   15      -16.4118303880      -0.0000095784     1.000000    0.00060205
   16      -16.4118389031      -0.0000085151     1.000000    0.00055940
   17      -16.4118465165      -0.0000076134     1.000000    0.00052271
   18      -16.4118533488      -0.0000068322     1.000000    0.00049056
   19      -16.4118594943      -0.0000061455     1.000000    0.00046193
   20      -16.4118650302      -0.0000055359     1.000000    0.00043608
   21      -16.4118700215      -0.0000049913     1.000000    0.00041247
   22      -16.4118745241      -0.0000045026     1.000000    0.00039070
   23      -16.4118785871      -0.0000040630     1.000000    0.00037046
   24      -16.4118822538      -0.0000036667     1.000000    0.00035155
   25      -16.4118855627      -0.0000033090     1.000000    0.00033378
   26      -16.4118885487      -0.0000029859     1.000000    0.00031703
   27      -16.4118912428      -0.0000026941     1.000000    0.00030120
   28      -16.4118936731      -0.0000024303     1.000000    0.00028619
   29      -16.4118958650      -0.0000021920     1.000000    0.00027196
   30      -16.4118978416      -0.0000019765     1.000000    0.00025843
   31      -16.4118996235      -0.0000017819     1.000000    0.00024557
   32      -16.4119012296      -0.0000016061     1.000000    0.00023334
   33      -16.4119026768      -0.0000014473     1.000000    0.00022170
   34      -16.4119039807      -0.0000013039     1.000000    0.00021062
   35      -16.4119051551      -0.0000011744     1.000000    0.00020007
   36      -16.4119062127      -0.0000010576     1.000000    0.00019002
   37      -16.4119071649      -0.0000009522     1.000000    0.00018046
   38      -16.4119080219      -0.0000008571     1.000000    0.00017136
   39      -16.4119087933      -0.0000007714     1.000000    0.00016270
   40      -16.4119094874      -0.0000006941     1.000000    0.00015446
   41      -16.4119101118      -0.0000006244     1.000000    0.00014661
   42      -16.4119106734      -0.0000005616     1.000000    0.00013915
   43      -16.4119111785      -0.0000005051     1.000000    0.00013205
   44      -16.4119116327      -0.0000004542     1.000000    0.00012530
   45      -16.4119120410      -0.0000004083     1.000000    0.00011889
   46      -16.4119124081      -0.0000003670     1.000000    0.00011279
   47      -16.4119127379      -0.0000003299     1.000000    0.00010699
   48      -16.4119130344      -0.0000002965     1.000000    0.00010148
   49      -16.4119133008      -0.0000002664     1.000000    0.00009625
   50      -16.4119135401      -0.0000002393     1.000000    0.00009128
   51      -16.4119137551      -0.0000002150     1.000000    0.00008655
   52      -16.4119139482      -0.0000001931     1.000000    0.00008207
   53      -16.4119141217      -0.0000001734     1.000000    0.00007781
   54      -16.4119142775      -0.0000001558     1.000000    0.00007377
   55      -16.4119144173      -0.0000001399     1.000000    0.00006993
   56      -16.4119145429      -0.0000001256     1.000000    0.00006629
   57      -16.4119146557      -0.0000001128     1.000000    0.00006283
   58      -16.4119147569      -0.0000001012     1.000000    0.00005955
   59      -16.4119148478      -0.0000000909     1.000000    0.00005644
   60      -16.4119149293      -0.0000000816     1.000000    0.00005349
   61      -16.4119150025      -0.0000000732     1.000000    0.00005069
   62      -16.4119150682      -0.0000000657     1.000000    0.00004804
   63      -16.4119151272      -0.0000000590     1.000000    0.00004552
   64      -16.4119151801      -0.0000000529     1.000000    0.00004313
   65      -16.4119152276      -0.0000000475     1.000000    0.00004086
   66      -16.4119152702      -0.0000000426     1.000000    0.00003872
   67      -16.4119153084      -0.0000000382     1.000000    0.00003668
   68      -16.4119153427      -0.0000000343     1.000000    0.00003475
   69      -16.4119153735      -0.0000000308     1.000000    0.00003292
   70      -16.4119154011      -0.0000000276     1.000000    0.00003119
   71      -16.4119154258      -0.0000000248     1.000000    0.00002954
   72      -16.4119154480      -0.0000000222     1.000000    0.00002799
   73      -16.4119154680      -0.0000000199     1.000000    0.00002651
   74      -16.4119154858      -0.0000000179     1.000000    0.00002511
   75      -16.4119155018      -0.0000000160     1.000000    0.00002379
   76      -16.4119155162      -0.0000000144     1.000000    0.00002253
   77      -16.4119155291      -0.0000000129     1.000000    0.00002134
   78      -16.4119155407      -0.0000000116     1.000000    0.00002021
   79      -16.4119155511      -0.0000000104     1.000000    0.00001914
   80      -16.4119155604      -0.0000000093     1.000000    0.00001813
   81      -16.4119155687      -0.0000000083     1.000000    0.00001717
   82      -16.4119155762      -0.0000000075     1.000000    0.00001626
   83      -16.4119155829      -0.0000000067     1.000000    0.00001540
   84      -16.4119155889      -0.0000000060     1.000000    0.00001458
   85      -16.4119155943      -0.0000000054     1.000000    0.00001381
   86      -16.4119155991      -0.0000000048     1.000000    0.00001308
   87      -16.4119156035      -0.0000000043     1.000000    0.00001239
   88      -16.4119156074      -0.0000000039     1.000000    0.00001173
   89      -16.4119156108      -0.0000000035     1.000000    0.00001111
   90      -16.4119156140      -0.0000000031     1.000000    0.00001052
   91      -16.4119156168      -0.0000000028     1.000000    0.00000996
   92      -16.4119156193      -0.0000000025     1.000000    0.00000943
   93      -16.4119156215      -0.0000000023     1.000000    0.00000893
   94      -16.4119156236      -0.0000000020     1.000000    0.00000846
   95      -16.4119156254      -0.0000000018     1.000000    0.00000801
   96      -16.4119156270      -0.0000000016     1.000000    0.00000758
   97      -16.4119156285      -0.0000000015     1.000000    0.00000718
   98      -16.4119156298      -0.0000000013     1.000000    0.00000680
   99      -16.4119156309      -0.0000000012     1.000000    0.00000644
  100      -16.4119156320      -0.0000000010     1.000000    0.00000610
  101      -16.4119156329      -0.0000000009     1.000000    0.00000577
  102      -16.4119156338      -0.0000000008     1.000000    0.00000547
  103      -16.4119156345      -0.0000000008     1.000000    0.00000518
  104      -16.4119156352      -0.0000000007     1.000000    0.00000490
  105      -16.4119156358      -0.0000000006     1.000000    0.00000464
  106      -16.4119156363      -0.0000000005     1.000000    0.00000439
  107      -16.4119156368      -0.0000000005     1.000000    0.00000416
  108      -16.4119156373      -0.0000000004     1.000000    0.00000394
  109      -16.4119156377      -0.0000000004     1.000000    0.00000373
  110      -16.4119156380      -0.0000000004     1.000000    0.00000353
  111      -16.4119156383      -0.0000000003     1.000000    0.00000334
  112      -16.4119156386      -0.0000000003     1.000000    0.00000317
  113      -16.4119156389      -0.0000000003     1.000000    0.00000300
  114      -16.4119156391      -0.0000000002     1.000000    0.00000284
  115      -16.4119156393      -0.0000000002     1.000000    0.00000269
  116      -16.4119156395      -0.0000000002     1.000000    0.00000255
  117      -16.4119156396      -0.0000000002     1.000000    0.00000241
  118      -16.4119156398      -0.0000000001     1.000000    0.00000228
  119      -16.4119156399      -0.0000000001     1.000000    0.00000216
  120      -16.4119156400      -0.0000000001     1.000000    0.00000205
  121      -16.4119156402      -0.0000000001     1.000000    0.00000194
  122      -16.4119156402      -0.0000000001     1.000000    0.00000183
  123      -16.4119156403      -0.0000000001     1.000000    0.00000174
  124      -16.4119156404      -0.0000000001     1.000000    0.00000164
  125      -16.4119156405      -0.0000000001     1.000000    0.00000156
  126      -16.4119156405      -0.0000000001     1.000000    0.00000147
  127      -16.4119156406      -0.0000000001     1.000000    0.00000140
  128      -16.4119156406      -0.0000000000     1.000000    0.00000132
  129      -16.4119156407      -0.0000000000     1.000000    0.00000125
  130      -16.4119156407      -0.0000000000     1.000000    0.00000118
  131      -16.4119156408      -0.0000000000     1.000000    0.00000112
  132      -16.4119156408      -0.0000000000     1.000000    0.00000106
  133      -16.4119156408      -0.0000000000     1.000000    0.00000101
  134      -16.4119156408      -0.0000000000     1.000000    0.00000095
  
--------------------------------------------------
 Final SA-REKS(2,2) energy:     -16.41191564
  
 State     Energy      FON(1)    FON(2)   Spin
  PPS  -16.47356073   2.000000  0.000000  0.00
  OSS  -16.35027055   1.000000  1.000000  0.00
 Trip  -16.37182462   1.000000  1.000000  1.00
--------------------------------------------------

 Lagrangian Wab:   0.00195750  0.00195758

--------------------------------------------------
 SSR: 2SI-2SA-REKS(2,2) Hamiltonian matrix
               PPS           OSS
   PPS   -16.47356073    0.00276788
   OSS     0.00276788  -16.35027055
--------------------------------------------------

----------------------------------------------------------------
 SSR: 2SI-2SA-REKS(2,2) states
                    E_n       C_{PPS}    C_{OSS}
 SSR state  1  -16.47362284  -0.999748   0.022433
 SSR state  2  -16.35020844  -0.022433  -0.999748
----------------------------------------------------------------

 unrelaxed SSR FONs for S0:  1.999497  0.000503

Total Energy:                      -16.4736228375 H         -448.2701 eV
Extrapolated to 0:                 -16.4736228375 H         -448.2701 eV

----------------------------------------------------------------------------------
 Solving CP-REKS equation for  1 state vector...
----------------------------------------------------------------------------------
  CG solver: Constructing Y initial guess
  CG solver: Iteration    1    eps =    0.000561803670
  CG solver: Iteration    2    eps =    0.000086696787
  CG solver: Iteration    3    eps =    0.000029360552
  CG solver: Iteration    4    eps =    0.000004380362
  CG solver: Iteration    5    eps =    0.000005453068
  CG solver: Iteration    6    eps =    0.000002648602
  CG solver: Iteration    7    eps =    0.000000194519
  CG solver: Iteration    8    eps =    0.000000019445
  CG solver: Iteration    9    eps =    0.000000003398
  Convergence reached in CG solver after    9 iterations
  CG solver: Calculating converged R, Z, Q2 matrix
----------------------------------------------------------------------------------

----------------------------------------------------------------------------------
 Solving CP-REKS equation for SI between  1 and  2 state vectors...
----------------------------------------------------------------------------------
  CG solver: Constructing Y initial guess
  CG solver: Iteration    1    eps =    0.020686184636
  CG solver: Iteration    2    eps =    0.000901109936
  CG solver: Iteration    3    eps =    0.000114883851
  CG solver: Iteration    4    eps =    0.000186277979
  CG solver: Iteration    5    eps =    0.000035127988
  CG solver: Iteration    6    eps =    0.000033736033
  CG solver: Iteration    7    eps =    0.000011528818
  CG solver: Iteration    8    eps =    0.000000643166
  CG solver: Iteration    9    eps =    0.000000073209
  CG solver: Iteration   10    eps =    0.000000010699
  CG solver: Iteration   11    eps =    0.000000003152
  Convergence reached in CG solver after   11 iterations
  CG solver: Calculating converged R, Z, Q2 matrix
----------------------------------------------------------------------------------

--------------------------------------------------
 Gradient Information
--------------------------------------------------
           1 st state (SSR)
     0.01598763     0.01991647     0.05256601
     0.00885318     0.07705582    -0.01272954
    -0.01850964     0.01799775     0.01752954
     0.01750346    -0.03159401    -0.02595566
    -0.01984202    -0.05077393     0.01333374
    -0.04440787    -0.03262365    -0.00393997
    -0.04210201     0.07880840     0.01765509
     0.00621849    -0.01593530    -0.01202162
    -0.00914023    -0.03191171    -0.01312598
    -0.02738751     0.00247368    -0.03926048
    -0.00183648    -0.01995047    -0.00675935
     0.05345397    -0.02996297     0.01068073
     0.02648926    -0.00992066    -0.01846201
     0.03471977     0.02642058     0.02048948

           2 st state (SSR)
     0.03043183     0.03028642     0.10336117
    -0.00249190     0.05454592    -0.06302084
    -0.00288140     0.02203055     0.01036879
     0.00518804    -0.03435482    -0.01642734
    -0.00614800    -0.04665551     0.00778705
    -0.06073066    -0.03354384    -0.00244228
    -0.04708399     0.08016985     0.01491694
     0.01005821    -0.00830580    -0.01422807
    -0.00725032    -0.03204456    -0.01243105
     0.03778304    -0.00088213    -0.01614338
     0.00201968    -0.01597727    -0.01149187
    -0.02762954    -0.02839052    -0.00675194
     0.03052962    -0.01631647    -0.01606351
     0.03820538     0.02943817     0.02256632
--------------------------------------------------
 Coupling Information
--------------------------------------------------
 between  1 and  2 states
--------------------------------------------------
 g vector - difference gradient
    -0.00738711    -0.00505858    -0.02590777
     0.00572288     0.01134755     0.02604539
    -0.00796462    -0.00204799     0.00364907
     0.00630215     0.00140861    -0.00487333
    -0.00695673    -0.00208462     0.00281773
     0.00874096     0.00047677    -0.00123208
     0.00227521    -0.00086309     0.00148465
    -0.00200891    -0.00385662     0.00106035
    -0.00092058     0.00000578    -0.00023556
    -0.03293837     0.00168787    -0.01172918
    -0.00184962    -0.00194884     0.00239017
     0.04080208    -0.00075665     0.00878003
    -0.00205141     0.00315671    -0.00112920
    -0.00176594    -0.00146690    -0.00112025

 h vector - derivative coupling
    -0.00351290     0.00293139    -0.01079294
     0.00099394     0.00180980     0.01947446
    -0.00317648    -0.00065815     0.00144960
     0.00307875     0.00059732    -0.00232458
    -0.00229009    -0.00051980     0.00092624
     0.01272477     0.00036096    -0.01074570
    -0.00486163    -0.00404634     0.00254315
    -0.00194029    -0.00084676    -0.00097970
     0.00056410    -0.00135220     0.00250002
    -0.00713285     0.00018432    -0.00354083
     0.00179074     0.00088560     0.00047942
     0.00488829     0.00067619     0.00122314
    -0.00065025    -0.00098920     0.00158699
    -0.00047609     0.00096690    -0.00179928

 G vector - GDV
    -0.00722210    -0.00518498    -0.02539758
     0.00567254     0.01125495     0.02514565
    -0.00781412    -0.00201640     0.00358037
     0.00615771     0.00138040    -0.00476416
    -0.00684701    -0.00205921     0.00277334
     0.00816140     0.00046010    -0.00074884
     0.00249099    -0.00068072     0.00136908
    -0.00191986    -0.00381475     0.00110322
    -0.00094496     0.00006642    -0.00034747
    -0.03258527     0.00167790    -0.01155855
    -0.00192808    -0.00198660     0.00236626
     0.04054175    -0.00078622     0.00871633
    -0.00202018     0.00319790    -0.00119925
    -0.00174280    -0.00150879    -0.00103842

 H vector - DCV - non-adiabatic coupling
    -0.03112049     0.02188999    -0.09678102
     0.01012556     0.01877391     0.16710473
    -0.02860713    -0.00607180     0.01306021
     0.02721185     0.00534701    -0.02058783
    -0.02106582    -0.00496528     0.00852168
     0.10617920     0.00309514    -0.08743022
    -0.03852618    -0.03306732     0.02112546
    -0.01643609    -0.00825594    -0.00754489
     0.00423157    -0.01094349     0.02015109
    -0.06970926     0.00210542    -0.03292465
     0.01382310     0.00646026     0.00474947
     0.05439840     0.00519848     0.01309197
    -0.00600913    -0.00685991     0.01243568
    -0.00449558     0.00729352    -0.01497169
--------------------------------------------------


--------------------------------------------------------------------------------
DFTB+ running times                          cpu [s]             wall clock [s]
--------------------------------------------------------------------------------
SCC                                    +     0.20  ( 39.5%)      0.20  ( 39.5%)
      Sparse to dense                        0.01  (  2.0%)      0.01  (  1.4%)
      Dense to sparse                        0.04  (  7.3%)      0.04  (  6.9%)
      Range separated Hamiltonian            0.02  (  3.4%)      0.02  (  3.4%)
  Density matrix creation                    0.02  (  4.2%)      0.02  (  4.2%)
Post-SCC processing                    +     0.30  ( 60.1%)      0.30  ( 59.5%)
  Force calculation                          0.30  ( 60.1%)      0.30  ( 59.3%)
--------------------------------------------------------------------------------
Missing                                +     0.00  (  0.4%)      0.00  (  1.0%)
Total                                  =     0.49  (100.0%)      0.50  (100.0%)
--------------------------------------------------------------------------------
