     6
  Step:     0            Position(A)                                  Velocity(au)
C        -0.04095308    -0.00040749     0.02815372     0.00006289    -0.00000942    -0.00034632
N        -0.04572628    -0.04241466     1.28903709    -0.00017238     0.00001919     0.00020168
H         0.94129104     0.05021333    -0.50652138    -0.00057336     0.00004258     0.00055522
H         0.83781492    -0.18375760     1.81820709     0.00145849    -0.00027957     0.00112038
H        -0.91213005    -0.05980913     1.85073286     0.00098792    -0.00001608    -0.00037510
H        -0.95648560     0.11783995    -0.51877155    -0.00022701     0.00009860     0.00002364
     6
  Step:     1            Position(A)                                  Velocity(au)
C        -0.04058347    -0.00046238     0.02607328     0.00007192    -0.00001075    -0.00041213
N        -0.04666099    -0.04231081     1.29032986    -0.00016732     0.00001866     0.00026950
H         0.93814489     0.05049118    -0.50363438    -0.00057093     0.00005938     0.00049607
H         0.84570281    -0.18532057     1.82438237     0.00140774    -0.00028894     0.00112566
H        -0.90672245    -0.05991687     1.84874394     0.00097585    -0.00002367    -0.00034261
H        -0.95805026     0.11844352    -0.51901904    -0.00034459     0.00012202    -0.00011318
     6
  Step:     2            Position(A)                                  Velocity(au)
C        -0.04016624    -0.00052513     0.02364488     0.00008010    -0.00001228    -0.00047287
N        -0.04755678    -0.04221051     1.29198546    -0.00015814     0.00001791     0.00033365
H         0.93504494     0.05086293    -0.50109424    -0.00055585     0.00007687     0.00042801
H         0.85321598    -0.18691875     1.83052214     0.00132246    -0.00029253     0.00110780
H        -0.90145398    -0.06006811     1.84698460     0.00093589    -0.00003198    -0.00029064
H        -0.96025551     0.11917486    -0.52000972    -0.00045945     0.00014501    -0.00024692
     6
  Step:     3            Position(A)                                  Velocity(au)
C        -0.03970681    -0.00059680     0.02089789     0.00008713    -0.00001399    -0.00052780
N        -0.04839175    -0.04211476     1.29398151    -0.00014509     0.00001701     0.00039315
H         0.93206133     0.05133246    -0.49894998    -0.00052778     0.00009502     0.00035104
H         0.86017672    -0.18852217     1.83650683     0.00120674    -0.00029090     0.00106925
H        -0.89647950    -0.06026689     1.84556298     0.00086757    -0.00004102    -0.00021902
H        -0.96307879     0.12003057    -0.52172149    -0.00056852     0.00016711    -0.00037542
     6
  Step:     4            Position(A)                                  Velocity(au)
C        -0.03921216    -0.00067832     0.01786535     0.00009273    -0.00001586    -0.00057628
N        -0.04914558    -0.04202420     1.29629061    -0.00012852     0.00001603     0.00044716
H         0.92926555     0.05190346    -0.49725023    -0.00048670     0.00011379     0.00026543
H         0.86643015    -0.19010423     1.84223073     0.00106493    -0.00028471     0.00101266
H        -0.89195386    -0.06051727     1.84458623     0.00077157    -0.00005076    -0.00012844
H        -0.96648100     0.12100480    -0.52412073    -0.00066884     0.00018789    -0.00049662
     6
  Step:     5            Position(A)                                  Velocity(au)
C        -0.03869070    -0.00077055     0.01458348     0.00009668    -0.00001786    -0.00061781
N        -0.04980000    -0.04193916     1.29888116    -0.00010887     0.00001501     0.00049498
H         0.92672844     0.05257931    -0.49604164    -0.00043298     0.00013310     0.00017173
H         0.87184536    -0.19164182     1.84760276     0.00090158    -0.00027461     0.00094081
H        -0.88802527    -0.06082312     1.84415566     0.00064985    -0.00006116    -0.00002050
H        -0.97040738     0.12208932    -0.52716302    -0.00075766     0.00020692    -0.00060860
     6
  Step:     6            Position(A)                                  Velocity(au)
C        -0.03815202    -0.00087416     0.01109094     0.00009879    -0.00001997    -0.00065200
N        -0.05033934    -0.04185966     1.30171816    -0.00008665     0.00001401     0.00053607
H         0.92451783     0.05336297    -0.49536722    -0.00036744     0.00015285     0.00007082
H         0.87631621    -0.19311543     1.85254695     0.00072132    -0.00026128     0.00085650
H        -0.88482812    -0.06118794     1.84436142     0.00050568    -0.00007212     0.00010221
H        -0.97478896     0.12327368    -0.53079418    -0.00083259     0.00022380    -0.00070971
     6
  Step:     7            Position(A)                                  Velocity(au)
C        -0.03760652    -0.00098967     0.00742809     0.00009895    -0.00002215    -0.00067864
N        -0.05075099    -0.04178546     1.30476428    -0.00006250     0.00001307     0.00057012
H         0.92269594     0.05425676    -0.49526444    -0.00029141     0.00017290    -0.00003608
H         0.87976143    -0.19450920     1.85700244     0.00052875    -0.00024538     0.00076255
H        -0.88247570    -0.06161459     1.84527732     0.00034366    -0.00008349     0.00023618
H        -0.97954464     0.12454542    -0.53495173    -0.00089164     0.00023821    -0.00079858
     6
  Step:     8            Position(A)                                  Velocity(au)
C        -0.03706506    -0.00111742     0.00363622     0.00009712    -0.00002436    -0.00069762
N        -0.05102585    -0.04171610     1.30798083    -0.00003708     0.00001223     0.00059696
H         0.92131671     0.05526224    -0.49576354    -0.00020668     0.00019308    -0.00014744
H         0.88212440    -0.19581090     1.86092338     0.00032844    -0.00022760     0.00066170
H        -0.88105311    -0.06210508     1.84695584     0.00016953    -0.00009510     0.00037711
H        -0.98458351     0.12589038    -0.53956644    -0.00093331     0.00024986    -0.00087415
     6
  Step:     9            Position(A)                                  Velocity(au)
C        -0.03653855    -0.00125753    -0.00024313     0.00009334    -0.00002657    -0.00070898
N        -0.05115874    -0.04165095     1.31132867    -0.00001115     0.00001152     0.00061661
H         0.92042325     0.05637995    -0.49688577    -0.00011547     0.00021320    -0.00026147
H         0.88337306    -0.19701195     1.86427875     0.00012494    -0.00020861     0.00055672
H        -0.88061155    -0.06266034     1.84942412    -0.00001010    -0.00010672     0.00052008
H        -0.98980763     0.12729300    -0.54456417    -0.00095664     0.00025855    -0.00093573
     6
  Step:    10            Position(A)                                  Velocity(au)
C        -0.03603750    -0.00140993    -0.00416888     0.00008772    -0.00002874    -0.00071291
N        -0.05114863    -0.04158923     1.31476904     0.00001451     0.00001097     0.00062922
H         0.92004550     0.05760932    -0.49864198    -0.00002041     0.00023302    -0.00037611
H         0.88349982    -0.19810746     1.86705222    -0.00007727    -0.00018910     0.00045029
H        -0.88116427    -0.06327998     1.85268130    -0.00018811    -0.00011811     0.00065987
H        -0.99511504     0.12873673    -0.54986776    -0.00096123     0.00026414    -0.00098296
     6
  Step:    11            Position(A)                                  Velocity(au)
C        -0.03557163    -0.00157431    -0.00810114     0.00008046    -0.00003083    -0.00070970
N        -0.05099877    -0.04153003     1.31826430     0.00003914     0.00001059     0.00063509
H         0.92019829     0.05894842    -0.50103141     0.00007561     0.00025229    -0.00048917
H         0.88252140    -0.19909626     1.86924208    -0.00027374    -0.00016974     0.00034510
H        -0.88268496    -0.06396219     1.85669751    -0.00035737    -0.00012899     0.00079128
H        -1.00040281     0.13020444    -0.55539889    -0.00094724     0.00026656    -0.00101586
     6
  Step:    12            Position(A)                                  Velocity(au)
C        -0.03514947    -0.00175017    -0.01200186     0.00007179    -0.00003280    -0.00069979
N        -0.05071660    -0.04147234     1.32177856     0.00006200     0.00001040     0.00063460
H         0.92088002     0.06039391    -0.50404098     0.00016955     0.00027076    -0.00059840
H         0.88047857    -0.19998093     1.87086107    -0.00046015    -0.00015125     0.00024376
H        -0.88510861    -0.06470363     1.86141476    -0.00051122    -0.00013910     0.00090951
H        -1.00556977     0.13167879    -0.56107988    -0.00091532     0.00026584    -0.00103475
     6
  Step:    13            Position(A)                                  Velocity(au)
C        -0.03477814    -0.00193682    -0.01583547     0.00006201    -0.00003462    -0.00068375
N        -0.05031350    -0.04141507     1.32527810     0.00008243     0.00001042     0.00062824
H         0.92207221     0.06194098    -0.50764515     0.00025841     0.00028818    -0.00070163
H         0.87743572    -0.20076791     1.87193618    -0.00063235    -0.00013431     0.00014882
H        -0.88833509    -0.06549952     1.86674972    -0.00064389    -0.00014819     0.00101045
H        -1.01051916     0.13314264    -0.56683532    -0.00086661     0.00026209    -0.00104031
     6
  Step:    14            Position(A)                                  Velocity(au)
C        -0.03446309    -0.00213338    -0.01956954     0.00005144    -0.00003627    -0.00066226
N        -0.04980430    -0.04135704     1.32873186     0.00009987     0.00001066     0.00061658
H         0.92374003     0.06358342    -0.51180654     0.00033940     0.00030432    -0.00079689
H         0.87347980    -0.20146748     1.87250823    -0.00078651    -0.00011962     0.00006270
H        -0.89223510    -0.06634374     1.87259826    -0.00075094    -0.00015605     0.00109098
H        -1.01516126     0.13457951    -0.57259390    -0.00080271     0.00025547    -0.00103352
     6
  Step:    15            Position(A)                                  Velocity(au)
C        -0.03420802    -0.00233885    -0.02317543     0.00004039    -0.00003774    -0.00063611
N        -0.04920665    -0.04129696     1.33211180     0.00011390     0.00001114     0.00060026
H         0.92583379     0.06531380    -0.51647726     0.00041013     0.00031903    -0.00088258
H         0.86871865    -0.20209372     1.87263113    -0.00091924    -0.00010786    -0.00001239
H        -0.89665793    -0.06722908     1.87884128    -0.00082949    -0.00016255     0.00114919
H        -1.01941571     0.13597406    -0.57829007    -0.00072557     0.00024626    -0.00101569
     6
  Step:    16            Position(A)                                  Velocity(au)
C        -0.03401484    -0.00255215    -0.02662882     0.00002831    -0.00003545    -0.00065642
N        -0.04854026    -0.04123346     1.33539325     0.00012566     0.00001004     0.00062033
H         0.92829149     0.06712385    -0.52160104     0.00044171     0.00036360    -0.00091657
H         0.86327847    -0.20266443     1.87237076    -0.00105608    -0.00014069    -0.00009407
H        -0.90144037    -0.06814764     1.88535142    -0.00086380    -0.00012109     0.00116829
H        -1.02321331     0.13731243    -0.58386559    -0.00060537     0.00018107    -0.00095608
     6
  Step:    17            Position(A)                                  Velocity(au)
C        -0.03389350    -0.00273273    -0.03046892     0.00001542    -0.00002935    -0.00072396
N        -0.04781044    -0.04118543     1.33900431     0.00013481     0.00000726     0.00067768
H         0.93074163     0.06935381    -0.52666129     0.00043375     0.00042487    -0.00089971
H         0.85698442    -0.20365698     1.87158589    -0.00119276    -0.00020403    -0.00018092
H        -0.90625570    -0.06857452     1.89182229    -0.00085367    -0.00004466     0.00114550
H        -1.02614198     0.13798598    -0.58891311    -0.00044440     0.00007268    -0.00085547
     6
  Step:    18            Position(A)                                  Velocity(au)
C        -0.03384332    -0.00287872    -0.03468287     0.00000288    -0.00002310    -0.00078659
N        -0.04704052    -0.04115269     1.34293247     0.00013967     0.00000469     0.00073037
H         0.93311693     0.07185050    -0.53161026     0.00041500     0.00046489    -0.00087508
H         0.85000902    -0.20493430     1.87035800    -0.00129530    -0.00025022    -0.00025066
H        -0.91093746    -0.06864447     1.89809510    -0.00081588     0.00001351     0.00109813
H        -1.02815722     0.13812098    -0.59338266    -0.00027912    -0.00001811    -0.00074881
     6
  Step:    19            Position(A)                                  Velocity(au)
C        -0.03386142    -0.00299007    -0.03923116    -0.00000898    -0.00001691    -0.00084134
N        -0.04625453    -0.04113318     1.34714026     0.00014025     0.00000256     0.00077556
H         0.93536448     0.07453244    -0.53640920     0.00038769     0.00049240    -0.00084424
H         0.84255542    -0.20644435     1.86879365    -0.00135953    -0.00028977    -0.00029984
H        -0.91534423    -0.06842408     1.90405485    -0.00075499     0.00006156     0.00103263
H        -1.02925127     0.13778424    -0.59725450    -0.00011513    -0.00009829    -0.00064060
     6
  Step:    20            Position(A)                                  Velocity(au)
C        -0.03394345    -0.00306737    -0.04406661    -0.00001993    -0.00001089    -0.00088749
N        -0.04547631    -0.04112410     1.35158256     0.00013665     0.00000098     0.00081251
H         0.93744101     0.07734243    -0.54102634     0.00035360     0.00051097    -0.00080861
H         0.83484566    -0.20816623     1.86701381    -0.00138319    -0.00032723    -0.00032651
H        -0.91935810    -0.06795790     1.90961243    -0.00067547     0.00010260     0.00095360
H        -1.02944127     0.13702471    -0.60052756     0.00004354    -0.00017032    -0.00053398
     6
  Step:    21            Position(A)                                  Velocity(au)
C        -0.03408396    -0.00311164    -0.04914027    -0.00002982    -0.00000509    -0.00092523
N        -0.04472874    -0.04112218     1.35621213     0.00012916     0.00000002     0.00084129
H         0.93931257     0.08023761    -0.54543753     0.00031441     0.00052295    -0.00076968
H         0.82711171    -0.21009796     1.86514806    -0.00136563    -0.00036546    -0.00032976
H        -0.92288603    -0.06727856     1.91470208    -0.00058189     0.00013840     0.00086520
H        -1.02876509     0.13588261    -0.60321649     0.00019364    -0.00023557    -0.00043153
     6
  Step:    22            Position(A)                                  Velocity(au)
C        -0.03427669    -0.00312428    -0.05440508    -0.00003854     0.00000043    -0.00095523
N        -0.04403310    -0.04112383     1.36098308     0.00011811    -0.00000028     0.00086247
H         0.94095420     0.08318580    -0.54962673     0.00027168     0.00053010    -0.00072895
H         0.81958619    -0.21224991     1.86332908    -0.00130767    -0.00040649    -0.00030957
H        -0.92586009    -0.06641144     1.91928018    -0.00047866     0.00017014     0.00077126
H        -1.02727753     0.13439251    -0.60534943     0.00033262    -0.00029501    -0.00033540
     6
  Step:    23            Position(A)                                  Velocity(au)
C        -0.03451480    -0.00310689    -0.05981821    -0.00004602     0.00000564    -0.00097841
N        -0.04340848    -0.04112526     1.36585319     0.00010393     0.00000010     0.00087688
H         0.94234956     0.08616328    -0.55358599     0.00022685     0.00053383    -0.00068773
H         0.81249406    -0.21464188     1.86168751    -0.00121139    -0.00045178    -0.00026678
H        -0.92823673    -0.06537667     1.92332360    -0.00036987     0.00019869     0.00067514
H        -1.02504695     0.13258484    -0.60696577     0.00045850    -0.00034943    -0.00024730
     6
  Step:    24            Position(A)                                  Velocity(au)
C        -0.03479109    -0.00306121    -0.06534227    -0.00005220     0.00001055    -0.00099572
N        -0.04287133    -0.04112268     1.37078531     0.00008709     0.00000115     0.00088541
H         0.94349002     0.08915327    -0.55731459     0.00018112     0.00053525    -0.00064714
H         0.80604465    -0.21730017     1.86034682    -0.00107999    -0.00050229    -0.00020301
H        -0.92999473    -0.06419037     1.92682731    -0.00025914     0.00022472     0.00057966
H        -1.02215217     0.13048643    -0.60811387     0.00056973    -0.00039946    -0.00016852
     6
  Step:    25            Position(A)                                  Velocity(au)
C        -0.03509812    -0.00298899    -0.07094526    -0.00005705     0.00001515    -0.00100793
N        -0.04243522    -0.04111236     1.37574759     0.00006812     0.00000285     0.00088887
H         0.94437352     0.09214458    -0.56081771     0.00013550     0.00053514    -0.00060797
H         0.80042528    -0.22025493     1.85941886    -0.00091766    -0.00055844    -0.00012060
H        -0.93113257    -0.06286546     1.92980127    -0.00014962     0.00024873     0.00048710
H        -1.01868027     0.12812094    -0.60884890     0.00066494    -0.00044562    -0.00010005
     6
  Step:    26            Position(A)                                  Velocity(au)
C        -0.03542823    -0.00289201    -0.07659954    -0.00006051     0.00001944    -0.00101555
N        -0.04211053    -0.04109082     1.38071283     0.00004757     0.00000515     0.00088787
H         0.94500339     0.09513010    -0.56410483     0.00009085     0.00053406    -0.00057076
H         0.79579563    -0.22353721     1.85899992    -0.00072957    -0.00062005    -0.00002258
H        -0.93166581    -0.06141242     1.93226761    -0.00004414     0.00027106     0.00039930
H        -1.01472571     0.12550947    -0.60923133     0.00074273    -0.00048824    -0.00004272
     6
  Step:    27            Position(A)                                  Velocity(au)
C        -0.03577346    -0.00277200    -0.08228040    -0.00006252     0.00002342    -0.00101883
N        -0.04190421    -0.04105494     1.38565757     0.00002610     0.00000795     0.00088285
H         0.94538750     0.09810548    -0.56718824     0.00004789     0.00053230    -0.00053582
H         0.79228215    -0.22717570     1.85916680    -0.00052200    -0.00068637     0.00008727
H        -0.93162519    -0.05984003     1.93425810     0.00005471     0.00029192     0.00031780
H        -1.01039026     0.12267139    -0.60932575     0.00080167    -0.00052751     0.00000279
     6
  Step:    28            Position(A)                                  Velocity(au)
C        -0.03612558    -0.00263072    -0.08796451    -0.00006301     0.00002709    -0.00101782
N        -0.04181943    -0.04100210     1.39056094     0.00000439     0.00001117     0.00087413
H         0.94553762     0.10106786    -0.57008184     0.00000731     0.00053004    -0.00050335
H         0.78997275    -0.23119358     1.85997343    -0.00030228    -0.00075607     0.00020460
H        -0.93105548    -0.05815609     1.93581265     0.00014447     0.00031142     0.00024394
H        -1.00578313     0.11962510    -0.60920022     0.00084033    -0.00056346     0.00003590
     6
  Step:    29            Position(A)                                  Velocity(au)
C        -0.03647604    -0.00246995    -0.09362887    -0.00006194     0.00003043    -0.00101246
N        -0.04185527    -0.04093038     1.39540398    -0.00001679     0.00001467     0.00086198
H         0.94546904     0.10401531    -0.57280046    -0.00003025     0.00052736    -0.00047346
H         0.78891183    -0.23560572     1.86144804    -0.00007857    -0.00082738     0.00032458
H        -0.93001434    -0.05636780     1.93697799     0.00022282     0.00032958     0.00017892
H        -1.00102072     0.11638885    -0.60892548     0.00085736    -0.00059604     0.00005613
     6
  Step:    30            Position(A)                                  Velocity(au)
C        -0.03681601    -0.00229150    -0.09925025    -0.00005926     0.00003343    -0.00100270
N        -0.04200656    -0.04083860     1.40016928    -0.00003666     0.00001830     0.00084664
H         0.94520044     0.10694624    -0.57535948    -0.00006419     0.00052431    -0.00044627
H         0.78909691    -0.24041627     1.86359145     0.00014045    -0.00089819     0.00044221
H        -0.92857177    -0.05448225     1.93780703     0.00028759     0.00034639     0.00012380
H        -0.99622625     0.11298109    -0.60857449     0.00085169    -0.00062515     0.00006319
     6
  Step:    31            Position(A)                                  Velocity(au)
C        -0.03713658    -0.00209730    -0.10480512    -0.00005498     0.00003609    -0.00098854
N        -0.04226385    -0.04072646     1.40484082    -0.00005446     0.00002190     0.00082843
H         0.94475359     0.10985933    -0.57777465    -0.00009394     0.00052093    -0.00042185
H         0.79047737    -0.24561716     1.86637700     0.00034625    -0.00096627     0.00055264
H        -0.92680875    -0.05250686     1.93835790     0.00033690     0.00036182     0.00007950
H        -0.99152757     0.10942080    -0.60822112     0.00082278    -0.00065077     0.00005703
     6
  Step:    32            Position(A)                                  Velocity(au)
C        -0.03742895    -0.00188923    -0.11027002    -0.00004916     0.00003840    -0.00097008
N        -0.04261366    -0.04059452     1.40940422    -0.00006952     0.00002531     0.00080767
H         0.94415318     0.11275332    -0.58006212    -0.00011903     0.00051728    -0.00040032
H         0.79295680    -0.25118782     1.86975208     0.00053099    -0.00102942     0.00065151
H        -0.92481613    -0.05044881     1.93869330     0.00036921     0.00037591     0.00004673
H        -0.98705420     0.10572655    -0.60793875     0.00077075    -0.00067301     0.00003792
     6
  Step:    33            Position(A)                                  Velocity(au)
C        -0.03768474    -0.00166916    -0.11562212    -0.00004190     0.00004037    -0.00094758
N        -0.04303908    -0.04044425     1.41384684    -0.00008130     0.00002839     0.00078477
H         0.94342636     0.11562726    -0.58223845    -0.00013905     0.00051346    -0.00038176
H         0.79639822    -0.25709580     1.87364171     0.00068808    -0.00108571     0.00073525
H        -0.92269191    -0.04831527     1.93887898     0.00038350     0.00038868     0.00002589
H        -0.98293333     0.10191635    -0.60779825     0.00069646    -0.00069205     0.00000653
     6
  Step:    34            Position(A)                                  Velocity(au)
C        -0.03789629    -0.00143892    -0.12083992    -0.00003336     0.00004203    -0.00092139
N        -0.04352052    -0.04027783     1.41815806    -0.00008940     0.00003102     0.00076015
H         0.94260213     0.11848077    -0.58432052    -0.00015374     0.00050962    -0.00036625
H         0.80063208    -0.26329847     1.87795352     0.00081261    -0.00113357     0.00080131
H        -0.92053834    -0.04611318     1.93898212     0.00037938     0.00040024     0.00001706
H        -0.97928540     0.09800700    -0.60786587     0.00060168    -0.00070822    -0.00003608
     6
  Step:    35            Position(A)                                  Velocity(au)
C        -0.03805706    -0.00120017    -0.12590405    -0.00002379     0.00004340    -0.00089200
N        -0.04403672    -0.04009806     1.42232945    -0.00009364     0.00003311     0.00073424
H         0.94171074     0.12131415    -0.58632549    -0.00016296     0.00050592    -0.00035384
H         0.80546621    -0.26974547     1.88258359     0.00090155    -0.00117195     0.00084821
H        -0.91845832    -0.04384898     1.93906933     0.00035714     0.00041069     0.00001992
H        -0.97621907     0.09401327    -0.60820087     0.00048899    -0.00072198    -0.00008845
     6
  Step:    36            Position(A)                                  Velocity(au)
C        -0.03816191    -0.00095444    -0.13079779    -0.00001346     0.00004452    -0.00085998
N        -0.04456582    -0.03990817     1.42635480    -0.00009399     0.00003461     0.00070749
H         0.94078288     0.12412866    -0.58827059    -0.00016672     0.00050258    -0.00034453
H         0.81069653    -0.27638159     1.88742249     0.00095380    -0.00120034     0.00087555
H        -0.91655143    -0.04152841     1.93920445     0.00031774     0.00042023     0.00003377
H        -0.97382651     0.08994722    -0.60885334     0.00036173    -0.00073390    -0.00014879
     6
  Step:    37            Position(A)                                  Velocity(au)
C        -0.03820739    -0.00070299    -0.13550761    -0.00000268     0.00004544    -0.00082594
N        -0.04508634    -0.03971161     1.43023015    -0.00009063     0.00003548     0.00068031
H         0.93984892     0.12692656    -0.59017296    -0.00016515     0.00049979    -0.00033830
H         0.81611744    -0.28314985     1.89236107     0.00096998    -0.00121871     0.00088389
H        -0.91491005    -0.03915625     1.93944642     0.00026283     0.00042903     0.00005755
H        -0.97217957     0.08581763    -0.60986249     0.00022377    -0.00074464    -0.00021506
     6
  Step:    38            Position(A)                                  Velocity(au)
C        -0.03819187    -0.00044686    -0.14002335     0.00000821     0.00004621    -0.00079049
N        -0.04557818    -0.03951189     1.43395373    -0.00008387     0.00003574     0.00065307
H         0.93893821     0.12971120    -0.59204938    -0.00015850     0.00049775    -0.00033507
H         0.82153101    -0.28999430     1.89729535     0.00095214    -0.00122749     0.00087449
H        -0.91361562    -0.03673618     1.93984723     0.00019465     0.00043733     0.00008985
H        -0.97132700     0.08162972    -0.61125552     0.00007939    -0.00075486    -0.00028506
     6
  Step:    39            Position(A)                                  Velocity(au)
C        -0.03811567    -0.00018680    -0.14433823     0.00001887     0.00004687    -0.00075422
N        -0.04602328    -0.03931237     1.43752564    -0.00007412     0.00003542     0.00062609
H         0.93807834     0.13248694    -0.59391601    -0.00014713     0.00049663    -0.00033468
H         0.82675383    -0.29686230     1.90213011     0.00090333    -0.00122746     0.00084916
H        -0.91273556    -0.03427077     1.94045019     0.00011591     0.00044532     0.00012903
H        -0.97129271     0.07738502    -0.61304693    -0.00006699    -0.00076520    -0.00035655
     6
  Step:    40            Position(A)                                  Velocity(au)
C        -0.03798102     0.00007670    -0.14844868     0.00002898     0.00004747    -0.00071765
N        -0.04640621    -0.03911620     1.44094771    -0.00006188     0.00003458     0.00059962
H         0.93729462     0.13525900    -0.59578812    -0.00013150     0.00049657    -0.00033697
H         0.83162208    -0.30370623     1.90678133     0.00082732    -0.00121961     0.00081002
H        -0.91232077    -0.03176150     1.94128866     0.00002969     0.00045319     0.00017323
H        -0.97207537     0.07308166    -0.61523851    -0.00021098    -0.00077625    -0.00042732
     6
  Step:    41            Position(A)                                  Velocity(au)
C        -0.03779194     0.00034337    -0.15235397     0.00003823     0.00004804    -0.00068123
N        -0.04671445    -0.03892618     1.44422311    -0.00004768     0.00003327     0.00057387
H         0.93660960     0.13803335    -0.59767977    -0.00011212     0.00049767    -0.00034168
H         0.83599455    -0.31048468     1.91117755     0.00072823    -0.00120507     0.00075931
H        -0.91240394    -0.02920889     1.94238511    -0.00006071     0.00046108     0.00022048
H        -0.97364928     0.06871472    -0.61781991    -0.00034844    -0.00078848    -0.00049533
     6
  Step:    42            Position(A)                                  Velocity(au)
C        -0.03755406     0.00061314    -0.15605579     0.00004637     0.00004862    -0.00064532
N        -0.04693864    -0.03874467     1.44735603    -0.00003207     0.00003158     0.00054898
H         0.93604257     0.14081638    -0.59960359    -0.00008961     0.00049998    -0.00034853
H         0.83975402    -0.31716302     1.91526032     0.00061027    -0.00118505     0.00069929
H        -0.91299865    -0.02661274     1.94375073    -0.00015187     0.00046909     0.00026877
H        -0.97596629     0.06427692    -0.62076972    -0.00047561    -0.00080223    -0.00055871
     6
  Step:    43            Position(A)                                  Velocity(au)
C        -0.03727436     0.00088610    -0.15955772     0.00005316     0.00004922    -0.00061019
N        -0.04707248    -0.03857364     1.45035141    -0.00001560     0.00002958     0.00052502
H         0.93560931     0.14361471    -0.60157048    -0.00006460     0.00050351    -0.00035719
H         0.84280711    -0.32371351     1.91898385     0.00047761    -0.00116072     0.00063215
H        -0.91409930    -0.02397237     1.94538543    -0.00024045     0.00047728     0.00031613
H        -0.97895853     0.05975930    -0.62405682    -0.00058927    -0.00081774    -0.00061588
     6
  Step:    44            Position(A)                                  Velocity(au)
C        -0.03696084     0.00116241    -0.16286478     0.00005847     0.00004987    -0.00057605
N        -0.04711270    -0.03841456     1.45321460     0.00000122     0.00002736     0.00050204
H         0.93532169     0.14643493    -0.60358942    -0.00003782     0.00050821    -0.00036729
H         0.84508353    -0.33011526     1.92231436     0.00033421    -0.00113326     0.00055993
H        -0.91568180    -0.02128685     1.94727839    -0.00032326     0.00048566     0.00036072
H        -0.98254181     0.05515195    -0.62764216    -0.00068681    -0.00083509    -0.00066555
     6