     6
  Step:     0            Position(A)                                  Velocity(au)
C        -0.03925256    -0.00094472     0.03515805    -0.00008940     0.00009153    -0.00008825
N        -0.04689026    -0.03522481     1.28020512     0.00004831    -0.00001038     0.00010268
H         0.93344077     0.06633329    -0.54391556    -0.00020549    -0.00052128     0.00026680
H         0.81223005    -0.17232727     1.91058416    -0.00009325     0.00008013    -0.00014473
H        -0.85599411    -0.12360796     1.80427420     0.00005690    -0.00022068    -0.00036989
H        -0.98327473     0.06057704    -0.48802729     0.00063584    -0.00028464    -0.00012757
     6
  Step:     1            Position(A)                                  Velocity(au)
C        -0.04008295     0.00004875     0.03321952    -0.00006200     0.00009009    -0.00026004
N        -0.04603539    -0.03532090     1.28220064     0.00010661    -0.00000701     0.00025753
H         0.93069263     0.06074519    -0.54125809    -0.00028391    -0.00050059     0.00021161
H         0.81002381    -0.17141033     1.90786588    -0.00029690     0.00008581    -0.00034029
H        -0.85884579    -0.12649465     1.80254757    -0.00057191    -0.00030788     0.00004999
H        -0.97745286     0.05763156    -0.49087177     0.00040997    -0.00025348    -0.00040154
     6
  Step:     2            Position(A)                                  Velocity(au)
C        -0.04060888     0.00102625     0.02946916    -0.00003505     0.00008854    -0.00041594
N        -0.04455787    -0.03537825     1.28583918     0.00015833    -0.00000337     0.00040082
H         0.92722974     0.05538201    -0.53928623    -0.00033292    -0.00048008     0.00013964
H         0.80573472    -0.17044995     1.90313956    -0.00046186     0.00008588    -0.00050110
H        -0.86850578    -0.13034352     1.80536784    -0.00114580    -0.00039178     0.00043376
H        -0.97430576     0.05503178    -0.49681175     0.00015813    -0.00022228    -0.00068593
     6
  Step:     3            Position(A)                                  Velocity(au)
C        -0.04084975     0.00198576     0.02412005    -0.00001117     0.00008675    -0.00054979
N        -0.04257171    -0.03539465     1.29096925     0.00019655     0.00000046     0.00052815
H         0.92340933     0.05024262    -0.53820321    -0.00034709    -0.00045963     0.00004803
H         0.79991963    -0.16953150     1.89690339    -0.00056379     0.00007588    -0.00060615
H        -0.88391228    -0.13506560     1.81203694    -0.00159160    -0.00046363     0.00073469
H        -0.97399352     0.05276879    -0.50587791    -0.00009569    -0.00019268    -0.00096474
     6
  Step:     4            Position(A)                                  Velocity(au)
C        -0.04085325     0.00292397     0.01744155     0.00000730     0.00008461    -0.00065756
N        -0.04025799    -0.03536825     1.29739342     0.00021639     0.00000453     0.00063555
H         0.91963646     0.04532672    -0.53823552    -0.00032354    -0.00043924    -0.00006435
H         0.79340067    -0.16878995     1.88987898    -0.00057996     0.00005141    -0.00063688
H        -0.90332513    -0.14048626     1.82144058    -0.00186370    -0.00051729     0.00092641
H        -0.97639915     0.05081664    -0.51791727    -0.00032680    -0.00016605    -0.00122163
     6
  Step:     5            Position(A)                                  Velocity(au)
C        -0.04069013     0.00383672     0.00973475     0.00001864     0.00008207    -0.00073741
N        -0.03783769    -0.03529558     1.30487309     0.00021559     0.00000905     0.00071975
H         0.91633134     0.04063351    -0.53961094    -0.00026268    -0.00041900    -0.00019644
H         0.78723180    -0.16840686     1.88297045    -0.00049338     0.00000879    -0.00058055
H        -0.92468425    -0.14638227     1.83230395    -0.00194823    -0.00055010     0.00100444
H        -0.98114292     0.04913616    -0.53260334    -0.00051367    -0.00014336    -0.00144233
     6
  Step:     6            Position(A)                                  Velocity(au)
C        -0.04044548     0.00471932     0.00130921     0.00002204     0.00007909    -0.00078952
N        -0.03554161    -0.03517031     1.31313924     0.00019451     0.00001426     0.00077882
H         0.91388974     0.03616038    -0.54253308    -0.00016885    -0.00039914    -0.00034477
H         0.78260711    -0.16859775     1.87717827    -0.00029873    -0.00005392    -0.00043457
H        -0.94594631    -0.15252081     1.84341458    -0.00185731    -0.00056257     0.00098082
H        -0.98763660     0.04768037    -0.54947097    -0.00064074    -0.00012507    -0.00161638
     6
  Step:     7            Position(A)                                  Velocity(au)
C        -0.04020792     0.00556695    -0.00753745     0.00002081     0.00008200    -0.00094350
N        -0.03358239    -0.03498352     1.32191120     0.00015177     0.00001731     0.00091683
H         0.91263753     0.03190156    -0.54715345    -0.00013125    -0.00040571    -0.00041190
H         0.78069654    -0.16958643     1.87346332    -0.00003795    -0.00012747    -0.00027301
H        -0.96531642    -0.15868963     1.85376135    -0.00155285    -0.00056432     0.00083155
H        -0.99516024     0.04640010    -0.56796470    -0.00063494    -0.00012025    -0.00164466
     6
  Step:     8            Position(A)                                  Velocity(au)
C        -0.03999014     0.00651331    -0.01933159     0.00001591     0.00009056    -0.00119253
N        -0.03222144    -0.03479162     1.33319675     0.00009144     0.00001835     0.00112763
H         0.91101838     0.02728479    -0.55154412    -0.00014873    -0.00043848    -0.00039993
H         0.78177693    -0.17138629     1.87120560     0.00026931    -0.00020878    -0.00011289
H        -0.97991779    -0.16486644     1.86160638    -0.00107489    -0.00055917     0.00058795
H        -1.00152711     0.04504958    -0.58545110    -0.00050595    -0.00012765    -0.00153501
     6
  Step:     9            Position(A)                                  Velocity(au)
C        -0.03985986     0.00754810    -0.03362631     0.00000529     0.00009809    -0.00139922
N        -0.03158191    -0.03458218     1.34658036     0.00002286     0.00002052     0.00129984
H         0.90938367     0.02230906    -0.55590270    -0.00013037    -0.00047038    -0.00040875
H         0.78658818    -0.17415384     1.87099373     0.00062534    -0.00030231     0.00008799
H        -0.98883166    -0.17092253     1.86662388    -0.00053562    -0.00054417     0.00032841
H        -1.00622887     0.04360747    -0.60154607    -0.00033992    -0.00013716    -0.00139756
     6
  Step:    10            Position(A)                                  Velocity(au)
C        -0.03987450     0.00865915    -0.04994229    -0.00001001     0.00010449    -0.00156261
N        -0.03172142    -0.03434267     1.36163320    -0.00004762     0.00002374     0.00143414
H         0.90816633     0.01699432    -0.56048634    -0.00007076    -0.00050065    -0.00044232
H         0.79545734    -0.17799999     1.87313064     0.00098666    -0.00040168     0.00030080
H        -0.99163541    -0.17677125     1.86879107     0.00002062    -0.00052449     0.00007885
H        -1.00896344     0.04204904    -0.61602535    -0.00015546    -0.00014815    -0.00124658
     6
  Step:    11            Position(A)                                  Velocity(au)
C        -0.04007881     0.00983400    -0.06781139    -0.00002862     0.00010978    -0.00168511
N        -0.03262374    -0.03406291     1.37795485    -0.00011311     0.00002777     0.00153415
H         0.90783576     0.01135633    -0.56557934     0.00003067    -0.00052970    -0.00050136
H         0.80817334    -0.18294146     1.87757426     0.00130343    -0.00049802     0.00049497
H        -0.98838055    -0.18239669     1.86834881     0.00054958    -0.00050713    -0.00013731
H        -1.00962974     0.04036636    -0.62881735     0.00002929    -0.00015925    -0.00109558
     6
  Step:    12            Position(A)                                  Velocity(au)
C        -0.04050067     0.01106081    -0.08680737    -0.00004877     0.00011404    -0.00177131
N        -0.03419598    -0.03373514     1.39519560    -0.00016680     0.00003251     0.00160466
H         0.90883720     0.00540606    -0.57145448     0.00016854    -0.00055794    -0.00058304
H         0.82397238    -0.18889513     1.88395913     0.00153007    -0.00058287     0.00064540
H        -0.97961225    -0.18786560     1.86578720     0.00100383    -0.00050057    -0.00029726
H        -1.00832273     0.03856514    -0.63999320     0.00019661    -0.00016931    -0.00095708
     6
  Step:    13            Position(A)                                  Velocity(au)
C        -0.04114578     0.01232884    -0.10656215    -0.00006821     0.00011737    -0.00182666
N        -0.03627270    -0.03335174     1.41305977    -0.00020255     0.00003813     0.00165017
H         0.91152286    -0.00084958    -0.57833448     0.00033149    -0.00058562    -0.00068141
H         0.84164660    -0.19569285     1.89169358     0.00163487    -0.00064997     0.00073750
H        -0.96641979    -0.19334771     1.86184562     0.00133181    -0.00051532    -0.00037862
H        -1.00532855     0.03666239    -0.64975524     0.00032946    -0.00017750    -0.00084238
     6
  Step:    14            Position(A)                                  Velocity(au)
C        -0.04199295     0.01362844    -0.12676907    -0.00008436     0.00011984    -0.00185648
N        -0.03862724    -0.03290106     1.43129625    -0.00021561     0.00004518     0.00167414
H         0.91608921    -0.00740550    -0.58636164     0.00050328    -0.00061274    -0.00078838
H         0.85973833    -0.20311438     1.90009345     0.00160475    -0.00069616     0.00076834
H        -0.95047630    -0.19913923     1.85750424     0.00148150    -0.00056370    -0.00036133
H        -1.00111517     0.03468194    -0.65842180     0.00041193    -0.00018326    -0.00076132
     6
  Step:    15            Position(A)                                  Velocity(au)
C        -0.04299134     0.01495049    -0.14717624    -0.00009459     0.00012147    -0.00186525
N        -0.04098951    -0.03236332     1.44968487    -0.00020324     0.00005450     0.00167893
H         0.92253302    -0.01425448    -0.59558172     0.00066511    -0.00063892    -0.00089514
H         0.87675364    -0.21092276     1.90850240     0.00144484    -0.00072149     0.00074444
H        -0.93400925    -0.20567965     1.85394085     0.00141098    -0.00065830    -0.00023254
H        -0.99631690     0.03265316    -0.66641052     0.00043063    -0.00018612    -0.00072156
     6
  Step:    16            Position(A)                                  Velocity(au)
C        -0.04406237     0.01628577    -0.16757490    -0.00009669     0.00012223    -0.00185625
N        -0.04307356    -0.03170873     1.46802613    -0.00016577     0.00006692     0.00166631
H         0.93063982    -0.02138306    -0.60594448     0.00079870    -0.00066337    -0.00099372
H         0.89134700    -0.21889826     1.91637953     0.00117446    -0.00072880     0.00067822
H        -0.91960835    -0.21354085     1.85241687     0.00110572    -0.00080840     0.00000638
H        -0.99169435     0.03061019    -0.67420724     0.00037696    -0.00018589    -0.00072745
     6
  Step:    17            Position(A)                                  Velocity(au)
C        -0.04510654     0.01762446    -0.18778515    -0.00008926     0.00012205    -0.00183190
N        -0.04461615    -0.03089935     1.48613850    -0.00010744     0.00008284     0.00163840
H         0.94000616    -0.02876687    -0.61732128     0.00088909    -0.00068499    -0.00107821
H         0.90244715    -0.22686658     1.92333970     0.00082214    -0.00072309     0.00058439
H        -0.90981960    -0.22336485     1.85408035     0.00059597    -0.00101482     0.00033396
H        -0.98807023     0.02858648    -0.68232495     0.00024951    -0.00018275    -0.00077903
     6
  Step:    18            Position(A)                                  Velocity(au)
C        -0.04601520     0.01895594    -0.20765126    -0.00007218     0.00012088    -0.00179447
N        -0.04542394    -0.02989640     1.50386929    -0.00003654     0.00010188     0.00159847
H         0.95009030    -0.03636843    -0.62953243     0.00092666    -0.00070259    -0.00114533
H         0.90933282    -0.23471731     1.92916426     0.00042151    -0.00071078     0.00047784
H        -0.90657039    -0.23574201     1.85972293    -0.00003662    -0.00126571     0.00070850
H        -0.98623587     0.02661217    -0.69124994     0.00005649    -0.00017708    -0.00087102
     6
  Step:    19            Position(A)                                  Velocity(au)
C        -0.04668572     0.02026894    -0.22704266    -0.00004667     0.00011865    -0.00174629
N        -0.04541564    -0.02867061     1.52110811     0.00003578     0.00012277     0.00155055
H         0.96027868    -0.04413736    -0.64237748     0.00090791    -0.00071510    -0.00119437
H         0.91166847    -0.24241625     1.93379327     0.00000851    -0.00069927     0.00037248
H        -0.91062083    -0.25105467     1.86958006    -0.00067392    -0.00153627     0.00107661
H        -0.98683442     0.02471245    -0.70138019    -0.00018345    -0.00016933    -0.00099288
     6
  Step:    20            Position(A)                                  Velocity(au)
C        -0.04703629     0.02155171    -0.24585476    -0.00001516     0.00011534    -0.00168972
N        -0.04464125    -0.02721058     1.53779048     0.00009816     0.00014381     0.00149841
H         0.96995256    -0.05201271    -0.65566147     0.00083488    -0.00072175    -0.00122668
H         0.90951889    -0.25001512     1.93731287    -0.00038034    -0.00069681     0.00028103
H        -0.92131377    -0.26935079     1.88327593    -0.00119498    -0.00179443     0.00138791
H        -0.99024915     0.02290770    -0.71297118    -0.00044291    -0.00015985    -0.00113004
     6
  Step:    21            Position(A)                                  Velocity(au)
C        -0.04701735     0.02279222    -0.26400859     0.00001917     0.00011092    -0.00162701
N        -0.04326827    -0.02552456     1.55388880     0.00014164     0.00016346     0.00144468
H         0.97854319    -0.05992693    -0.66921352     0.00071406    -0.00072211    -0.00124501
H         0.90334778    -0.25766038     1.93994136    -0.00070944    -0.00071240     0.00021485
H        -0.93676327    -0.29031118     1.89994317    -0.00151134    -0.00201005     0.00160798
H        -0.99652399     0.02121537    -0.72610196    -0.00068995    -0.00014880    -0.00126622
     6
  Step:    22            Position(A)                                  Velocity(au)
C        -0.04661701     0.02397839    -0.28144867     0.00005292     0.00010541    -0.00156011
N        -0.04154254    -0.02363452     1.56939563     0.00016118     0.00018093     0.00139046
H         0.98557408    -0.06781025    -0.68289855     0.00055511    -0.00071622    -0.00125287
H         0.89399862    -0.26560024     1.94201316    -0.00094640    -0.00075536     0.00018341
H        -0.95437730    -0.31332458     1.91845367    -0.00158538    -0.00216271     0.00172360
H        -1.00534311     0.01965243    -0.74067211    -0.00089378    -0.00013612    -0.00138631
     6
  Step:    23            Position(A)                                  Velocity(au)
C        -0.04585963     0.02509834    -0.29813889     0.00008310     0.00009884    -0.00149056
N        -0.03974204    -0.02156640     1.58430781     0.00015565     0.00019624     0.00133572
H         0.99068721    -0.07559564    -0.69662245     0.00036939    -0.00070452    -0.00125401
H         0.88264345    -0.27418524     1.94395390    -0.00106593    -0.00083436     0.00019313
H        -0.97144649    -0.33762451     1.93765026    -0.00142650    -0.00224438     0.00173939
H        -1.01607707     0.01823742    -0.75643010    -0.00103007    -0.00012162    -0.00147870
     6
  Step:    24            Position(A)                                  Velocity(au)
C        -0.04479909     0.02614079    -0.31405752     0.00010743     0.00009129    -0.00141944
N        -0.03813743    -0.01934141     1.59861711     0.00012698     0.00020999     0.00127994
H         0.99365513    -0.08322306    -0.71033232     0.00016899    -0.00068780    -0.00125210
H         0.87067926    -0.28385354     1.94623826    -0.00105512    -0.00095560     0.00024564
H        -0.98558472    -0.36242472     1.95650621    -0.00107432    -0.00225751     0.00167055
H        -1.02787793     0.01699167    -0.77302160    -0.00108428    -0.00010505    -0.00153656
     6
  Step:    25            Position(A)                                  Velocity(au)
C        -0.04350933     0.02709539    -0.32919185     0.00012451     0.00008286    -0.00134736
N        -0.03696407    -0.01697238     1.61230891     0.00007933     0.00022289     0.00122274
H         0.99438430    -0.09064265    -0.72401461    -0.00003394    -0.00066719    -0.00125063
H         0.85956062    -0.29509092     1.94932767    -0.00091928    -0.00112036     0.00033596
H        -0.99494930    -0.38701180     1.97419670    -0.00058057    -0.00221092     0.00153590
H        -1.03979786     0.01593935    -0.79004530    -0.00105232    -0.00008627    -0.00155783
     6
  Step:    26            Position(A)                                  Velocity(au)
C        -0.04207509     0.02795350    -0.34353350     0.00013370     0.00007374    -0.00127456
N        -0.03640190    -0.01446529     1.62536690     0.00001841     0.00023529     0.00116428
H         0.99291267    -0.09781904    -0.73769231    -0.00022776    -0.00064410    -0.00125274
H         0.85056815    -0.30836362     1.95358801    -0.00068518    -0.00132260     0.00045178
H        -0.99828579    -0.41079284     1.99010703     0.00000290    -0.00211628     0.00135372
H        -1.05089941     0.01510428    -0.80710216    -0.00093892    -0.00006539    -0.00154429
     6
  Step:    27            Position(A)                                  Velocity(au)
C        -0.04058436     0.02870864    -0.35707536     0.00013495     0.00006415    -0.00120109
N        -0.03656137    -0.01182506     1.63777966    -0.00004905     0.00024697     0.00110522
H         0.98940166    -0.10473365    -0.75142063    -0.00040176    -0.00062018    -0.00126113
H         0.84457099    -0.32402529     1.95921116    -0.00039865    -0.00154766     0.00057475
H        -0.99488594    -0.43330942     2.00381188     0.00062901    -0.00198604     0.00114018
H        -1.06033845     0.01450874    -0.82382958    -0.00075506    -0.00004263    -0.00150020
     6
  Step:    28            Position(A)                                  Velocity(au)
C        -0.03912279     0.02935692    -0.36980964     0.00012865     0.00005434    -0.00112683
N        -0.03747492    -0.00906228     1.64954571    -0.00011590     0.00025723     0.00104652
H         0.98412334    -0.11138662    -0.76528186    -0.00054665    -0.00059717    -0.00127798
H         0.84184699    -0.34222156     1.96616177    -0.00011596    -0.00177348     0.00068389
H        -0.98452490    -0.45424116     2.01505074     0.00125575    -0.00183315     0.00090965
H        -1.06741789     0.01417162    -0.83992194    -0.00051543    -0.00001836    -0.00143117
     6
  Step:    29            Position(A)                                  Velocity(au)
C        -0.03776994     0.02989745    -0.38172698     0.00011550     0.00004459    -0.00105164
N        -0.03909700    -0.00619764     1.66067439    -0.00017543     0.00026516     0.00098900
H         0.97744255    -0.11779779    -0.77937892    -0.00065508    -0.00057685    -0.00130479
H         0.84203407    -0.36282348     1.97417267     0.00010908    -0.00197436     0.00076020
H        -0.96741396    -0.47341302     2.02371231     0.00184404    -0.00167186     0.00067570
H        -1.07161438     0.01410700    -0.85513907    -0.00023649     0.00000693    -0.00134330
     6
  Step:    30            Position(A)                                  Velocity(au)
C        -0.03659590     0.03033242    -0.39281623     0.00009653     0.00003519    -0.00097537
N        -0.04131285    -0.00326142     1.67118193    -0.00022201     0.00027014     0.00093294
H         0.96979230    -0.12400631    -0.79382672    -0.00072232    -0.00056088    -0.00134210
H         0.84423331    -0.38541439     1.98279251     0.00023719    -0.00212601     0.00079058
H        -0.94418291    -0.49081620     2.02983294     0.00235543    -0.00151902     0.00045225
H        -1.07259156     0.01432318    -0.86930930     0.00006452     0.00003268    -0.00124283
     6
  Step:    31            Position(A)                                  Velocity(au)
C        -0.03565805     0.03066719    -0.40306496     0.00007307     0.00002640    -0.00089793
N        -0.04395383    -0.00028788     1.68108427    -0.00025151     0.00027221     0.00087798
H         0.96164050    -0.13006822    -0.80873997    -0.00074702    -0.00055061    -0.00138917
H         0.84722303    -0.40933407     1.99146822     0.00025005    -0.00220990     0.00076980
H        -0.91588450    -0.50664454     2.03360623     0.00275111    -0.00139517     0.00025425
H        -1.07020282     0.01482203    -0.88232833     0.00037024     0.00005830    -0.00113583
     6
  Step:    32            Position(A)                                  Velocity(au)
C        -0.03499737     0.03091005    -0.41246027     0.00004679     0.00001850    -0.00081936
N        -0.04681504     0.00269367     1.69038936    -0.00026144     0.00027222     0.00082313
H         0.95344978    -0.13605206    -0.82421745    -0.00073167    -0.00054690    -0.00144369
H         0.84970368    -0.43376025     1.99963330     0.00015021    -0.00221544     0.00069993
H        -0.88399717    -0.52133811     2.03539510     0.00299382    -0.00132414     0.00009711
H        -1.06449190     0.01559853    -0.89415783     0.00066321     0.00008312    -0.00102832
     6
  Step:    33            Position(A)                                  Velocity(au)
C        -0.03463439     0.03107193    -0.42099013     0.00001974     0.00001171    -0.00073979
N        -0.04967338     0.00566744     1.69909171    -0.00025102     0.00027158     0.00076711
H         0.94563383    -0.14203270    -0.84032337    -0.00068258    -0.00055000    -0.00150159
H         0.85050910    -0.45780111     2.00678054    -0.00004383    -0.00213987     0.00058850
H        -0.85038890    -0.53561260     2.03573070     0.00305352    -0.00133009    -0.00000536
H        -1.05569384     0.01664039    -0.90482471     0.00092589     0.00010647    -0.00092625
     6
  Step:    34            Position(A)                                  Velocity(au)
C        -0.03456544     0.03116613    -0.42864461    -0.00000574     0.00000622    -0.00065947
N        -0.05230649     0.00863498     1.70717126    -0.00022131     0.00027165     0.00070878
H         0.93851695    -0.14808445    -0.85706762    -0.00060938    -0.00055957    -0.00155706
H         0.84874488    -0.48057405     2.01250780    -0.00030398    -0.00198667     0.00044614
H        -0.81719562    -0.55043635     2.03527783     0.00291653    -0.00143063    -0.00004482
H        -1.04423639     0.01792783    -0.91442122     0.00114072     0.00012768    -0.00083555
     6
  Step:    35            Position(A)                                  Velocity(au)
C        -0.03475993     0.03120809    -0.43541732    -0.00002718     0.00000224    -0.00057879
N        -0.05451507     0.01161036     1.71459766    -0.00017560     0.00027292     0.00064761
H         0.93230245    -0.15427436    -0.87438712    -0.00052381    -0.00057468    -0.00160279
H         0.84385901    -0.50126323     2.01654061    -0.00059805    -0.00176364     0.00028483
H        -0.78658421    -0.56691039     2.03475017     0.00259512    -0.00162704    -0.00002280
H        -1.03073833     0.01943353    -0.92310398     0.00129087     0.00014607    -0.00076184
     6
  Step:    36            Position(A)                                  Velocity(au)
C        -0.03516001     0.03121517    -0.44130672    -0.00004221    -0.00000007    -0.00049822
N        -0.05614814     0.01460553     1.72133889    -0.00011936     0.00027422     0.00058387
H         0.92705766    -0.16065668    -0.89213168    -0.00043805    -0.00059400    -0.00163053
H         0.83566145    -0.51915706     2.01873889    -0.00089329    -0.00148156     0.00011681
H        -0.76042234    -0.58603098     2.03477909     0.00213165    -0.00189549     0.00004675
H        -1.01599616     0.02112348    -0.93108799     0.00136134     0.00016115    -0.00070990
     6
  Step:    37            Position(A)                                  Velocity(au)
C        -0.03568339     0.03120653    -0.44631694    -0.00004893    -0.00000057    -0.00041832
N        -0.05712621     0.01760953     1.72737086    -0.00005965     0.00027270     0.00051855
H         0.92271928    -0.16726935    -0.91005802    -0.00036288    -0.00061596    -0.00163201
H         0.82431665    -0.53367516     2.01909613    -0.00115824    -0.00115351    -0.00004593
H        -0.73995024    -0.60837793     2.03577300     0.00159207    -0.00218596     0.00013934
H        -1.00095637     0.02295893    -0.93863435     0.00134109     0.00017263    -0.00068275
     6
  Step:    38            Position(A)                                  Velocity(au)
C        -0.03623038     0.03120267    -0.45045835    -0.00004622     0.00000081    -0.00033968
N        -0.05745318     0.02057140     1.73268323    -0.00000391     0.00026449     0.00045286
H         0.91911887    -0.17413195    -0.92783503    -0.00030627    -0.00063882    -0.00159990
H         0.81032266    -0.54439227     2.01773415    -0.00136367    -0.00079485    -0.00019198
H        -0.72559279    -0.63385310     2.03782746     0.00104931    -0.00243223     0.00022669
H        -0.98665733     0.02490001    -0.94602439     0.00122576     0.00018072    -0.00068047
     6
  Step:    39            Position(A)                                  Velocity(au)
C        -0.03669457     0.03122423    -0.45374801    -0.00003410     0.00000400    -0.00026290
N        -0.05721171     0.02339582     1.73727810     0.00004154     0.00024616     0.00038762
H         0.91601894    -0.18124485    -0.94505893    -0.00027262    -0.00066081    -0.00152887
H         0.79448374    -0.55106399     2.01489628    -0.00148303    -0.00042346    -0.00031084
H        -0.71699450    -0.66158751     2.04073238     0.00056439    -0.00257049     0.00028501
H        -0.97414062     0.02691255    -0.95352100     0.00102041     0.00018626    -0.00069914
     6
  Step:    40            Position(A)                                  Velocity(au)
C        -0.03697643     0.03129018    -0.45620977    -0.00001384     0.00000876    -0.00018863
N        -0.05654443     0.02595672     1.74116308     0.00007235     0.00021605     0.00032293
H         0.91315474    -0.18858847    -0.96128204    -0.00026270    -0.00068017    -0.00141659
H         0.77787850    -0.55365634     2.01093385    -0.00149330    -0.00005965    -0.00039359
H        -0.71324564    -0.69008746     2.04406265     0.00017429    -0.00255752     0.00030045
H        -0.96433381     0.02897488    -0.96131947     0.00074125     0.00019064    -0.00073026
     6
  Step:    41            Position(A)                                  Velocity(au)
C        -0.03699727     0.03141586    -0.45787461     0.00001217     0.00001470    -0.00011753
N        -0.05562898     0.02812228     1.74434285     0.00008636     0.00017475     0.00025830
H         0.91027186    -0.19612482    -0.97604945    -0.00027425    -0.00069545    -0.00126412
H         0.76181492    -0.55236899     2.00628575    -0.00137655     0.00027513    -0.00043349
H        -0.71318147    -0.71753814     2.04730537    -0.00010905    -0.00237880     0.00026992
H        -0.95792428     0.03108311    -0.96949684     0.00041480     0.00019551    -0.00076130
     6
  Step:    42            Position(A)                                  Velocity(au)
C        -0.03671019     0.03161169    -0.45878094     0.00004075     0.00002136    -0.00005028
N        -0.05465518     0.02977979     1.74681378     0.00008331     0.00012472     0.00019292
H         0.90715506    -0.20380279    -0.98893719    -0.00030284    -0.00070587    -0.00107578
H         0.74776389    -0.54763732     2.00145047    -0.00112282     0.00056138    -0.00042686
H        -0.71563142    -0.74212817     2.04996764    -0.00029186    -0.00204567     0.00019816
H        -0.95525924     0.03325198    -0.97797437     0.00007429     0.00020238    -0.00077739
     6
  Step:    43            Position(A)                                  Velocity(au)
C        -0.03610572     0.03188315    -0.45897457     0.00006854     0.00002834     0.00001252
N        -0.05380651     0.03085086     1.74856337     0.00006446     0.00006920     0.00012615
H         0.90364675    -0.21156700    -0.99958413    -0.00034278    -0.00071148    -0.00085825
H         0.73725117    -0.54008780     1.99694728    -0.00073415     0.00078622    -0.00037406
H        -0.71956643    -0.76229109     2.05164043    -0.00038954    -0.00158633     0.00009388
H        -0.95629914     0.03551055    -0.98650379    -0.00024601     0.00021225    -0.00076390
     6
  Step:    44            Position(A)                                  Velocity(au)
C        -0.03521065     0.03223169    -0.45850706     0.00009253     0.00003533     0.00007050
N        -0.05324504     0.03129362     1.74957359     0.00003243     0.00001115     0.00005775
H         0.89965620    -0.21936774    -1.00771312    -0.00038781    -0.00071322    -0.00061980
H         0.73170286    -0.53043716     1.99326709    -0.00022875     0.00094821    -0.00028048
H        -0.72415330    -0.77683210     2.05202155    -0.00042003    -0.00103647    -0.00003323
H        -0.96064121     0.03789531    -0.99468622    -0.00051661     0.00022549    -0.00070924
     6