     6
  Step:     0            Position(A)                                  Velocity(au)
C        -0.03897296     0.02567369     0.00912648     0.00008983    -0.00010742    -0.00020813
N        -0.03747699    -0.06527098     1.30971859    -0.00018869     0.00009423     0.00013113
H         0.91311809    -0.03025655    -0.55303674    -0.00091565     0.00054542     0.00050583
H         0.83881160    -0.09972919     1.85321537     0.00189121    -0.00055196     0.00088449
H        -0.98981233     0.03428161     1.79107325     0.00072330    -0.00030597    -0.00096318
H        -0.98985773     0.02702565    -0.50827289    -0.00014726     0.00028311     0.00023077
     6
  Step:     1            Position(A)                                  Velocity(au)
C        -0.03846039     0.02511037     0.00765235     0.00009671    -0.00009867    -0.00032911
N        -0.03854437    -0.06477251     1.31072554    -0.00019891     0.00008792     0.00023646
H         0.90805038    -0.02727986    -0.55023986    -0.00092696     0.00054237     0.00051057
H         0.84918430    -0.10274284     1.85814117     0.00187683    -0.00054843     0.00090228
H        -0.98544739     0.03255859     1.78577489     0.00085959    -0.00032244    -0.00096589
H        -0.99080321     0.02857147    -0.50712403    -0.00019786     0.00028257     0.00018888
     6
  Step:     2            Position(A)                                  Velocity(au)
C        -0.03791473     0.02459400     0.00552535     0.00010166    -0.00009015    -0.00044548
N        -0.03965347    -0.06430896     1.31230591    -0.00020359     0.00008135     0.00033954
H         0.90297518    -0.02432189    -0.54745000    -0.00091600     0.00053774     0.00050185
H         0.85934809    -0.10573011     1.86308820     0.00181399    -0.00054139     0.00089225
H        -0.98040663     0.03075346     1.78050445     0.00096652    -0.00033531    -0.00095042
H        -0.99202276     0.03011751    -0.50620616    -0.00024680     0.00028277     0.00014624
     6
  Step:     3            Position(A)                                  Velocity(au)
C        -0.03734710     0.02412311     0.00277406     0.00010442    -0.00008192    -0.00055541
N        -0.04077389    -0.06388163     1.31444381    -0.00020264     0.00007455     0.00043854
H         0.89801953    -0.02139125    -0.54474418    -0.00088066     0.00053127     0.00047836
H         0.86904884    -0.10867152     1.86791203     0.00170651    -0.00053056     0.00085712
H        -0.97486330     0.02888669     1.77536703     0.00103889    -0.00034413    -0.00091447
H        -0.99350583     0.03166803    -0.50552258    -0.00029324     0.00028360     0.00010321
     6
  Step:     4            Position(A)                                  Velocity(au)
C        -0.03676998     0.02369596    -0.00056329     0.00010478    -0.00007402    -0.00065710
N        -0.04187485    -0.06349169     1.31711339    -0.00019604     0.00006755     0.00053157
H         0.89332112    -0.01849788    -0.54220604    -0.00081944     0.00052275     0.00043918
H         0.87805549    -0.11154631     1.87248430     0.00155925    -0.00051576     0.00080013
H        -0.96901792     0.02698103     1.77047965     0.00107218    -0.00034852    -0.00085625
H        -0.99523742     0.03322642    -0.50507473    -0.00033636     0.00028486     0.00006016
     6
  Step:     5            Position(A)                                  Velocity(au)
C        -0.03619696     0.02331060    -0.00443896     0.00010256    -0.00006649    -0.00074879
N        -0.04292582    -0.06314012     1.32027886    -0.00018393     0.00006039     0.00061679
H         0.88902446    -0.01565296    -0.53992328    -0.00073171     0.00051198     0.00038395
H         0.88616482    -0.11433307     1.87669512     0.00137783    -0.00049696     0.00072488
H        -0.96309394     0.02506098     1.76596787     0.00106290    -0.00034824    -0.00077473
H        -0.99719810     0.03479493    -0.50486217    -0.00037533     0.00028632     0.00001748
     6
  Step:     6            Position(A)                                  Velocity(au)
C        -0.03564233     0.02296489    -0.00879617     0.00009771    -0.00005938    -0.00082893
N        -0.04389710    -0.06282767     1.32389491    -0.00016657     0.00005314     0.00069255
H         0.88527599    -0.01286864    -0.53798452    -0.00061795     0.00049887     0.00031304
H         0.89320461    -0.11701038     1.88045426     0.00116837    -0.00047426     0.00063511
H        -0.95733137     0.02315214     1.76196154     0.00100918    -0.00034321    -0.00066987
H        -0.99936415     0.03637453    -0.50488259    -0.00040940     0.00028777    -0.00002450
     6
  Step:     7            Position(A)                                  Velocity(au)
C        -0.03512055     0.02265652    -0.01357032     0.00009029    -0.00005271    -0.00089630
N        -0.04476067    -0.06255479     1.32790782    -0.00014441     0.00004585     0.00075749
H         0.88221723    -0.01015753    -0.53647492    -0.00048004     0.00048341     0.00022766
H         0.89903539    -0.11955738     1.88369131     0.00093747    -0.00044787     0.00053467
H        -0.95197706     0.02128029     1.75858870     0.00091123    -0.00033354    -0.00054288
H        -1.00170802     0.03796495    -0.50513202    -0.00043797     0.00028899    -0.00006544
     6
  Step:     8            Position(A)                                  Velocity(au)
C        -0.03464554     0.02238300    -0.01869072     0.00016327    -0.00009436    -0.00192711
N        -0.04549125    -0.06232152     1.33225712    -0.00023958     0.00007833     0.00164431
H         0.87997668    -0.00753216    -0.53547132    -0.00065175     0.00094464     0.00026351
H         0.90355361    -0.12195459     1.88635660     0.00140397    -0.00084823     0.00086716
H        -0.94727204     0.01947008     1.75596853     0.00156550    -0.00064829    -0.00080383
H        -1.00419905     0.03956475    -0.50560498    -0.00093424     0.00058781    -0.00021313
     6
  Step:     9            Position(A)                                  Velocity(au)
C        -0.03376765     0.02187061    -0.02914836     0.00014775    -0.00008846    -0.00178693
N        -0.04673358    -0.06189944     1.34124277    -0.00020002     0.00007195     0.00154595
H         0.87708242    -0.00237824    -0.53466555    -0.00036748     0.00088990     0.00001877
H         0.91062721    -0.12657094     1.89085431     0.00111011    -0.00079341     0.00073192
H        -0.93913891     0.01598623     1.75201945     0.00129699    -0.00058875    -0.00058733
H        -1.00970947     0.04275165    -0.50721296    -0.00102079     0.00054661    -0.00035321
     6
  Step:    10            Position(A)                                  Velocity(au)
C        -0.03298261     0.02138737    -0.03880236     0.00012838    -0.00008251    -0.00161606
N        -0.04774250    -0.06151173     1.34965658    -0.00015459     0.00006499     0.00141858
H         0.87584074     0.00248355    -0.53526009    -0.00006838     0.00082713    -0.00022703
H         0.91604781    -0.13088430     1.89459429     0.00080534    -0.00072852     0.00058926
H        -0.93267459     0.01284373     1.74935819     0.00096210    -0.00051887    -0.00034393
H        -1.01568795     0.04571675    -0.50958035    -0.00108071     0.00050036    -0.00047430
     6
  Step:    11            Position(A)                                  Velocity(au)
C        -0.03231041     0.02093403    -0.04749270     0.00003290    -0.00002364    -0.00044008
N        -0.04848836    -0.06116171     1.35734548    -0.00003281     0.00001782     0.00039237
H         0.87630618     0.00701077    -0.53724260     0.00006945     0.00023450    -0.00014189
H         0.91976879    -0.13484057     1.89754321     0.00015585    -0.00020283     0.00013795
H        -0.92821790     0.01009637     1.74811545     0.00018150    -0.00013675    -0.00002786
H        -1.02197693     0.04843141    -0.51259685    -0.00034295     0.00013915    -0.00017669
     6
  Step:    12            Position(A)                                  Velocity(au)
C        -0.03218244     0.02081080    -0.04999496     0.00001290    -0.00002023    -0.00044550
N        -0.04855120    -0.06107995     1.35958396     0.00000943     0.00001141     0.00039964
H         0.87734492     0.00827470    -0.53842178     0.00029154     0.00021418    -0.00027186
H         0.91986259    -0.13586881     1.89799764    -0.00011391    -0.00016261     0.00002724
H        -0.92813559     0.00939952     1.74860956    -0.00014495    -0.00011110     0.00019707
H        -1.02384379     0.04922480    -0.51365573    -0.00031745     0.00014205    -0.00019727
     6
  Step:    13            Position(A)                                  Velocity(au)
C        -0.03216479     0.02070572    -0.05252061    -0.00000600    -0.00001739    -0.00045387
N        -0.04838199    -0.06103295     1.36185573     0.00004941     0.00000560     0.00040916
H         0.87959644     0.00942797    -0.54031074     0.00050232     0.00019754    -0.00039656
H         0.91848326    -0.13667574     1.89785060    -0.00036869    -0.00012600    -0.00007515
H        -0.92985384     0.00884252     1.75033951    -0.00045558    -0.00008869     0.00041211
H        -1.02555962     0.05003459    -0.51482318    -0.00029325     0.00014665    -0.00021789
     6
  Step:    14            Position(A)                                  Velocity(au)
C        -0.03224974     0.02061569    -0.05508662    -0.00002366    -0.00001500    -0.00046460
N        -0.04799687    -0.06101717     1.36417407     0.00008670     0.00000032     0.00042051
H         0.88298021     0.01049080    -0.54287060     0.00069952     0.00018369    -0.00051472
H         0.91572642    -0.13728230     1.89715456    -0.00060906    -0.00009223    -0.00016918
H        -0.93324650     0.00840451     1.75323277    -0.00074349    -0.00006977     0.00061528
H        -1.02713356     0.05086999    -0.51610013    -0.00026987     0.00015265    -0.00023880
     6
  Step:    15            Position(A)                                  Velocity(au)
C        -0.03242895     0.02053829    -0.05770678    -0.00003985    -0.00001295    -0.00047682
N        -0.04741415    -0.06102941     1.36654980     0.00012059    -0.00000444     0.00043296
H         0.88740498     0.01147841    -0.54605646     0.00087947     0.00017179    -0.00062420
H         0.91168446    -0.13770523     1.89596206    -0.00083313    -0.00006081    -0.00025384
H        -0.93815321     0.00806370     1.75720770    -0.00100045    -0.00005459     0.00080328
H        -1.02857212     0.05173853    -0.51748879    -0.00024686     0.00015966    -0.00025992
     6
  Step:    16            Position(A)                                  Velocity(au)
C        -0.03269296     0.02047169    -0.06038991    -0.00005424    -0.00001116    -0.00048966
N        -0.04665564    -0.06106659     1.36898948     0.00015021    -0.00000867     0.00044569
H         0.89276183     0.01240144    -0.54981304     0.00103788     0.00016119    -0.00072248
H         0.90646021    -0.13795868     1.89433131    -0.00103707    -0.00003161    -0.00032728
H        -0.94437361     0.00779734     1.76216701    -0.00121794    -0.00004344     0.00097218
H        -1.02987917     0.05264571    -0.51899097    -0.00022396     0.00016731    -0.00028106
     6
  Step:    17            Position(A)                                  Velocity(au)
C        -0.03303079     0.02041447    -0.06313989    -0.00006651    -0.00000959    -0.00050236
N        -0.04574746    -0.06112559     1.37149504     0.00017468    -0.00001232     0.00045798
H         0.89892090     0.01326689    -0.55407281     0.00117059     0.00015141    -0.00080715
H         0.90017751    -0.13805599     1.89233065    -0.00121588    -0.00000473    -0.00038717
H        -0.95166707     0.00758169     1.76799473    -0.00138851    -0.00003655     0.00111820
H        -1.03105705     0.05359498    -0.52060734    -0.00020113     0.00017529    -0.00030200
     6
  Step:    18            Position(A)                                  Velocity(au)
C        -0.03342998     0.02036546    -0.06595637    -0.00007640    -0.00000819    -0.00051430
N        -0.04472002    -0.06120308     1.37406420     0.00019325    -0.00001535     0.00046918
H         0.90573279     0.01407911    -0.55875678     0.00127432     0.00014210    -0.00087628
H         0.89298749    -0.13801112     1.89004124    -0.00136406     0.00001954    -0.00043094
H        -0.95975928     0.00739233     1.77455741    -0.00150682    -0.00003402     0.00123834
H        -1.03210780     0.05458805    -0.52233732    -0.00017853     0.00018333    -0.00032252
     6
  Step:    19            Position(A)                                  Velocity(au)
C        -0.03387687     0.02032373    -0.06883548    -0.00008371    -0.00000696    -0.00052501
N        -0.04360736    -0.06129557     1.37669091     0.00020532    -0.00001773     0.00047871
H         0.91303321     0.01484051    -0.56377711     0.00134688     0.00013302    -0.00092858
H         0.88507129    -0.13783961     1.88755822    -0.00147605     0.00004081    -0.00045600
H        -0.96835421     0.00720495     1.78170857    -0.00157020    -0.00003577     0.00133074
H        -1.03303416     0.05562520    -0.52417909    -0.00015643     0.00019120    -0.00034244
     6
  Step:    20            Position(A)                                  Velocity(au)
C        -0.03435698     0.02028842    -0.07177061    -0.00008834    -0.00000586    -0.00053413
N        -0.04244619    -0.06139941     1.37936571     0.00021056    -0.00001943     0.00048609
H         0.92064894     0.01555226    -0.56904045     0.00138744     0.00012403    -0.00096349
H         0.87664087    -0.13755915     1.88499120    -0.00154675     0.00005867    -0.00045998
H        -0.97714860     0.00699622     1.78929479    -0.00157884    -0.00004155     0.00139485
H        -1.03384021     0.05670551    -0.52612973    -0.00013516     0.00019875    -0.00036161
     6
  Step:    21            Position(A)                                  Velocity(au)
C        -0.03485563     0.02025881    -0.07475315    -0.00009033    -0.00000489    -0.00054143
N        -0.04127457    -0.06151089     1.38207642     0.00020888    -0.00002047     0.00049097
H         0.92840487     0.01621465    -0.57445182     0.00139649     0.00011503    -0.00098121
H         0.86793464    -0.13718958     1.88246203    -0.00157235     0.00007277    -0.00044112
H        -0.98584643     0.00674466     1.79716233    -0.00153541    -0.00005096     0.00143132
H        -1.03453167     0.05782721    -0.52818543    -0.00011506     0.00020588    -0.00037993
     6
  Step:    22            Position(A)                                  Velocity(au)
C        -0.03535839     0.02023419    -0.07777320    -0.00008977    -0.00000404    -0.00054684
N        -0.04013047    -0.06162632     1.38480884     0.00020047    -0.00002085     0.00049313
H         0.93613103     0.01682755    -0.57991856     0.00137571     0.00010599    -0.00098258
H         0.85920913    -0.13675241     1.88010069    -0.00155075     0.00008287    -0.00039852
H        -0.99417092     0.00643130     1.80516305    -0.00144465    -0.00006350     0.00144187
H        -1.03511586     0.05898799    -0.53034177    -0.00009643     0.00021253    -0.00039735
     6
  Step:    23            Position(A)                                  Velocity(au)
C        -0.03585165     0.02021393    -0.08082031    -0.00008687    -0.00000331    -0.00055037
N        -0.03905035    -0.06174218     1.38754771     0.00018576    -0.00002061     0.00049252
H         0.94366830     0.01739063    -0.58535352     0.00132774     0.00009691    -0.00096902
H         0.85072910    -0.13627011     1.87804044    -0.00148173     0.00008891    -0.00033216
H        -1.00187477     0.00604012     1.81315985    -0.00131271    -0.00007863     0.00142906
H        -1.03560157     0.06018527    -0.53259399    -0.00007951     0.00021872    -0.00041389
     6
  Step:    24            Position(A)                                  Velocity(au)
C        -0.03632299     0.02019743    -0.08388421    -0.00008189    -0.00000269    -0.00055217
N        -0.03806791    -0.06185519     1.39027754     0.00016537    -0.00001982     0.00048924
H         0.95087349     0.01790360    -0.59067803     0.00125592     0.00008782    -0.00094235
H         0.84275684    -0.13576521     1.87641258    -0.00136708     0.00009098    -0.00024302
H        -1.00874649     0.00555822     1.82103054    -0.00114664    -0.00009579     0.00139605
H        -1.03599869     0.06141653    -0.53493732    -0.00006446     0.00022450    -0.00042961
     6
  Step:    25            Position(A)                                  Velocity(au)
C        -0.03676150     0.02018409    -0.08695533    -0.00007511    -0.00000216    -0.00055245
N        -0.03721298    -0.06196244     1.39298352     0.00014010    -0.00001855     0.00048351
H         0.95762247     0.01836633    -0.59582366     0.00116391     0.00007874    -0.00090456
H         0.83553992    -0.13525922     1.87534034    -0.00121059     0.00008939    -0.00013309
H        -1.01461470     0.00497583     1.82867090    -0.00095384    -0.00011444     0.00134630
H        -1.03631777     0.06267958    -0.53736731    -0.00005135     0.00022996    -0.00044464
     6
  Step:    26            Position(A)                                  Velocity(au)
C        -0.03715792     0.02017336    -0.09002532    -0.00006684    -0.00000174    -0.00055146
N        -0.03651057    -0.06206145     1.39565230     0.00011087    -0.00001689     0.00047567
H         0.96381166     0.01877889    -0.60073325     0.00105544     0.00006972    -0.00085773
H         0.82929979    -0.13477154     1.87493316    -0.00101797     0.00008461    -0.00000534
H        -1.01934949     0.00428613     1.83599619    -0.00074157    -0.00013408     0.00128335
H        -1.03656952     0.06397275    -0.53988002    -0.00004016     0.00023522    -0.00045909
     6
  Step:    27            Position(A)                                  Velocity(au)
C        -0.03750467     0.02016473    -0.09308719    -0.00005737    -0.00000141    -0.00054944
N        -0.03598021    -0.06215024     1.39827261     0.00007868    -0.00001492     0.00046611
H         0.96935826     0.01914154    -0.60536106     0.00093409     0.00006077    -0.00080383
H         0.82422074    -0.13431838     1.87528092    -0.00079661     0.00007730     0.00013633
H        -1.02286053     0.00348491     1.84294096    -0.00051650    -0.00015431     0.00121053
H        -1.03676431     0.06529503    -0.54247212    -0.00003078     0.00024040    -0.00047309
     6
  Step:    28            Position(A)                                  Velocity(au)
C        -0.03779585     0.02015770    -0.09613531    -0.00004698    -0.00000116    -0.00054662
N        -0.03563563    -0.06222739     1.40083562     0.00004457    -0.00001275     0.00045529
H         0.97419902     0.01945469    -0.60967210     0.00080312     0.00005192    -0.00074465
H         0.82044124    -0.13391190     1.87644921    -0.00055514     0.00006824     0.00028733
H        -1.02509317     0.00257018     1.84945769    -0.00028452    -0.00017475     0.00113080
H        -1.03691177     0.06664608    -0.54514090    -0.00002303     0.00024562    -0.00048671
     6
  Step:    29            Position(A)                                  Velocity(au)
C        -0.03802709     0.02015181    -0.09916529    -0.00003594    -0.00000099    -0.00054316
N        -0.03548458    -0.06229201     1.40333511     0.00000960    -0.00001047     0.00044363
H         0.97828844     0.01971881    -0.61364108     0.00066544     0.00004315    -0.00068175
H         0.81804791    -0.13355962     1.87847585    -0.00030302     0.00005827     0.00044254
H        -1.02602422     0.00154178     1.85551478    -0.00005087    -0.00019511     0.00104679
H        -1.03702041     0.06802615    -0.54788404    -0.00001670     0.00025097    -0.00050001
     6
  Step:    30            Position(A)                                  Velocity(au)
C        -0.03819543     0.02014664    -0.10217362    -0.00002448    -0.00000090    -0.00053916
N        -0.03552889    -0.06234373     1.40576739    -0.00002519    -0.00000816     0.00043153
H         0.98159671     0.01993436    -0.61725112     0.00052362     0.00003446    -0.00061649
H         0.81707255    -0.13326409     1.88136891    -0.00005002     0.00004829     0.00059660
H        -1.02565864     0.00040117     1.86109482     0.00017973    -0.00021510     0.00096081
H        -1.03709737     0.06943607    -0.55069942    -0.00001150     0.00025652    -0.00051294
     6
  Step:    31            Position(A)                                  Velocity(au)
C        -0.03829918     0.02014181    -0.10515736    -0.00001282    -0.00000087    -0.00053466
N        -0.03576459    -0.06238273     1.40813102    -0.00005881    -0.00000593     0.00041935
H         0.98410774     0.02010175    -0.62049258     0.00037990     0.00002582    -0.00055002
H         0.81749203    -0.13302292     1.88510623     0.00019428     0.00003916     0.00074414
H        -1.02402671    -0.00084877     1.86619291     0.00040292    -0.00023447     0.00087491
H        -1.03714822     0.07087698    -0.55358473    -0.00000715     0.00026230    -0.00052544
     6
  Step:    32            Position(A)                                  Velocity(au)
C        -0.03833783     0.02013696    -0.10811375    -0.00000115    -0.00000091    -0.00052962
N        -0.03618229    -0.06240962     1.41042642    -0.00009030    -0.00000385     0.00040735
H         0.98581752     0.02022127    -0.62336192     0.00023636     0.00001722    -0.00048333
H         0.81923103    -0.13282902     1.88963648     0.00042092     0.00003166     0.00088010
H        -1.02118208    -0.00220383     1.87081525     0.00061458    -0.00025297     0.00079097
H        -1.03717684     0.07235024    -0.55653716    -0.00000335     0.00026832    -0.00053735
     6
  Step:    33            Position(A)                                  Velocity(au)
C        -0.03831193     0.02013175    -0.11103992     0.00001033    -0.00000100    -0.00052400
N        -0.03676758    -0.06242545     1.41265545    -0.00011881    -0.00000198     0.00039573
H         0.98673306     0.02029306    -0.62586092     0.00009493     0.00000863    -0.00041732
H         0.82216724    -0.13267122     1.89488154     0.00062206     0.00002648     0.00099993
H        -1.01720048    -0.00365852     1.87497824     0.00081075    -0.00027036     0.00071074
H        -1.03718539     0.07385728    -0.55955310     0.00000022     0.00027458    -0.00054848
     6
  Step:    34            Position(A)                                  Velocity(au)
C        -0.03822311     0.02012591    -0.11393269     0.00002143    -0.00000113    -0.00051772
N        -0.03750168    -0.06243158     1.41482091    -0.00014361    -0.00000038     0.00038462
H         0.98687172     0.02031715    -0.62799619    -0.00004252     0.00000003    -0.00035286
H         0.82613882    -0.13253493     1.90074046     0.00079131     0.00002415     0.00109990
H        -1.01217887    -0.00520615     1.87870788     0.00098760    -0.00028643     0.00063594
H        -1.03717437     0.07539942    -0.56262794     0.00000385     0.00028104    -0.00055863
     6
  Step:    35            Position(A)                                  Velocity(au)
C        -0.03807401     0.02011915    -0.11678843     0.00003196    -0.00000132    -0.00051070
N        -0.03836210    -0.06242966     1.41692610    -0.00016408     0.00000091     0.00037408
H         0.98626093     0.02029343    -0.62977888    -0.00017416    -0.00000860    -0.00029076
H         0.83095349    -0.13240308     1.90709428     0.00092405     0.00002502     0.00117725
H        -1.00623465    -0.00683886     1.88203940     0.00114147    -0.00030096     0.00056824
H        -1.03714264     0.07697785    -0.56575588     0.00000781     0.00028767    -0.00056759
     6
  Step:    36            Position(A)                                  Velocity(au)
C        -0.03786823     0.02011126    -0.11960306     0.00004176    -0.00000154    -0.00050285
N        -0.03932345    -0.06242152     1.41897441    -0.00017977     0.00000185     0.00036408
H         0.98493803     0.02022166    -0.63122458    -0.00029818    -0.00001728    -0.00023184
H         0.83639873    -0.13225708     1.91381178     0.00101755     0.00002930     0.00123030
H        -0.99950481    -0.00854777     1.88501715     0.00126888    -0.00031379     0.00050930
H        -1.03708761     0.07859353    -0.56893001     0.00001236     0.00029444    -0.00057515
     6
  Step:    37            Position(A)                                  Velocity(au)
C        -0.03761035     0.02010203    -0.12237211     0.00005064    -0.00000180    -0.00049415
N        -0.04035829    -0.06240910     1.42096887    -0.00019041     0.00000244     0.00035456
H         0.98294997     0.02010154    -0.63235323    -0.00041286    -0.00002603    -0.00017689
H         0.84225239    -0.13207772     1.92075558     0.00107101     0.00003700     0.00125851
H        -0.99214504    -0.01032317     1.88769463     0.00136665    -0.00032479     0.00046075
H        -1.03700539     0.08024726    -0.57214236     0.00001770     0.00030131    -0.00058117
     6
  Step:    38            Position(A)                                  Velocity(au)
C        -0.03730585     0.02009127    -0.12509084     0.00005846    -0.00000209    -0.00048457
N        -0.04143800    -0.06239438     1.42291200    -0.00019585     0.00000269     0.00034541
H         0.98035302     0.01993263    -0.63318903    -0.00051657    -0.00003485    -0.00012668
H         0.84829283    -0.13184612     1.92778812     0.00108532     0.00004802     0.00126234
H        -0.98432746    -0.01215472     1.89013403     0.00143222    -0.00033390     0.00042410
H        -1.03689100     0.08193968    -0.57538417     0.00002402     0.00030828    -0.00058554
     6
  Step:    39            Position(A)                                  Velocity(au)
C        -0.03696100     0.02007885    -0.12775439     0.00006509    -0.00000240    -0.00047411
N        -0.04253369    -0.06237927     1.42480547    -0.00019615     0.00000259     0.00033650
H         0.97721221     0.01971441    -0.63376032    -0.00060784    -0.00004379    -0.00008194
H         0.85430742    -0.13154434     1.93477676     0.00106280     0.00006213     0.00124312
H        -0.97623690    -0.01403192     1.89240528     0.00146380    -0.00034114     0.00040059
H        -1.03673864     0.08367141    -0.57864618     0.00003142     0.00031537    -0.00058824
     6
  Step:    40            Position(A)                                  Velocity(au)
C        -0.03658279     0.02006463    -0.13035784     0.00007040    -0.00000273    -0.00046281
N        -0.04361706    -0.06236559     1.42665016    -0.00019149     0.00000219     0.00032768
H         0.97360045     0.01944619    -0.63409936    -0.00068537    -0.00005286    -0.00004335
H         0.86009957    -0.13115593     1.94159815     0.00100687     0.00007903     0.00120291
H        -0.96806589    -0.01594450     1.89458422     0.00146060    -0.00034661     0.00039110
H        -1.03654192     0.08544314    -0.58191899     0.00004001     0.00032261    -0.00058929
     6
  Step:    41            Position(A)                                  Velocity(au)
C        -0.03617881     0.02004851    -0.13289646     0.00007432    -0.00000308    -0.00045073
N        -0.04466123    -0.06235498     1.42844615    -0.00018219     0.00000150     0.00031885
H         0.96959743     0.01912712    -0.63424192    -0.00074811    -0.00006211    -0.00001147
H         0.86549414    -0.13066627     1.94814158     0.00092169     0.00009840     0.00114417
H        -0.96000895    -0.01788294     1.89675052     0.00142283    -0.00035050     0.00039610
H        -1.03629413     0.08725576    -0.58519342     0.00004980     0.00033007    -0.00058877
     6
  Step:    42            Position(A)                                  Velocity(au)
C        -0.03575706     0.02003039    -0.13536584     0.00007677    -0.00000345    -0.00043793
N        -0.04564137    -0.06234890     1.43019289    -0.00016867     0.00000058     0.00030992
H         0.96528825     0.01875612    -0.63422677    -0.00079525    -0.00007159     0.00001322
H         0.87034039    -0.13006267     1.95431098     0.00081184     0.00011988     0.00106969
H        -0.95225687    -0.01983886     1.89898527     0.00135173    -0.00035306     0.00041562
H        -1.03598854     0.08911052    -0.58846082     0.00006080     0.00033783    -0.00058684
     6
  Step:    43            Position(A)                                  Velocity(au)
C        -0.03532586     0.02001019    -0.13776203     0.00007773    -0.00000383    -0.00042454
N        -0.04653525    -0.06234855     1.43188945    -0.00015145    -0.00000054     0.00030085
H         0.96076196     0.01833178    -0.63409508    -0.00082623    -0.00008136     0.00003034
H         0.87451394    -0.12933442     1.96002615     0.00068209     0.00014313     0.00098234
H        -0.94499074    -0.02180550     1.90136818     0.00124962    -0.00035461     0.00044912
H        -1.03561859     0.09100911    -0.59171337     0.00007295     0.00034597    -0.00058364
     6
  Step:    44            Position(A)                                  Velocity(au)
C        -0.03489362     0.01998788    -0.14008187     0.00007718    -0.00000421    -0.00041070
N        -0.04732378    -0.06235493     1.43353490    -0.00013112    -0.00000182     0.00029168
H         0.95611016     0.01785234    -0.63388976    -0.00084073    -0.00009150     0.00003965
H         0.87791731    -0.12847268     1.96522320     0.00053718     0.00016785     0.00088498
H        -0.93837556    -0.02377798     1.90397427     0.00111982    -0.00035552     0.00049549
H        -1.03517816     0.09295372    -0.59494418     0.00008616     0.00035461    -0.00057937
     6