     6
  Step:   120            Position(A)                                  Velocity(au)
C        -0.03985464     0.01561720     0.01532018     0.00003049     0.00001550     0.00017738
N        -0.05172035    -0.02848838     1.31555689    -0.00007008    -0.00006555    -0.00018843
H         0.73447701    -0.48195643    -0.63848282    -0.00066044    -0.00136449     0.00035207
H         0.76506318     0.21417745     1.92842155    -0.00031605     0.00166566    -0.00016595
H        -0.72041078    -0.69792684     1.79425511     0.00098378    -0.00089749    -0.00028755
H        -0.79843916     0.50572141    -0.65615271     0.00060326     0.00132253     0.00060620
