 Fermi distribution function

Calculation with static geometry


********************************************************************************
 iSCC Total electronic   Diff electronic      SCC error    
   10   -0.54628366E+01   -0.47961635E-13    0.13257094E-07
********************************************************************************

 Total charge:     1.00000000

 Atomic gross charges (e)
 Atom           Charge
    1       0.16521886
    2      -0.03112580
    3       0.16760722
    4       0.27535156
    5       0.26704522
    6       0.15590293

Nr. of electrons (up):     12.00000000
Atom populations (up)
 Atom       Population
    1       3.83478114
    2       5.03112580
    3       0.83239278
    4       0.72464844
    5       0.73295478
    6       0.84409707

l-shell populations (up)
 Atom Sh.   l       Population
    1   1   0       1.29578708
    1   2   1       2.53899406
    2   1   0       1.41912054
    2   2   1       3.61200526
    3   1   0       0.83239278
    4   1   0       0.72464844
    5   1   0       0.73295478
    6   1   0       0.84409707

Orbital populations (up)
 Atom Sh.   l   m       Population  Label
    1   1   0   0       1.29578708  s
    1   2   1  -1       0.60698347  p_y
    1   2   1   0       0.88194984  p_z
    1   2   1   1       1.05006075  p_x
    2   1   0   0       1.41912054  s
    2   2   1  -1       1.34435949  p_y
    2   2   1   0       1.10409144  p_z
    2   2   1   1       1.16355433  p_x
    3   1   0   0       0.83239278  s
    4   1   0   0       0.72464844  s
    5   1   0   0       0.73295478  s
    6   1   0   0       0.84409707  s

Fermi level:                        -0.4884022171 H          -13.2901 eV
Band energy:                        -9.0146533458 H         -245.3012 eV
TS:                                  0.0000000000 H            0.0000 eV
Band free energy (E-TS):            -9.0146533458 H         -245.3012 eV
Extrapolated E(0K):                 -9.0146533458 H         -245.3012 eV
Input / Output electrons (q):     12.0000000000     12.0000000000

Energy H0:                          -5.5974672580 H         -152.3148 eV
Energy SCC:                          0.1346306500 H            3.6635 eV
Total Electronic energy:            -5.4628366080 H         -148.6513 eV
Repulsive energy:                    0.2099809879 H            5.7139 eV
Total energy:                       -5.2528556201 H         -142.9375 eV
Extrapolated to 0:                  -5.2528556201 H         -142.9375 eV
Total Mermin free energy:           -5.2528556201 H         -142.9375 eV
Force related energy:               -5.2528556201 H         -142.9375 eV

SCC converged

Excitation Energy:                   0.1818792427 H            4.9492 eV

Total Forces
    1      0.006246285240     -0.012124981546     -0.030185667164
    2      0.006325207859      0.006610024067      0.006032545611
    3     -0.005283331498      0.007867296609      0.006636099122
    4     -0.002481009525     -0.005401761028      0.007707260283
    5     -0.003114541978      0.002719687146      0.009727878336
    6     -0.001692610098      0.000329734753      0.000081883812

Maximal derivative component:        0.301857E-01 au


