|===============================================================================
|
|  DFTB+ release 20.1
|
|  Copyright (C) 2006 - 2020  DFTB+ developers group
|
|===============================================================================
|
|  When publishing results obtained with DFTB+, please cite the following
|  reference:
|
|  * DFTB+, a software package for efficient approximate density functional
|    theory based atomistic simulations, J. Chem. Phys. 152, 124101 (2020).
|    [doi: 10.1063/1.5143190]
|
|  You should also cite additional publications crediting the parametrization
|  data you use. Please consult the documentation of the SK-files for the
|  references.
|
|===============================================================================

Reading input file 'dftb_in.hsd'
Parser version: 8

--------------------------------------------------------------------------------
Reading SK-files:
Done.


Processed input in HSD format written to 'dftb_pin.hsd'

Starting initialization...
--------------------------------------------------------------------------------
OpenMP threads:              1
Chosen random seed:          501032200
Mode:                        Static calculation
Self consistent charges:     Yes
SCC-tolerance:                 0.100000E-05
Max. scc iterations:                   1000
Shell resolved Hubbard:      No
Spin polarisation:           No
Nr. of up electrons:            16.000000
Nr. of down electrons:          16.000000
Periodic boundaries:         No
Electronic solver:           Relatively robust
Maximal SCC-cycles:                    1000
Initial charges:             Set automatically (system chrg:   0.100E+01)
Included shells:             C:  s, p
                             H:  s
                             N:  s, p
Spin coupling constants:     C   1(s)-1(s):  -0.455900E-01
                             C   1(s)-2(p):  -0.293000E-01
                             C   2(p)-1(s):  -0.293000E-01
                             C   2(p)-2(p):  -0.275500E-01
                             H   1(s)-1(s):  -0.792500E-01
                             N   1(s)-1(s):  -0.468700E-01
                             N   1(s)-2(p):  -0.317000E-01
                             N   2(p)-1(s):  -0.317000E-01
                             N   2(p)-2(p):  -0.307200E-01
Range separated hybrid:      Yes
  Screening parameter omega:   0.300000E+00
  Range separated algorithm:   MatrixBased
Extra options:
                             Mulliken analysis
                             Force calculation
Force type                   original
                             Eigenvector printing


REKS Calcuation:             Yes
SSR(2,2) Calcuation:         Yes
Energy Functional:           (PPS+OSS)/2
Number of Core Orbitals:                 15
Number of Active Orbitals:                2
Number of Basis:                         32
Number of States:                         2
State-Averaging Weight:          0.500000
                                 0.500000
State of Interest:                        1
Initial Guess:               Diagonalize H0 matrix
Newton-Raphson for FON opt:  Yes
NR max. Iterations:                      50
Level Shifting:              Yes
Shift Value:                     0.300000
W Scale Factor:              C  =    3.200000
                             H  =    3.200000
                             N  =    3.200000
Transition Dipole:           No
Gradient of Microstate:      No
CP-REKS Solver:              Preconditioned Conjugate-Gradient
CG max. Iterations:                     100
CG Tolerance:                  0.100000E-07
Memory for A and Hxc:        Direct Updating Without Saving
Non-Adiabatic Coupling:      Yes

--------------------------------------------------------------------------------

***  Geometry step: 0

  iSCC       reks energy        Diff energy         x_a       SCC error   
    1      -16.2692361778       0.0000000000     1.000000    1.25381551
    2      -16.3151667104      -0.0459305326     1.000000    0.07067929
    3      -16.3295788270      -0.0144121166     1.000000    0.04250205
    4      -16.3388966915      -0.0093178645     1.000000    0.03362639
    5      -16.3458542802      -0.0069575887     1.000000    0.02514867
    6      -16.3511646982      -0.0053104180     1.000000    0.01982657
    7      -16.3552065747      -0.0040418765     1.000000    0.01576374
    8      -16.3582467999      -0.0030402253     1.000000    0.01223930
    9      -16.3605051728      -0.0022583729     1.000000    0.00951436
   10      -16.3621671396      -0.0016619668     1.000000    0.00884219
   11      -16.3633834481      -0.0012163084     1.000000    0.00795304
   12      -16.3642714889      -0.0008880408     1.000000    0.00700866
   13      -16.3649197667      -0.0006482779     1.000000    0.00609752
   14      -16.3653936209      -0.0004738541     1.000000    0.00526247
   15      -16.3657407011      -0.0003470802     1.000000    0.00451971
   16      -16.3659955465      -0.0002548454     1.000000    0.00387089
   17      -16.3661831442      -0.0001875977     1.000000    0.00334022
   18      -16.3663215829      -0.0001384387     1.000000    0.00291143
   19      -16.3664239852      -0.0001024024     1.000000    0.00257853
   20      -16.3664998990      -0.0000759138     1.000000    0.00227583
   21      -16.3665562929      -0.0000563939     1.000000    0.00200355
   22      -16.3665982689      -0.0000419760     1.000000    0.00176059
   23      -16.3666295733      -0.0000313043     1.000000    0.00154512
   24      -16.3666529640      -0.0000233907     1.000000    0.00135491
   25      -16.3666704763      -0.0000175123     1.000000    0.00118760
   26      -16.3666836152      -0.0000131389     1.000000    0.00104083
   27      -16.3666934956      -0.0000098804     1.000000    0.00091234
   28      -16.3667009446      -0.0000074490     1.000000    0.00080003
   29      -16.3667065768      -0.0000056322     1.000000    0.00070198
   30      -16.3667108494      -0.0000042727     1.000000    0.00061644
   31      -16.3667141031      -0.0000032537     1.000000    0.00054185
   32      -16.3667165917      -0.0000024886     1.000000    0.00047683
   33      -16.3667185047      -0.0000019130     1.000000    0.00042016
   34      -16.3667199838      -0.0000014791     1.000000    0.00037076
   35      -16.3667211349      -0.0000011511     1.000000    0.00032769
   36      -16.3667220374      -0.0000009025     1.000000    0.00029012
   37      -16.3667227508      -0.0000007134     1.000000    0.00025734
   38      -16.3667233197      -0.0000005689     1.000000    0.00022871
   39      -16.3667237778      -0.0000004581     1.000000    0.00020370
   40      -16.3667241504      -0.0000003726     1.000000    0.00018182
   41      -16.3667244566      -0.0000003062     1.000000    0.00016266
   42      -16.3667247110      -0.0000002544     1.000000    0.00014587
   43      -16.3667249246      -0.0000002136     1.000000    0.00013114
   44      -16.3667251057      -0.0000001811     1.000000    0.00011820
   45      -16.3667252608      -0.0000001551     1.000000    0.00010681
   46      -16.3667253949      -0.0000001341     1.000000    0.00009715
   47      -16.3667255117      -0.0000001168     1.000000    0.00009159
   48      -16.3667256144      -0.0000001026     1.000000    0.00008646
   49      -16.3667257051      -0.0000000907     1.000000    0.00008171
   50      -16.3667257858      -0.0000000807     1.000000    0.00007731
   51      -16.3667258579      -0.0000000721     1.000000    0.00007322
   52      -16.3667259227      -0.0000000648     1.000000    0.00006941
   53      -16.3667259811      -0.0000000584     1.000000    0.00006586
   54      -16.3667260339      -0.0000000528     1.000000    0.00006254
   55      -16.3667260818      -0.0000000479     1.000000    0.00005944
   56      -16.3667261253      -0.0000000435     1.000000    0.00005653
   57      -16.3667261649      -0.0000000396     1.000000    0.00005379
   58      -16.3667262010      -0.0000000361     1.000000    0.00005122
   59      -16.3667262340      -0.0000000330     1.000000    0.00004880
   60      -16.3667262641      -0.0000000301     1.000000    0.00004652
   61      -16.3667262917      -0.0000000276     1.000000    0.00004436
   62      -16.3667263169      -0.0000000252     1.000000    0.00004233
   63      -16.3667263400      -0.0000000231     1.000000    0.00004040
   64      -16.3667263612      -0.0000000212     1.000000    0.00003857
   65      -16.3667263806      -0.0000000194     1.000000    0.00003684
   66      -16.3667263984      -0.0000000178     1.000000    0.00003520
   67      -16.3667264148      -0.0000000163     1.000000    0.00003364
   68      -16.3667264298      -0.0000000150     1.000000    0.00003215
   69      -16.3667264435      -0.0000000138     1.000000    0.00003074
   70      -16.3667264561      -0.0000000126     1.000000    0.00002940
   71      -16.3667264677      -0.0000000116     1.000000    0.00002812
   72      -16.3667264784      -0.0000000106     1.000000    0.00002690
   73      -16.3667264881      -0.0000000098     1.000000    0.00002574
   74      -16.3667264971      -0.0000000090     1.000000    0.00002463
   75      -16.3667265053      -0.0000000082     1.000000    0.00002358
   76      -16.3667265129      -0.0000000076     1.000000    0.00002257
   77      -16.3667265198      -0.0000000069     1.000000    0.00002161
   78      -16.3667265262      -0.0000000064     1.000000    0.00002069
   79      -16.3667265321      -0.0000000059     1.000000    0.00001981
   80      -16.3667265374      -0.0000000054     1.000000    0.00001897
   81      -16.3667265424      -0.0000000049     1.000000    0.00001816
   82      -16.3667265469      -0.0000000045     1.000000    0.00001739
   83      -16.3667265511      -0.0000000042     1.000000    0.00001666
   84      -16.3667265549      -0.0000000038     1.000000    0.00001596
   85      -16.3667265584      -0.0000000035     1.000000    0.00001529
   86      -16.3667265617      -0.0000000032     1.000000    0.00001464
   87      -16.3667265646      -0.0000000030     1.000000    0.00001403
   88      -16.3667265673      -0.0000000027     1.000000    0.00001344
   89      -16.3667265698      -0.0000000025     1.000000    0.00001288
   90      -16.3667265721      -0.0000000023     1.000000    0.00001234
   91      -16.3667265743      -0.0000000021     1.000000    0.00001182
   92      -16.3667265762      -0.0000000019     1.000000    0.00001132
   93      -16.3667265780      -0.0000000018     1.000000    0.00001085
   94      -16.3667265796      -0.0000000016     1.000000    0.00001040
   95      -16.3667265811      -0.0000000015     1.000000    0.00000996
   96      -16.3667265825      -0.0000000014     1.000000    0.00000955
   97      -16.3667265838      -0.0000000013     1.000000    0.00000915
   98      -16.3667265849      -0.0000000012     1.000000    0.00000877
   99      -16.3667265860      -0.0000000011     1.000000    0.00000840
  100      -16.3667265870      -0.0000000010     1.000000    0.00000805
  101      -16.3667265879      -0.0000000009     1.000000    0.00000771
  102      -16.3667265887      -0.0000000008     1.000000    0.00000739
  103      -16.3667265895      -0.0000000008     1.000000    0.00000708
  104      -16.3667265902      -0.0000000007     1.000000    0.00000679
  105      -16.3667265908      -0.0000000006     1.000000    0.00000651
  106      -16.3667265914      -0.0000000006     1.000000    0.00000624
  107      -16.3667265920      -0.0000000005     1.000000    0.00000598
  108      -16.3667265925      -0.0000000005     1.000000    0.00000573
  109      -16.3667265929      -0.0000000005     1.000000    0.00000549
  110      -16.3667265933      -0.0000000004     1.000000    0.00000526
  111      -16.3667265937      -0.0000000004     1.000000    0.00000504
  112      -16.3667265941      -0.0000000004     1.000000    0.00000483
  113      -16.3667265944      -0.0000000003     1.000000    0.00000463
  114      -16.3667265947      -0.0000000003     1.000000    0.00000444
  115      -16.3667265950      -0.0000000003     1.000000    0.00000425
  116      -16.3667265952      -0.0000000003     1.000000    0.00000408
  117      -16.3667265955      -0.0000000002     1.000000    0.00000391
  118      -16.3667265957      -0.0000000002     1.000000    0.00000374
  119      -16.3667265959      -0.0000000002     1.000000    0.00000359
  120      -16.3667265961      -0.0000000002     1.000000    0.00000344
  121      -16.3667265962      -0.0000000002     1.000000    0.00000330
  122      -16.3667265964      -0.0000000002     1.000000    0.00000316
  123      -16.3667265965      -0.0000000001     1.000000    0.00000303
  124      -16.3667265966      -0.0000000001     1.000000    0.00000290
  125      -16.3667265968      -0.0000000001     1.000000    0.00000278
  126      -16.3667265969      -0.0000000001     1.000000    0.00000267
  127      -16.3667265970      -0.0000000001     1.000000    0.00000256
  128      -16.3667265971      -0.0000000001     1.000000    0.00000245
  129      -16.3667265971      -0.0000000001     1.000000    0.00000235
  130      -16.3667265972      -0.0000000001     1.000000    0.00000225
  131      -16.3667265973      -0.0000000001     1.000000    0.00000216
  132      -16.3667265974      -0.0000000001     1.000000    0.00000207
  133      -16.3667265974      -0.0000000001     1.000000    0.00000198
  134      -16.3667265975      -0.0000000001     1.000000    0.00000190
  135      -16.3667265975      -0.0000000001     1.000000    0.00000182
  136      -16.3667265976      -0.0000000000     1.000000    0.00000174
  137      -16.3667265976      -0.0000000000     1.000000    0.00000167
  138      -16.3667265976      -0.0000000000     1.000000    0.00000160
  139      -16.3667265977      -0.0000000000     1.000000    0.00000154
  140      -16.3667265977      -0.0000000000     1.000000    0.00000147
  141      -16.3667265977      -0.0000000000     1.000000    0.00000141
  142      -16.3667265978      -0.0000000000     1.000000    0.00000135
  143      -16.3667265978      -0.0000000000     1.000000    0.00000130
  144      -16.3667265978      -0.0000000000     1.000000    0.00000124
  145      -16.3667265978      -0.0000000000     1.000000    0.00000119
  146      -16.3667265979      -0.0000000000     1.000000    0.00000114
  147      -16.3667265979      -0.0000000000     1.000000    0.00000109
  148      -16.3667265979      -0.0000000000     1.000000    0.00000105
  149      -16.3667265979      -0.0000000000     1.000000    0.00000100
  150      -16.3667265979      -0.0000000000     1.000000    0.00000096
  
--------------------------------------------------
 Final SA-REKS(2,2) energy:     -16.36672660
  
 State     Energy      FON(1)    FON(2)   Spin
  PPS  -16.46394092   2.000000  0.000000  0.00
  OSS  -16.26951228   1.000000  1.000000  0.00
 Trip  -16.28966400   1.000000  1.000000  1.00
--------------------------------------------------

 Lagrangian Wab:  -0.00690083 -0.00690081

--------------------------------------------------
 SSR: 2SI-2SA-REKS(2,2) Hamiltonian matrix
               PPS           OSS
   PPS   -16.46394092   -0.00975893
   OSS    -0.00975893  -16.26951228
--------------------------------------------------

----------------------------------------------------------------
 SSR: 2SI-2SA-REKS(2,2) states
                    E_n       C_{PPS}    C_{OSS}
 SSR state  1  -16.46442952  -0.998749  -0.050004
 SSR state  2  -16.26902368   0.050004  -0.998749
----------------------------------------------------------------

 unrelaxed SSR FONs for S0:  1.997500  0.002500

Total Energy:                      -16.4644295170 H         -448.0199 eV
Extrapolated to 0:                 -16.4644295170 H         -448.0199 eV

----------------------------------------------------------------------------------
 Solving CP-REKS equation for  1 state vector...
----------------------------------------------------------------------------------
  CG solver: Constructing Y initial guess
  CG solver: Iteration    1    eps =    0.000638349844
  CG solver: Iteration    2    eps =    0.000055760912
  CG solver: Iteration    3    eps =    0.000009462676
  CG solver: Iteration    4    eps =    0.000002426340
  CG solver: Iteration    5    eps =    0.000000349644
  CG solver: Iteration    6    eps =    0.000000349105
  CG solver: Iteration    7    eps =    0.000000281405
  CG solver: Iteration    8    eps =    0.000000065097
  CG solver: Iteration    9    eps =    0.000000043657
  CG solver: Iteration   10    eps =    0.000000008192
  Convergence reached in CG solver after   10 iterations
  CG solver: Calculating converged R, Z, Q2 matrix
----------------------------------------------------------------------------------

----------------------------------------------------------------------------------
 Solving CP-REKS equation for SI between  1 and  2 state vectors...
----------------------------------------------------------------------------------
  CG solver: Constructing Y initial guess
  CG solver: Iteration    1    eps =    0.014251553368
  CG solver: Iteration    2    eps =    0.002145774671
  CG solver: Iteration    3    eps =    0.000085870824
  CG solver: Iteration    4    eps =    0.000103421933
  CG solver: Iteration    5    eps =    0.000013741961
  CG solver: Iteration    6    eps =    0.000008312693
  CG solver: Iteration    7    eps =    0.000009107722
  CG solver: Iteration    8    eps =    0.000004106922
  CG solver: Iteration    9    eps =    0.000000732296
  CG solver: Iteration   10    eps =    0.000000145436
  CG solver: Iteration   11    eps =    0.000000049760
  CG solver: Iteration   12    eps =    0.000000005843
  Convergence reached in CG solver after   12 iterations
  CG solver: Calculating converged R, Z, Q2 matrix
----------------------------------------------------------------------------------

--------------------------------------------------
 Gradient Information
--------------------------------------------------
           1 st state (SSR)
     0.01265954    -0.04925591     0.00745390
     0.04238266     0.03640864     0.00669449
     0.00792145    -0.00532547     0.01497924
    -0.02988363     0.02015118    -0.01877839
    -0.01379875     0.00377162    -0.01191322
     0.03807557     0.05666657     0.03394878
     0.01070560    -0.02220239    -0.04959684
    -0.00168253    -0.01195440    -0.00042317
    -0.02242962     0.00777882     0.01060015
     0.03012622     0.09079196    -0.05222519
    -0.02155639     0.00582262     0.02448097
    -0.03997018    -0.12670260     0.01489114
    -0.03677916    -0.00160040     0.03440240
     0.02422923    -0.00435024    -0.01451426

           2 st state (SSR)
     0.01865119    -0.04290921     0.00294747
     0.01894469     0.02432906     0.00553333
     0.00659267    -0.00484336     0.01513031
    -0.02954409     0.01957260    -0.01740031
    -0.01176388     0.00490908    -0.00818975
     0.12457523     0.08484280     0.07823498
     0.01722396    -0.05595720    -0.06263851
     0.00005119    -0.01023827    -0.00002264
    -0.02398460     0.01685041    -0.00005198
    -0.06385712     0.26669639    -0.10672568
    -0.02533908     0.00609616     0.01565926
    -0.01788340    -0.30960642     0.05795113
    -0.01970668     0.00202334     0.04087413
     0.00603991    -0.00176539    -0.02130174
--------------------------------------------------
 Coupling Information
--------------------------------------------------
 between  1 and  2 states
--------------------------------------------------
 g vector - difference gradient
    -0.00279922    -0.00326452     0.00266872
     0.01159314     0.00725501     0.00012069
     0.00065775    -0.00030251    -0.00011378
    -0.00012424     0.00028035    -0.00079927
    -0.00101930    -0.00071418    -0.00196058
    -0.04346243    -0.01515035    -0.02274497
    -0.00332086     0.01603117     0.00825842
    -0.00090991    -0.00106451    -0.00009586
     0.00084979    -0.00472553     0.00562666
     0.04651458    -0.08651889     0.02622121
     0.00185574    -0.00024118     0.00456096
    -0.01059938     0.09179196    -0.02204367
    -0.00809024    -0.00193494    -0.00284803
     0.00885459    -0.00144188     0.00314950

 h vector - derivative coupling
    -0.00210848     0.00074935    -0.00402629
     0.00184032    -0.01180314     0.00461027
     0.00009941     0.00060009     0.00037721
    -0.00046209     0.00010351     0.00106357
    -0.00003236     0.00142044     0.00089145
    -0.00004751     0.00987615     0.00488699
     0.00045126     0.00927483    -0.01698254
     0.00038546     0.00201357    -0.00105006
    -0.00068132     0.00166294    -0.00272774
     0.00710532    -0.01868165     0.01161509
     0.00044934     0.00103322    -0.00127445
    -0.00497593     0.00119129     0.00403909
    -0.00487027     0.00113526    -0.00402547
     0.00284686     0.00142412     0.00260287

 G vector - GDV
    -0.00299583    -0.00317335     0.00225322
     0.01171899     0.00603979     0.00058058
     0.00066439    -0.00024105    -0.00007554
    -0.00016977     0.00028929    -0.00068904
    -0.00101744    -0.00056873    -0.00186173
    -0.04324983    -0.01408812    -0.02214310
    -0.00325918     0.01687741     0.00652084
    -0.00086686    -0.00085807    -0.00020027
     0.00077749    -0.00453579     0.00532607
     0.04699167    -0.08795222     0.02725024
     0.00189135    -0.00013677     0.00441085
    -0.01104339     0.09145191    -0.02152999
    -0.00853624    -0.00181187    -0.00323586
     0.00909466    -0.00129243     0.00339374

 H vector - DCV - non-adiabatic coupling
    -0.00930546     0.00548434    -0.02186585
     0.00344488    -0.06380959     0.02341362
     0.00016997     0.00321027     0.00197889
    -0.00228945     0.00038378     0.00582421
     0.00035625     0.00759788     0.00554140
     0.02197435     0.05803324     0.03651071
     0.00399530     0.03903260    -0.09069584
     0.00242784     0.01079717    -0.00529786
    -0.00390364     0.01088315    -0.01676567
     0.01240360    -0.05090122     0.04574037
     0.00133943     0.00538442    -0.00882082
    -0.01991924    -0.04085440     0.03183475
    -0.02066382     0.00676976    -0.01904174
     0.00996997     0.00798860     0.01164383
--------------------------------------------------


--------------------------------------------------------------------------------
DFTB+ running times                          cpu [s]             wall clock [s]
--------------------------------------------------------------------------------
SCC                                    +     0.22  ( 40.6%)      0.22  ( 40.7%)
      Sparse to dense                        0.01  (  2.1%)      0.01  (  2.0%)
      Dense to sparse                        0.04  (  7.5%)      0.04  (  7.6%)
      Range separated Hamiltonian            0.02  (  3.6%)      0.02  (  3.0%)
  Density matrix creation                    0.02  (  4.4%)      0.02  (  4.4%)
Post-SCC processing                    +     0.31  ( 59.1%)      0.32  ( 58.6%)
  Force calculation                          0.31  ( 59.0%)      0.31  ( 58.2%)
--------------------------------------------------------------------------------
Missing                                +     0.00  (  0.3%)      0.00  (  0.7%)
Total                                  =     0.53  (100.0%)      0.54  (100.0%)
--------------------------------------------------------------------------------
