|===============================================================================
|
|  DFTB+ release 20.1
|
|  Copyright (C) 2006 - 2020  DFTB+ developers group
|
|===============================================================================
|
|  When publishing results obtained with DFTB+, please cite the following
|  reference:
|
|  * DFTB+, a software package for efficient approximate density functional
|    theory based atomistic simulations, J. Chem. Phys. 152, 124101 (2020).
|    [doi: 10.1063/1.5143190]
|
|  You should also cite additional publications crediting the parametrization
|  data you use. Please consult the documentation of the SK-files for the
|  references.
|
|===============================================================================

Reading input file 'dftb_in.hsd'
Parser version: 8

--------------------------------------------------------------------------------
Reading SK-files:
Done.


Processed input in HSD format written to 'dftb_pin.hsd'

Starting initialization...
--------------------------------------------------------------------------------
OpenMP threads:              1
Chosen random seed:          511512322
Mode:                        Static calculation
Self consistent charges:     Yes
SCC-tolerance:                 0.100000E-05
Max. scc iterations:                   1000
Shell resolved Hubbard:      No
Spin polarisation:           No
Nr. of up electrons:             6.000000
Nr. of down electrons:           6.000000
Periodic boundaries:         No
Electronic solver:           Relatively robust
Maximal SCC-cycles:                    1000
Initial charges:             Set automatically (system chrg:   0.100E+01)
Included shells:             C:  s, p
                             N:  s, p
                             H:  s
Spin coupling constants:     C   1(s)-1(s):  -0.455900E-01
                             C   1(s)-2(p):  -0.293000E-01
                             C   2(p)-1(s):  -0.293000E-01
                             C   2(p)-2(p):  -0.275500E-01
                             N   1(s)-1(s):  -0.468700E-01
                             N   1(s)-2(p):  -0.317000E-01
                             N   2(p)-1(s):  -0.317000E-01
                             N   2(p)-2(p):  -0.307200E-01
                             H   1(s)-1(s):  -0.792500E-01
Range separated hybrid:      Yes
  Screening parameter omega:   0.300000E+00
  Range separated algorithm:   MatrixBased
Extra options:
                             Mulliken analysis
                             Force calculation
Force type                   original
                             Eigenvector printing


REKS Calcuation:             Yes
SSR(2,2) Calcuation:         Yes
Energy Functional:           (PPS+OSS)/2
Number of Core Orbitals:                  5
Number of Active Orbitals:                2
Number of Basis:                         12
Number of States:                         2
State-Averaging Weight:          0.500000
                                 0.500000
State of Interest:                        1
Initial Guess:               Diagonalize H0 matrix
Newton-Raphson for FON opt:  Yes
NR max. Iterations:                      50
Level Shifting:              Yes
Shift Value:                     0.300000
W Scale Factor:              C  =    3.000000
                             N  =    3.000000
                             H  =    3.000000
Transition Dipole:           No
Gradient of Microstate:      No
CP-REKS Solver:              Preconditioned Conjugate-Gradient
CG max. Iterations:                     100
CG Tolerance:                  0.100000E-07
Memory for A and Hxc:        Direct Updating Without Saving
Non-Adiabatic Coupling:      Yes

--------------------------------------------------------------------------------

***  Geometry step: 0

  iSCC       reks energy        Diff energy         x_a       SCC error   
    1       -6.2754033089       0.0000000000     0.999940    1.19485791
    2       -6.2813432292      -0.0059399203     0.999962    0.03241966
    3       -6.2832094950      -0.0018662658     0.999972    0.01080791
    4       -6.2839985242      -0.0007890292     0.999976    0.00832233
    5       -6.2843576105      -0.0003590863     0.999978    0.00651944
    6       -6.2845262632      -0.0001686527     0.999979    0.00487725
    7       -6.2846066966      -0.0000804333     0.999980    0.00355034
    8       -6.2846453663      -0.0000386698     0.999980    0.00254200
    9       -6.2846640453      -0.0000186790     0.999980    0.00180166
   10       -6.2846730968      -0.0000090515     0.999981    0.00126895
   11       -6.2846774942      -0.0000043974     0.999981    0.00089027
   12       -6.2846796357      -0.0000021415     0.999981    0.00062308
   13       -6.2846806811      -0.0000010454     0.999981    0.00043542
   14       -6.2846811928      -0.0000005117     0.999981    0.00030399
   15       -6.2846814441      -0.0000002513     0.999981    0.00021211
   16       -6.2846815679      -0.0000001238     0.999981    0.00014795
   17       -6.2846816292      -0.0000000613     0.999981    0.00010318
   18       -6.2846816597      -0.0000000305     0.999981    0.00007195
   19       -6.2846816749      -0.0000000153     0.999981    0.00005017
   20       -6.2846816826      -0.0000000077     0.999981    0.00003498
   21       -6.2846816865      -0.0000000039     0.999981    0.00002440
   22       -6.2846816885      -0.0000000020     0.999981    0.00001702
   23       -6.2846816896      -0.0000000010     0.999981    0.00001187
   24       -6.2846816901      -0.0000000005     0.999981    0.00000880
   25       -6.2846816904      -0.0000000003     0.999981    0.00000691
   26       -6.2846816906      -0.0000000002     0.999981    0.00000542
   27       -6.2846816907      -0.0000000001     0.999981    0.00000425
   28       -6.2846816907      -0.0000000000     0.999981    0.00000333
   29       -6.2846816907      -0.0000000000     0.999981    0.00000261
   30       -6.2846816907      -0.0000000000     0.999981    0.00000204
   31       -6.2846816907      -0.0000000000     0.999981    0.00000160
   32       -6.2846816908      -0.0000000000     0.999981    0.00000125
   33       -6.2846816908      -0.0000000000     0.999981    0.00000098
  
--------------------------------------------------
 Final SA-REKS(2,2) energy:      -6.28468169
  
 State     Energy      FON(1)    FON(2)   Spin
  PPS   -6.41831603   1.999962  0.000038  0.00
  OSS   -6.15104736   1.000000  1.000000  0.00
 Trip   -6.22777656   1.000000  1.000000  1.00
--------------------------------------------------

 Lagrangian Wab:   0.00045596  0.00045592

--------------------------------------------------
 SSR: 2SI-2SA-REKS(2,2) Hamiltonian matrix
               PPS           OSS
   PPS    -6.41831603    0.00064200
   OSS     0.00064200   -6.15104736
--------------------------------------------------

----------------------------------------------------------------
 SSR: 2SI-2SA-REKS(2,2) states
                    E_n       C_{PPS}    C_{OSS}
 SSR state  1   -6.41831757  -0.999997   0.002402
 SSR state  2   -6.15104581  -0.002402  -0.999997
----------------------------------------------------------------

 unrelaxed SSR FONs for S0:  1.999956  0.000044

Total Energy:                       -6.4183175675 H         -174.6513 eV
Extrapolated to 0:                  -6.4183175675 H         -174.6513 eV

----------------------------------------------------------------------------------
 Solving CP-REKS equation for  1 state vector...
----------------------------------------------------------------------------------
  CG solver: Constructing Y initial guess
  CG solver: Iteration    1    eps =    0.000028593192
  CG solver: Iteration    2    eps =    0.000001442356
  CG solver: Iteration    3    eps =    0.000000255695
  CG solver: Iteration    4    eps =    0.000000002647
  Convergence reached in CG solver after    4 iterations
  CG solver: Calculating converged R, Z, Q2 matrix
----------------------------------------------------------------------------------

----------------------------------------------------------------------------------
 Solving CP-REKS equation for SI between  1 and  2 state vectors...
----------------------------------------------------------------------------------
  CG solver: Constructing Y initial guess
  CG solver: Iteration    1    eps =    0.000287806914
  CG solver: Iteration    2    eps =    0.000081049435
  CG solver: Iteration    3    eps =    0.000010331589
  CG solver: Iteration    4    eps =    0.000000690078
  CG solver: Iteration    5    eps =    0.000000010925
  CG solver: Iteration    6    eps =    0.000000002163
  Convergence reached in CG solver after    6 iterations
  CG solver: Calculating converged R, Z, Q2 matrix
----------------------------------------------------------------------------------

--------------------------------------------------
 Gradient Information
--------------------------------------------------
           1 st state (SSR)
    -0.00272204    -0.00399672     0.03253209
     0.00884517    -0.00309007    -0.04155949
    -0.00073327    -0.00187096    -0.00418317
    -0.00534484     0.00694120     0.00754360
    -0.00133248    -0.00028600     0.00472922
     0.00128746     0.00230255     0.00093774

           2 st state (SSR)
     0.00209320    -0.00467615     0.14616885
    -0.00294442     0.00249511    -0.17419032
    -0.00083142     0.01002044     0.01605588
     0.00218209     0.00040004    -0.00162081
    -0.00007377     0.00670855    -0.00483143
    -0.00042567    -0.01494799     0.01841784
--------------------------------------------------
 Coupling Information
--------------------------------------------------
 between  1 and  2 states
--------------------------------------------------
 g vector - difference gradient
    -0.00240891     0.00033243    -0.05681951
     0.00589270    -0.00278147     0.06631643
     0.00002486    -0.00594708    -0.01012009
    -0.00379040     0.00326283     0.00458066
    -0.00060123    -0.00349744     0.00478238
     0.00088298     0.00863073    -0.00873986

 h vector - derivative coupling
    -0.00026220    -0.00151752    -0.00009972
    -0.00045123     0.00232090     0.00005086
    -0.00504008    -0.00027187    -0.00009338
    -0.00559783    -0.00162125    -0.00033410
     0.00585570    -0.00002599     0.00041534
     0.00549563     0.00111572     0.00006100

 G vector - GDV
    -0.00240762     0.00033972    -0.05681838
     0.00589480    -0.00279259     0.06631542
     0.00004908    -0.00594570    -0.01011952
    -0.00376346     0.00327058     0.00458221
    -0.00062936    -0.00349728     0.00478032
     0.00085657     0.00862527    -0.00874005

 H vector - DCV - non-adiabatic coupling
    -0.00102429    -0.00567178    -0.00139443
    -0.00158234     0.00863358     0.00138231
    -0.01885685    -0.00112407    -0.00053129
    -0.02101221    -0.00600721    -0.00116768
     0.02189810    -0.00016010     0.00163994
     0.02057760     0.00432957     0.00007114
--------------------------------------------------


--------------------------------------------------------------------------------
DFTB+ running times                          cpu [s]             wall clock [s]
--------------------------------------------------------------------------------
SCC                                    +     0.01  ( 52.7%)      0.02  ( 52.9%)
Post-SCC processing                    +     0.01  ( 42.5%)      0.01  ( 38.2%)
  Force calculation                          0.01  ( 41.5%)      0.01  ( 35.3%)
--------------------------------------------------------------------------------
Missing                                +     0.00  (  4.8%)      0.00  (  8.8%)
Total                                  =     0.03  (100.0%)      0.03  (100.0%)
--------------------------------------------------------------------------------
