     6
  Step:   300            Position(A)                                  Velocity(au)
C        -0.03925807     0.00665557     0.02929026     0.00000921     0.00000249     0.00002652
N        -0.04349482    -0.04764346     1.28553281    -0.00001063     0.00000373    -0.00002274
H         0.07679350     0.96722412    -0.47412437    -0.00189873    -0.00023107    -0.00040806
H        -0.22848939    -0.90972739     1.82440773    -0.00186514     0.00064815     0.00041193
H         0.15757977     0.75176927     1.90302937     0.00195655    -0.00075428     0.00031941
H        -0.14659082    -0.89626827    -0.57452295     0.00184519     0.00025570    -0.00032321
