     6
  Step:     0            Position(A)                                  Velocity(au)
C        -0.03881518     0.02527585     0.00472741    -0.00005640    -0.00005672    -0.00004949
N        -0.03826130    -0.06186028     1.30953967     0.00008601     0.00005489     0.00007249
H         0.95206984    -0.06056266    -0.55869926    -0.00002394     0.00026023     0.00014522
H         0.78750697    -0.09235330     1.85591627    -0.00049877    -0.00032053    -0.00087286
H        -0.96088116    -0.02478198     1.85850910    -0.00063927    -0.00011194     0.00013025
H        -0.99741717     0.06636365    -0.51784115     0.00063888     0.00008538     0.00017976
     6
  Step:     1            Position(A)                                  Velocity(au)
C        -0.03909089     0.02499138     0.00412233    -0.00004402    -0.00004744    -0.00017101
N        -0.03785977    -0.06157192     1.31020604     0.00005966     0.00005071     0.00017039
H         0.95162045    -0.05914698    -0.55775018    -0.00013954     0.00025763     0.00020122
H         0.78535590    -0.09416060     1.85148732    -0.00027635    -0.00034135    -0.00073875
H        -0.96401949    -0.02543813     1.85902156    -0.00050329    -0.00012810     0.00005502
H        -0.99397258     0.06679425    -0.51692380     0.00061480     0.00007249     0.00015246
     6
  Step:     2            Position(A)                                  Velocity(au)
C        -0.03929659     0.02475708     0.00285733    -0.00003090    -0.00003845    -0.00029055
N        -0.03760892    -0.06130577     1.31140297     0.00003128     0.00004682     0.00026642
H         0.95054390    -0.05774529    -0.55649879    -0.00025245     0.00025538     0.00025532
H         0.78448498    -0.09608613     1.84783766    -0.00003378    -0.00036397    -0.00059052
H        -0.96638494    -0.02618278     1.85911075    -0.00035876    -0.00014429    -0.00002338
H        -0.99069402     0.06715633    -0.51617391     0.00057859     0.00006050     0.00011849
     6
  Step:     3            Position(A)                                  Velocity(au)
C        -0.03942867     0.02457109     0.00094655    -0.00001718    -0.00002982    -0.00040700
N        -0.03751784    -0.06106018     1.31311810     0.00000159     0.00004322     0.00035990
H         0.94886106    -0.05635556    -0.55495946    -0.00036047     0.00025340     0.00030605
H         0.78498672    -0.09813891     1.84503266     0.00022237    -0.00038799    -0.00043239
H        -0.96794093    -0.02701523     1.85876599    -0.00020907    -0.00016020    -0.00010264
H        -0.98764839     0.06745549    -0.51562864     0.00052990     0.00004957     0.00007758
     6
  Step:     4            Position(A)                                  Velocity(au)
C        -0.03948436     0.02443123    -0.00159004    -0.00000305    -0.00002159    -0.00051913
N        -0.03759154    -0.06083350     1.31533561    -0.00002861     0.00003990     0.00045005
H         0.94660504    -0.05497641    -0.55315457    -0.00046109     0.00025148     0.00035180
H         0.78691488    -0.10032569     1.84311291     0.00048431    -0.00041286    -0.00026916
H        -0.96866950    -0.02793335     1.85798916    -0.00005780    -0.00017557    -0.00018035
H        -0.98490381     0.06769798    -0.51532614     0.00046857     0.00003979     0.00002967
     6
  Step:     5            Position(A)                                  Velocity(au)
C        -0.03946195     0.02433515    -0.00472586     0.00001127    -0.00001380    -0.00062546
N        -0.03783049    -0.06062419     1.31803565    -0.00005842     0.00003684     0.00053591
H         0.94382284    -0.05360775    -0.55111538    -0.00055146     0.00024931     0.00039079
H         0.79027865    -0.10265009     1.84209166     0.00074312    -0.00043786    -0.00010610
H        -0.96857255    -0.02893362     1.85679534     0.00009109    -0.00019009    -0.00025390
H        -0.98252846     0.06789027    -0.51530440     0.00039476     0.00003117    -0.00002504
     6
  Step:     6            Position(A)                                  Velocity(au)
C        -0.03936113     0.02428035    -0.00842664     0.00002547    -0.00000649    -0.00072429
N        -0.03823008    -0.06043079     1.32119342    -0.00008681     0.00003402     0.00061633
H         0.94057730    -0.05225132    -0.54888296    -0.00062836     0.00024650     0.00042109
H         0.79503766    -0.10511171     1.84195318     0.00098911    -0.00046208     0.00005125
H        -0.96767388    -0.03001113     1.85521391     0.00023316    -0.00020347    -0.00032045
H        -0.98058886     0.06803867    -0.51559985     0.00030910     0.00002367    -0.00008602
     6
  Step:     7            Position(A)                                  Velocity(au)
C        -0.03918338     0.02426417    -0.01264921     0.00003914     0.00000032    -0.00081376
N        -0.03878017    -0.06025205     1.32477801    -0.00011273     0.00003139     0.00068996
H         0.93694888    -0.05091116    -0.54650890    -0.00068837     0.00024261     0.00044070
H         0.80109896    -0.10770505     1.84265231     0.00121222    -0.00048448     0.00019740
H        -0.96602193    -0.03115942     1.85328982     0.00036347    -0.00021537    -0.00037697
H        -0.97914710     0.06814918    -0.51624543     0.00021285     0.00001722    -0.00015232
     6
  Step:     8            Position(A)                                  Velocity(au)
C        -0.03893242     0.02428384    -0.01734064     0.00005183     0.00000658    -0.00089191
N        -0.03946488    -0.06008690     1.32875135    -0.00013507     0.00002893     0.00075531
H         0.93303686    -0.04959378    -0.54405551    -0.00072799     0.00023718     0.00044772
H         0.80831649    -0.11041872     1.84411552     0.00140278    -0.00050387     0.00032724
H        -0.96369238    -0.03237033     1.85108452     0.00047671    -0.00022547    -0.00042038
H        -0.97825729     0.06822732    -0.51726841     0.00010802     0.00001174    -0.00022257
     6
  Step:     9            Position(A)                                  Velocity(au)
C        -0.03861456     0.02433640    -0.02243788     0.00006303     0.00001226    -0.00095688
N        -0.04026261    -0.05993453     1.33306749    -0.00015285     0.00002659     0.00081086
H         0.92895923    -0.04830814    -0.54159519    -0.00074407     0.00022981     0.00044056
H         0.81649447    -0.11323498     1.84624378     0.00155228    -0.00051909     0.00043645
H        -0.96079007    -0.03363394     1.84867616     0.00056749    -0.00023344    -0.00044775
H        -0.97796160     0.06827802    -0.51868813    -0.00000263     0.00000712    -0.00029497
     6
  Step:    10            Position(A)                                  Velocity(au)
C        -0.03823893     0.02441874    -0.02786828     0.00007224     0.00001733    -0.00100711
N        -0.04114657    -0.05979434     1.33767242    -0.00016522     0.00002434     0.00085524
H         0.92485056    -0.04706543    -0.53920849    -0.00073417     0.00022019     0.00041815
H         0.82539465    -0.11612977     1.84891730     0.00165419    -0.00052911     0.00052183
H        -0.95744890    -0.03493863     1.84615843     0.00063089    -0.00023902    -0.00045663
H        -0.97828620     0.06830563    -0.52051365    -0.00011564     0.00000324    -0.00036737
     6
  Step:    11            Position(A)                                  Velocity(au)
C        -0.03781742     0.02452759    -0.03355101     0.00013883     0.00003823    -0.00183046
N        -0.04208581    -0.05966593     1.34250482    -0.00030163     0.00003894     0.00155961
H         0.92085786    -0.04587844    -0.53698108    -0.00122489     0.00036583     0.00066811
H         0.83474790    -0.11907352     1.85200199     0.00299604    -0.00093699     0.00102224
H        -0.95382845    -0.03627148     1.84363742     0.00116532    -0.00042543    -0.00078281
H        -0.97923761     0.06831381    -0.52274189    -0.00039905    -0.00000002    -0.00076867
     6
  Step:    12            Position(A)                                  Velocity(au)
C        -0.03704231     0.02473730    -0.04344208     0.00013531     0.00003614    -0.00168325
N        -0.04375413    -0.05945050     1.35098343    -0.00028776     0.00003774     0.00145262
H         0.91453788    -0.04392538    -0.53376482    -0.00100718     0.00032832     0.00046853
H         0.85136358    -0.12420604     1.85781800     0.00288049    -0.00088663     0.00102724
H        -0.94740915    -0.03860636     1.83942039     0.00109332    -0.00040448    -0.00070143
H        -0.98200462     0.06833594    -0.52751645    -0.00058001     0.00000768    -0.00092281
     6
  Step:    13            Position(A)                                  Velocity(au)
C        -0.03629445     0.02493438    -0.05249667     0.00007013     0.00001836    -0.00083331
N        -0.04532471    -0.05924111     1.35885466    -0.00014517     0.00001996     0.00073014
H         0.90952167    -0.04218307    -0.53170757    -0.00041523     0.00015809     0.00014020
H         0.86716895    -0.12905291     1.86356397     0.00147310    -0.00045371     0.00054332
H        -0.94152277    -0.04082401     1.83574260     0.00053076    -0.00020849    -0.00032185
H        -0.98576585     0.06840021    -0.53312847    -0.00040701     0.00000804    -0.00057826
     6
  Step:    14            Position(A)                                  Velocity(au)
C        -0.03591170     0.02504520    -0.05714383     0.00006445     0.00002070    -0.00080974
N        -0.04609477    -0.05913537     1.36294095    -0.00012601     0.00001756     0.00071461
H         0.90755604    -0.04135210    -0.53115901    -0.00027643     0.00013615     0.00005231
H         0.87506784    -0.13155179     1.86653431     0.00131309    -0.00043017     0.00050255
H        -0.93881032    -0.04198292     1.83418315     0.00041998    -0.00020178    -0.00022562
H        -0.98827109     0.06843725    -0.53649678    -0.00047349     0.00000511    -0.00061083
     6
  Step:    15            Position(A)                                  Velocity(au)
C        -0.03556591     0.02516839    -0.06164928     0.00005749     0.00002287    -0.00078755
N        -0.04674906    -0.05904263     1.36693201    -0.00010511     0.00001543     0.00070023
H         0.90639710    -0.04064412    -0.53111630    -0.00013241     0.00011525    -0.00003794
H         0.88201097    -0.13391521     1.86924439     0.00114351    -0.00040801     0.00045510
H        -0.93677569    -0.04310477     1.83319241     0.00029482    -0.00019644    -0.00012265
H        -0.99111776     0.06845793    -0.54003278    -0.00053028     0.00000221    -0.00064071
     6
  Step:    16            Position(A)                                  Velocity(au)
C        -0.03526359     0.02530302    -0.06602211     0.00004953     0.00002494    -0.00076827
N        -0.04727971    -0.05896137     1.37083489    -0.00008309     0.00001358     0.00068824
H         0.90606333    -0.04005287    -0.53158676     0.00001440     0.00009549    -0.00012959
H         0.88795896    -0.13615144     1.87166481     0.00096921    -0.00038786     0.00040393
H        -0.93548667    -0.04419740     1.83280043     0.00015917    -0.00019279    -0.00001480
H        -0.99424912     0.06846220    -0.54371977    -0.00057832    -0.00000076    -0.00066890
     6
  Step:    17            Position(A)                                  Velocity(au)
C        -0.03500951     0.02544861    -0.07027979     0.00004078     0.00002697    -0.00075217
N        -0.04768244    -0.05889009     1.37466353    -0.00006037     0.00001197     0.00067880
H         0.90655881    -0.03957140    -0.53257202     0.00016192     0.00007682    -0.00022174
H         0.89289883    -0.13827231     1.87378201     0.00079254    -0.00036973     0.00035085
H        -0.93498763    -0.04527050     1.83302621     0.00001645    -0.00019089     0.00009642
H        -0.99761441     0.06844940    -0.54754696    -0.00061791    -0.00000391    -0.00069552
     6
  Step:    18            Position(A)                                  Velocity(au)
C        -0.03480717     0.02560492    -0.07444109     0.00003141     0.00002896    -0.00073871
N        -0.04795539    -0.05882740     1.37843267    -0.00003730     0.00001058     0.00067137
H         0.90787572    -0.03919306    -0.53406874     0.00030782     0.00005912    -0.00031328
H         0.89682979    -0.14028976     1.87559187     0.00061469    -0.00035328     0.00029705
H        -0.93530249    -0.04633398     1.83387968    -0.00012964    -0.00019058     0.00020925
H        -1.00116536     0.06841841    -0.55150472    -0.00064878    -0.00000733    -0.00072007
     6
  Step:    19            Position(A)                                  Velocity(au)
C        -0.03465903     0.02577170    -0.07852178     0.00002163     0.00003088    -0.00072709
N        -0.04809863    -0.05877204     1.38215414    -0.00001429     0.00000939     0.00066517
H         0.90999318    -0.03891175    -0.53606740     0.00044918     0.00004236    -0.00040270
H         0.89975705    -0.14221391     1.87709625     0.00043689    -0.00033812     0.00024352
H        -0.93643407    -0.04739686     1.83536090    -0.00027486    -0.00019166     0.00032152
H        -1.00485292     0.06836765    -0.55558090    -0.00067033    -0.00001106    -0.00074169
     6
  Step:    20            Position(A)                                  Velocity(au)
C        -0.03456646     0.02594862    -0.08253304     0.00001165     0.00003272    -0.00071652
N        -0.04811441    -0.05872289     1.38583545     0.00000820     0.00000839     0.00065944
H         0.91287475    -0.03872168    -0.53855048     0.00058270     0.00002653    -0.00048824
H         0.90169198    -0.14405274     1.87830204     0.00026086    -0.00032394     0.00019132
H        -0.93836148    -0.04846694     1.83745798    -0.00041443    -0.00019388     0.00043068
H        -1.00862559     0.06829529    -0.55975908    -0.00068198    -0.00001515    -0.00075951
     6
  Step:    21            Position(A)                                  Velocity(au)
C        -0.03452957     0.02613519    -0.08648163     0.00000175     0.00003444    -0.00070636
N        -0.04800748    -0.05867887     1.38947990     0.00002965     0.00000757     0.00065357
H         0.91646638    -0.03861701    -0.54149124     0.00070488     0.00001173    -0.00056805
H         0.90265498    -0.14581253     1.87922158     0.00008894    -0.00031056     0.00014162
H        -0.94103796    -0.04955067     1.84014538    -0.00054336    -0.00019704     0.00053402
H        -1.01242908     0.06819934    -0.56401833    -0.00068330    -0.00001960    -0.00077280
     6
  Step:    22            Position(A)                                  Velocity(au)
C        -0.03454709     0.02633072    -0.09037074    -0.00000783     0.00003600    -0.00069616
N        -0.04778538    -0.05863893     1.39308739     0.00004951     0.00000693     0.00064710
H         0.92069601    -0.03859149    -0.54485348     0.00081245    -0.00000193    -0.00064040
H         0.90267882    -0.14749866     1.87987339    -0.00007608    -0.00029795     0.00009570
H        -0.94439056    -0.05065326     1.84338337    -0.00065689    -0.00020094     0.00062888
H        -1.01620740     0.06807779    -0.56833397    -0.00067417    -0.00002441    -0.00078104
     6
  Step:    23            Position(A)                                  Velocity(au)
C        -0.03461638     0.02653436    -0.09420101    -0.00001681     0.00003738    -0.00068564
N        -0.04745849    -0.05860204     1.39665526     0.00006725     0.00000648     0.00063974
H         0.92547513    -0.03863836    -0.54859226     0.00090257    -0.00001433    -0.00070379
H         0.90181133    -0.14911633     1.88028279    -0.00023111    -0.00028620     0.00005492
H        -0.94832181    -0.05177878     1.84711868    -0.00075081    -0.00020541     0.00071293
H        -1.01990455     0.06792869    -0.57267881    -0.00065481    -0.00002955    -0.00078396
     6
  Step:    24            Position(A)                                  Velocity(au)
C        -0.03473348     0.02674513    -0.09797129    -0.00002498     0.00003857    -0.00067460
N        -0.04703988    -0.05856712     1.40017908     0.00008241     0.00000622     0.00063127
H         0.93070131    -0.03875030    -0.55265525     0.00097304    -0.00002536    -0.00075705
H         0.90011687    -0.15067126     1.88048216    -0.00037296    -0.00027547     0.00002057
H        -0.95271352    -0.05293026     1.85128642    -0.00082179    -0.00021027     0.00078426
H        -1.02346615     0.06775025    -0.57702439    -0.00062573    -0.00003498    -0.00078150
     6
  Step:    25            Position(A)                                  Velocity(au)
C        -0.03489330     0.02696196    -0.10167938    -0.00003214     0.00003955    -0.00066298
N        -0.04654497    -0.05853307     1.40365323     0.00009459     0.00000617     0.00062159
H         0.93626186    -0.03891950    -0.55698460     0.00102242    -0.00003495    -0.00079939
H         0.89767684    -0.15217004     1.88051087    -0.00049853    -0.00026599    -0.00000607
H        -0.95743183    -0.05410975     1.85581264    -0.00086758    -0.00021538     0.00084154
H        -1.02684112     0.06754090    -0.58134214    -0.00058773    -0.00004066    -0.00077380
     6
  Step:    26            Position(A)                                  Velocity(au)
C        -0.03508985     0.02718370    -0.10532250    -0.00003815     0.00004032    -0.00065075
N        -0.04599108    -0.05849875     1.40707135     0.00010351     0.00000632     0.00061065
H         0.94203810    -0.03913788    -0.56151907     0.00105008    -0.00004307    -0.00083046
H         0.89458909    -0.15362055     1.88041484    -0.00060497    -0.00025801    -0.00002390
H        -0.96233334    -0.05531839     1.86061753    -0.00088704    -0.00022058     0.00088403
H        -1.02998303     0.06729936    -0.58560442    -0.00054182    -0.00004654    -0.00076118
     6
  Step:    27            Position(A)                                  Velocity(au)
C        -0.03531648     0.02740918    -0.10889768    -0.00004292     0.00004087    -0.00063795
N        -0.04539683    -0.05846300     1.41042678     0.00010899     0.00000668     0.00059848
H         0.94790969    -0.03939726    -0.56619630     0.00105615    -0.00004971    -0.00085027
H         0.89096630    -0.15503203     1.88024571    -0.00068988    -0.00025183    -0.00003201
H        -0.96727118    -0.05655651     1.86561859    -0.00088018    -0.00022576     0.00091160
H        -1.03285119     0.06702465    -0.58978544    -0.00048917    -0.00005256    -0.00074410
     6
  Step:    28            Position(A)                                  Velocity(au)
C        -0.03556620     0.02763726    -0.11240210    -0.00004642     0.00004122    -0.00062469
N        -0.04478156    -0.05842460     1.41371287     0.00011098     0.00000726     0.00058513
H         0.95375861    -0.03968957    -0.57095479     0.00104146    -0.00005493    -0.00085921
H         0.88693328    -0.15641518     1.88005963    -0.00075143    -0.00024769    -0.00002972
H        -0.97210099    -0.05782376     1.87073385    -0.00084802    -0.00023082     0.00092466
H        -1.03541149     0.06671610    -0.59386201    -0.00043106    -0.00005866    -0.00072314
     6
  Step:    29            Position(A)                                  Velocity(au)
C        -0.03583189     0.02786684    -0.11583338    -0.00004865     0.00004138    -0.00061109
N        -0.04416464    -0.05838237     1.41692331     0.00010953     0.00000806     0.00057074
H         0.95947268    -0.04000708    -0.57573579     0.00100742    -0.00005879    -0.00085798
H         0.88262343    -0.15778200     1.87991569    -0.00078852    -0.00024582    -0.00001669
H        -0.97668646    -0.05911926     1.87588481    -0.00079251    -0.00023570     0.00092415
H        -1.03763704     0.06637336    -0.59781423    -0.00036884    -0.00006479    -0.00069897
     6
  Step:    30            Position(A)                                  Velocity(au)
C        -0.03610653     0.02809691    -0.11918977    -0.00004964     0.00004137    -0.00059730
N        -0.04356490    -0.05833508     1.42005241     0.00010481     0.00000907     0.00055545
H         0.96494860    -0.04034259    -0.58048488     0.00095589    -0.00006143    -0.00084753
H         0.87817475    -0.15914561     1.87987420    -0.00080079    -0.00024640     0.00000712
H        -0.98090380    -0.06044178     1.88099890    -0.00071622    -0.00024035     0.00091135
H        -1.03950835     0.06599642    -0.60162585    -0.00030385    -0.00007090    -0.00067230
     6
  Step:    31            Position(A)                                  Velocity(au)
C        -0.03638343     0.02832658    -0.12247034    -0.00004947     0.00004122    -0.00058348
N        -0.04300004    -0.05828155     1.42309531     0.00009705     0.00001030     0.00053945
H         0.97009422    -0.04068962    -0.58515318     0.00088902    -0.00006297    -0.00082892
H         0.87372530    -0.16051992     1.87999485    -0.00078867    -0.00024955     0.00004145
H        -0.98464485    -0.06178994     1.88601137    -0.00062220    -0.00024478     0.00088780
H        -1.04101328     0.06558550    -0.60528460    -0.00023738    -0.00007695    -0.00064387
     6
  Step:    32            Position(A)                                  Velocity(au)
C        -0.03665633     0.02855506    -0.12567492    -0.00004822     0.00004094    -0.00056977
N        -0.04248619    -0.05822064     1.42604812     0.00008659     0.00001172     0.00052289
H         0.97482965    -0.04104248    -0.58969799     0.00080907    -0.00006359    -0.00080334
H         0.86940906    -0.16191924     1.88033488    -0.00075331    -0.00025529     0.00008567
H        -0.98781925    -0.06316239     1.89086644    -0.00051374    -0.00024901     0.00085522
H        -1.04214672     0.06514112    -0.60878221    -0.00017063    -0.00008289    -0.00061439
     6
  Step:    33            Position(A)                                  Velocity(au)
C        -0.03691948     0.02878171    -0.12880396    -0.00004601     0.00004057    -0.00055625
N        -0.04203751    -0.05815123     1.42890779     0.00007380     0.00001334     0.00050592
H         0.97908793    -0.04139644    -0.59408320     0.00071835    -0.00006345    -0.00077196
H         0.86535144    -0.16335779     1.88094721    -0.00069663    -0.00026357     0.00013887
H        -0.99035568    -0.06455799     1.89551812    -0.00039427    -0.00025310     0.00081538
H        -1.04291005     0.06466403    -0.61211423    -0.00010469    -0.00008869    -0.00058452
     6
  Step:    34            Position(A)                                  Velocity(au)
C        -0.03716777     0.02900599    -0.13185834    -0.00004293     0.00004011    -0.00054299
N        -0.04166585    -0.05807230     1.43167212     0.00005911     0.00001514     0.00048871
H         0.98281502    -0.04174779    -0.59827932     0.00061911    -0.00006275    -0.00073594
H         0.86166514    -0.16484910     1.88187862    -0.00062123    -0.00027419     0.00019981
H        -0.99220207    -0.06597598     1.89993043    -0.00026717    -0.00025714     0.00077004
H        -1.04331046     0.06415525    -0.61527989    -0.00004050    -0.00009428    -0.00055487
     6
  Step:    35            Position(A)                                  Velocity(au)
C        -0.03739668     0.02922751    -0.13483933    -0.00003910     0.00003959    -0.00053006
N        -0.04138051    -0.05798291     1.43433981     0.00004299     0.00001710     0.00047140
H         0.98596938    -0.04209391    -0.60226319     0.00051348    -0.00006170    -0.00069635
H         0.85844648    -0.16640546     1.88316808    -0.00053027    -0.00028689     0.00026698
H        -0.99332529    -0.06741614     1.90407718    -0.00013573    -0.00026124     0.00072091
H        -1.04336025     0.06361610    -0.61828167     0.00002109    -0.00009961    -0.00052598
     6
  Step:    36            Position(A)                                  Velocity(au)
C        -0.03760233     0.02944597    -0.13774872    -0.00003463     0.00003904    -0.00051757
N        -0.04118810    -0.05788225     1.43691057     0.00002593     0.00001919     0.00045419
H         0.98852109    -0.04243342    -0.60601759     0.00040342    -0.00006053    -0.00065418
H         0.85577252    -0.16803715     1.88484540    -0.00042737    -0.00030122     0.00033864
H        -0.99371037    -0.06887903     1.90794155    -0.00000308    -0.00026556     0.00066956
H        -1.04307610     0.06304830    -0.62112490     0.00007938    -0.00010459    -0.00049830
     6
  Step:    37            Position(A)                                  Velocity(au)
C        -0.03778143     0.02966123    -0.14058904    -0.00002962     0.00003848    -0.00050560
N        -0.04109243    -0.05776971     1.43938548     0.00000843     0.00002138     0.00043730
H         0.99045096    -0.04276635    -0.60953059     0.00029074    -0.00005954    -0.00061032
H         0.85369883    -0.16975178     1.88693012    -0.00031648    -0.00031663     0.00041291
H        -0.99335946    -0.07036624     1.91151542     0.00012783    -0.00027032     0.00061749
H        -1.04247845     0.06245423    -0.62381737     0.00013375    -0.00010905    -0.00047223
     6
  Step:    38            Position(A)                                  Velocity(au)
C        -0.03793130     0.02987326    -0.14336330    -0.00002418     0.00003792    -0.00049420
N        -0.04109446    -0.05764486     1.44176671    -0.00000900     0.00002362     0.00042088
H         0.99174973    -0.04309465    -0.61279510     0.00017715    -0.00005918    -0.00056556
H         0.85225808    -0.17155331     1.88943076    -0.00020174    -0.00033231     0.00048779
H        -0.99229082    -0.07188093     1.91479867     0.00025419    -0.00027593     0.00056602
H        -1.04159088     0.06183735    -0.62636893     0.00018368    -0.00011269    -0.00044809
     6
  Step:    39            Position(A)                                  Velocity(au)
C        -0.03804988     0.03008212    -0.14607473    -0.00001844     0.00003738    -0.00048333
N        -0.04119234    -0.05750748     1.44405735    -0.00002586     0.00002590     0.00040504
H         0.99241737    -0.04342324    -0.61580841     0.00006427    -0.00006027    -0.00052065
H         0.85145950    -0.17344047     1.89234464    -0.00008730    -0.00034697     0.00056128
H        -0.99053790    -0.07342911     1.91779837     0.00037332    -0.00028320     0.00051635
H        -1.04043952     0.06120333    -0.62879126     0.00022878    -0.00011483    -0.00042622
     6
  Step:    40            Position(A)                                  Velocity(au)
C        -0.03813587     0.03028797    -0.14872600    -0.00001257     0.00003687    -0.00047267
N        -0.04138138    -0.05735751     1.44626079    -0.00004161     0.00002817     0.00038967
H         0.99246285    -0.04376340    -0.61857190    -0.00004602    -0.00006546    -0.00047648
H         0.85128947    -0.17540303     1.89565840     0.00002291    -0.00035740     0.00063175
H        -0.98814872    -0.07502315     1.92052779     0.00048251    -0.00029484     0.00046935
H        -1.03905250     0.06056324    -0.63109799     0.00026870    -0.00011309    -0.00040724
     6
  Step:    41            Position(A)                                  Velocity(au)
C        -0.03818934     0.03049100    -0.15131685    -0.00000854     0.00003575    -0.00044199
N        -0.04165382    -0.05719504     1.44837896    -0.00005477     0.00003077     0.00036126
H         0.99190697    -0.04414920    -0.62109278    -0.00012305    -0.00010144    -0.00045991
H         0.85171358    -0.17740427     1.89935103     0.00012754    -0.00033443     0.00070401
H        -0.98518663    -0.07669908     1.92300367     0.00057387    -0.00033538     0.00042421
H        -1.03745952     0.05994909    -0.63330774     0.00028451    -0.00008231    -0.00042170
     6
  Step:    42            Position(A)                                  Velocity(au)
C        -0.03823050     0.03068428    -0.15362571    -0.00000687     0.00003681    -0.00041324
N        -0.04198855    -0.05701641     1.45026553    -0.00007234     0.00003762     0.00034086
H         0.99109878    -0.04488796    -0.62367032    -0.00015596    -0.00015502    -0.00055215
H         0.85270333    -0.17911042     1.90346280     0.00024801    -0.00034048     0.00086006
H        -0.98178704    -0.07874104     1.92523043     0.00071548    -0.00041108     0.00043007
H        -1.03589850     0.05965075    -0.63577276     0.00027967    -0.00005485    -0.00055053
     6
  Step:    43            Position(A)                                  Velocity(au)
C        -0.03824900     0.03088664    -0.15588970     0.00000006     0.00003629    -0.00040455
N        -0.04242209    -0.05680259     1.45211674    -0.00008286     0.00003952     0.00032803
H         0.98994789    -0.04570162    -0.62660639    -0.00025754    -0.00014238    -0.00050801
H         0.85430539    -0.18107968     1.90836039     0.00032184    -0.00036583     0.00090331
H        -0.97761074    -0.08098637     1.92752150     0.00078350    -0.00040356     0.00039991
H        -1.03428083     0.05929632    -0.63877264     0.00030290    -0.00006981    -0.00053301
     6
  Step:    44            Position(A)                                  Velocity(au)
C        -0.03822980     0.03108629    -0.15810695     0.00000677     0.00003584    -0.00039634
N        -0.04290639    -0.05657869     1.45389915    -0.00009068     0.00004128     0.00031606
H         0.98824600    -0.04646514    -0.62929759    -0.00035418    -0.00013474    -0.00046475
H         0.85626838    -0.18316279     1.91346891     0.00037775    -0.00038411     0.00093613
H        -0.97310810    -0.08321137     1.92966035     0.00083333    -0.00040153     0.00037607
H        -1.03254318     0.05887743    -0.64167699     0.00032257    -0.00008036    -0.00051669
     6