|===============================================================================
|
|  DFTB+ release 20.1
|
|  Copyright (C) 2006 - 2020  DFTB+ developers group
|
|===============================================================================
|
|  When publishing results obtained with DFTB+, please cite the following
|  reference:
|
|  * DFTB+, a software package for efficient approximate density functional
|    theory based atomistic simulations, J. Chem. Phys. 152, 124101 (2020).
|    [doi: 10.1063/1.5143190]
|
|  You should also cite additional publications crediting the parametrization
|  data you use. Please consult the documentation of the SK-files for the
|  references.
|
|===============================================================================

Reading input file 'dftb_in.hsd'
Parser version: 8

--------------------------------------------------------------------------------
Reading SK-files:
Done.


Processed input in HSD format written to 'dftb_pin.hsd'

Starting initialization...
--------------------------------------------------------------------------------
OpenMP threads:              1
Chosen random seed:          503528260
Mode:                        Static calculation
Self consistent charges:     Yes
SCC-tolerance:                 0.100000E-05
Max. scc iterations:                   1000
Shell resolved Hubbard:      No
Spin polarisation:           No
Nr. of up electrons:            16.000000
Nr. of down electrons:          16.000000
Periodic boundaries:         No
Electronic solver:           Relatively robust
Maximal SCC-cycles:                    1000
Initial charges:             Set automatically (system chrg:   0.100E+01)
Included shells:             C:  s, p
                             H:  s
                             N:  s, p
Spin coupling constants:     C   1(s)-1(s):  -0.455900E-01
                             C   1(s)-2(p):  -0.293000E-01
                             C   2(p)-1(s):  -0.293000E-01
                             C   2(p)-2(p):  -0.275500E-01
                             H   1(s)-1(s):  -0.792500E-01
                             N   1(s)-1(s):  -0.468700E-01
                             N   1(s)-2(p):  -0.317000E-01
                             N   2(p)-1(s):  -0.317000E-01
                             N   2(p)-2(p):  -0.307200E-01
Range separated hybrid:      Yes
  Screening parameter omega:   0.300000E+00
  Range separated algorithm:   MatrixBased
Extra options:
                             Mulliken analysis
                             Force calculation
Force type                   original
                             Eigenvector printing


REKS Calcuation:             Yes
SSR(2,2) Calcuation:         Yes
Energy Functional:           (PPS+OSS)/2
Number of Core Orbitals:                 15
Number of Active Orbitals:                2
Number of Basis:                         32
Number of States:                         2
State-Averaging Weight:          0.500000
                                 0.500000
State of Interest:                        1
Initial Guess:               Diagonalize H0 matrix
Newton-Raphson for FON opt:  Yes
NR max. Iterations:                      50
Level Shifting:              Yes
Shift Value:                     0.300000
W Scale Factor:              C  =    3.200000
                             H  =    3.200000
                             N  =    3.200000
Transition Dipole:           No
Gradient of Microstate:      No
CP-REKS Solver:              Preconditioned Conjugate-Gradient
CG max. Iterations:                     100
CG Tolerance:                  0.100000E-07
Memory for A and Hxc:        Direct Updating Without Saving
Non-Adiabatic Coupling:      Yes

--------------------------------------------------------------------------------

***  Geometry step: 0

  iSCC       reks energy        Diff energy         x_a       SCC error   
    1      -16.3816049288       0.0000000000     0.999864    1.18869563
    2      -16.3977772626      -0.0161723338     0.999987    0.04966831
    3      -16.4018404725      -0.0040632099     0.999997    0.02189292
    4      -16.4033339270      -0.0014934545     0.999999    0.01124279
    5      -16.4040055286      -0.0006716016     0.999999    0.00712424
    6      -16.4043421278      -0.0003365991     1.000000    0.00553867
    7      -16.4045232050      -0.0001810772     1.000000    0.00426512
    8      -16.4046260159      -0.0001028109     1.000000    0.00329033
    9      -16.4046870185      -0.0000610027     1.000000    0.00255875
   10      -16.4047245684      -0.0000375498     1.000000    0.00201206
   11      -16.4047484069      -0.0000238385     1.000000    0.00160165
   12      -16.4047639462      -0.0000155393     1.000000    0.00129063
   13      -16.4047743157      -0.0000103696     1.000000    0.00105210
   14      -16.4047813881      -0.0000070724     1.000000    0.00086682
   15      -16.4047863167      -0.0000049286     1.000000    0.00072110
   16      -16.4047898288      -0.0000035121     1.000000    0.00060513
   17      -16.4047923924      -0.0000025636     1.000000    0.00051184
   18      -16.4047943135      -0.0000019210     1.000000    0.00043606
   19      -16.4047957947      -0.0000014812     1.000000    0.00037399
   20      -16.4047969719      -0.0000011773     1.000000    0.00032276
   21      -16.4047979372      -0.0000009653     1.000000    0.00028020
   22      -16.4047987534      -0.0000008162     1.000000    0.00024464
   23      -16.4047994637      -0.0000007103     1.000000    0.00021477
   24      -16.4048000981      -0.0000006344     1.000000    0.00019026
   25      -16.4048006774      -0.0000005793     1.000000    0.00017003
   26      -16.4048012164      -0.0000005390     1.000000    0.00015236
   27      -16.4048017255      -0.0000005091     1.000000    0.00013693
   28      -16.4048022121      -0.0000004866     1.000000    0.00013210
   29      -16.4048026815      -0.0000004694     1.000000    0.00012899
   30      -16.4048031374      -0.0000004560     1.000000    0.00012814
   31      -16.4048035828      -0.0000004454     1.000000    0.00012748
   32      -16.4048040197      -0.0000004368     1.000000    0.00012697
   33      -16.4048044495      -0.0000004298     1.000000    0.00012658
   34      -16.4048048733      -0.0000004239     1.000000    0.00012626
   35      -16.4048052921      -0.0000004188     1.000000    0.00012601
   36      -16.4048057065      -0.0000004144     1.000000    0.00012581
   37      -16.4048061169      -0.0000004104     1.000000    0.00012564
   38      -16.4048065238      -0.0000004069     1.000000    0.00012549
   39      -16.4048069274      -0.0000004036     1.000000    0.00012536
   40      -16.4048073280      -0.0000004006     1.000000    0.00012524
   41      -16.4048077257      -0.0000003978     1.000000    0.00012513
   42      -16.4048081208      -0.0000003951     1.000000    0.00012502
   43      -16.4048085134      -0.0000003926     1.000000    0.00012491
   44      -16.4048089036      -0.0000003902     1.000000    0.00012480
   45      -16.4048092914      -0.0000003879     1.000000    0.00012469
   46      -16.4048096771      -0.0000003856     1.000000    0.00012458
   47      -16.4048100606      -0.0000003835     1.000000    0.00012446
   48      -16.4048104420      -0.0000003814     1.000000    0.00012435
   49      -16.4048108213      -0.0000003794     1.000000    0.00012423
   50      -16.4048111988      -0.0000003774     1.000000    0.00012411
   51      -16.4048115743      -0.0000003755     1.000000    0.00012399
   52      -16.4048119480      -0.0000003737     1.000000    0.00012387
   53      -16.4048123199      -0.0000003719     1.000000    0.00012375
   54      -16.4048126900      -0.0000003701     1.000000    0.00012363
   55      -16.4048130584      -0.0000003684     1.000000    0.00012351
   56      -16.4048134252      -0.0000003668     1.000000    0.00012338
   57      -16.4048137903      -0.0000003652     1.000000    0.00012326
   58      -16.4048141539      -0.0000003636     1.000000    0.00012315
   59      -16.4048145160      -0.0000003620     1.000000    0.00012303
   60      -16.4048148765      -0.0000003605     1.000000    0.00012291
   61      -16.4048152356      -0.0000003591     1.000000    0.00012280
   62      -16.4048155933      -0.0000003577     1.000000    0.00012269
   63      -16.4048159496      -0.0000003563     1.000000    0.00012258
   64      -16.4048163045      -0.0000003550     1.000000    0.00012247
   65      -16.4048166582      -0.0000003536     1.000000    0.00012237
   66      -16.4048170106      -0.0000003524     1.000000    0.00012227
   67      -16.4048173617      -0.0000003511     1.000000    0.00012217
   68      -16.4048177117      -0.0000003499     1.000000    0.00012207
   69      -16.4048180604      -0.0000003488     1.000000    0.00012198
   70      -16.4048184081      -0.0000003477     1.000000    0.00012189
   71      -16.4048187546      -0.0000003466     1.000000    0.00012181
   72      -16.4048191001      -0.0000003455     1.000000    0.00012173
   73      -16.4048194446      -0.0000003445     1.000000    0.00012165
   74      -16.4048197881      -0.0000003435     1.000000    0.00012158
   75      -16.4048201306      -0.0000003425     1.000000    0.00012151
   76      -16.4048204722      -0.0000003416     1.000000    0.00012144
   77      -16.4048208128      -0.0000003407     1.000000    0.00012138
   78      -16.4048211526      -0.0000003398     1.000000    0.00012132
   79      -16.4048214916      -0.0000003390     1.000000    0.00012127
   80      -16.4048218297      -0.0000003381     1.000000    0.00012122
   81      -16.4048221671      -0.0000003374     1.000000    0.00012117
   82      -16.4048225037      -0.0000003366     1.000000    0.00012113
   83      -16.4048228396      -0.0000003359     1.000000    0.00012109
   84      -16.4048231748      -0.0000003352     1.000000    0.00012106
   85      -16.4048235094      -0.0000003345     1.000000    0.00012103
   86      -16.4048238433      -0.0000003339     1.000000    0.00012100
   87      -16.4048241766      -0.0000003333     1.000000    0.00012098
   88      -16.4048245093      -0.0000003327     1.000000    0.00012096
   89      -16.4048248415      -0.0000003322     1.000000    0.00012095
   90      -16.4048251732      -0.0000003317     1.000000    0.00012094
   91      -16.4048255044      -0.0000003312     1.000000    0.00012093
   92      -16.4048258351      -0.0000003307     1.000000    0.00012093
   93      -16.4048261653      -0.0000003303     1.000000    0.00012093
   94      -16.4048264952      -0.0000003299     1.000000    0.00012094
   95      -16.4048268247      -0.0000003295     1.000000    0.00012095
   96      -16.4048271538      -0.0000003291     1.000000    0.00012096
   97      -16.4048274826      -0.0000003288     1.000000    0.00012098
   98      -16.4048278111      -0.0000003285     1.000000    0.00012100
   99      -16.4048281394      -0.0000003282     1.000000    0.00012103
  100      -16.4048284673      -0.0000003280     1.000000    0.00012106
  101      -16.4048287951      -0.0000003278     1.000000    0.00012110
  102      -16.4048291226      -0.0000003276     1.000000    0.00012113
  103      -16.4048294500      -0.0000003274     1.000000    0.00012118
  104      -16.4048297773      -0.0000003272     1.000000    0.00012122
  105      -16.4048301044      -0.0000003271     1.000000    0.00012127
  106      -16.4048304314      -0.0000003270     1.000000    0.00012133
  107      -16.4048307584      -0.0000003270     1.000000    0.00012139
  108      -16.4048310853      -0.0000003269     1.000000    0.00012145
  109      -16.4048314122      -0.0000003269     1.000000    0.00012152
  110      -16.4048317391      -0.0000003269     1.000000    0.00012159
  111      -16.4048320660      -0.0000003269     1.000000    0.00012166
  112      -16.4048323930      -0.0000003270     1.000000    0.00012174
  113      -16.4048327200      -0.0000003271     1.000000    0.00012182
  114      -16.4048330472      -0.0000003272     1.000000    0.00012191
  115      -16.4048333745      -0.0000003273     1.000000    0.00012200
  116      -16.4048337020      -0.0000003275     1.000000    0.00012209
  117      -16.4048340296      -0.0000003276     1.000000    0.00012219
  118      -16.4048343575      -0.0000003279     1.000000    0.00012229
  119      -16.4048346856      -0.0000003281     1.000000    0.00012240
  120      -16.4048350139      -0.0000003283     1.000000    0.00012251
  121      -16.4048353425      -0.0000003286     1.000000    0.00012263
  122      -16.4048356715      -0.0000003289     1.000000    0.00012274
  123      -16.4048360007      -0.0000003293     1.000000    0.00012287
  124      -16.4048363303      -0.0000003296     1.000000    0.00012299
  125      -16.4048366603      -0.0000003300     1.000000    0.00012312
  126      -16.4048369907      -0.0000003304     1.000000    0.00012326
  127      -16.4048373215      -0.0000003308     1.000000    0.00012340
  128      -16.4048376528      -0.0000003313     1.000000    0.00012354
  129      -16.4048379846      -0.0000003318     1.000000    0.00012368
  130      -16.4048383168      -0.0000003323     1.000000    0.00012383
  131      -16.4048386496      -0.0000003328     1.000000    0.00012399
  132      -16.4048389829      -0.0000003333     1.000000    0.00012415
  133      -16.4048393168      -0.0000003339     1.000000    0.00012431
  134      -16.4048396514      -0.0000003345     1.000000    0.00012448
  135      -16.4048399865      -0.0000003351     1.000000    0.00012465
  136      -16.4048403223      -0.0000003358     1.000000    0.00012482
  137      -16.4048406588      -0.0000003365     1.000000    0.00012500
  138      -16.4048409960      -0.0000003372     1.000000    0.00012518
  139      -16.4048413339      -0.0000003379     1.000000    0.00012537
  140      -16.4048416726      -0.0000003387     1.000000    0.00012556
  141      -16.4048420120      -0.0000003394     1.000000    0.00012577
  142      -16.4048423523      -0.0000003403     1.000000    0.00012614
  143      -16.4048426933      -0.0000003411     1.000000    0.00012651
  144      -16.4048430353      -0.0000003419     1.000000    0.00012689
  145      -16.4048433781      -0.0000003428     1.000000    0.00012727
  146      -16.4048437218      -0.0000003437     1.000000    0.00012766
  147      -16.4048440665      -0.0000003447     1.000000    0.00012805
  148      -16.4048444121      -0.0000003456     1.000000    0.00012844
  149      -16.4048447587      -0.0000003466     1.000000    0.00012885
  150      -16.4048451064      -0.0000003476     1.000000    0.00012925
  151      -16.4048454550      -0.0000003487     1.000000    0.00012966
  152      -16.4048458048      -0.0000003497     1.000000    0.00013008
  153      -16.4048461556      -0.0000003508     1.000000    0.00013050
  154      -16.4048465076      -0.0000003520     1.000000    0.00013092
  155      -16.4048468607      -0.0000003531     1.000000    0.00013135
  156      -16.4048472149      -0.0000003543     1.000000    0.00013179
  157      -16.4048475704      -0.0000003555     1.000000    0.00013223
  158      -16.4048479271      -0.0000003567     1.000000    0.00013267
  159      -16.4048482851      -0.0000003580     1.000000    0.00013312
  160      -16.4048486444      -0.0000003593     1.000000    0.00013358
  161      -16.4048490049      -0.0000003606     1.000000    0.00013404
  162      -16.4048493668      -0.0000003619     1.000000    0.00013451
  163      -16.4048497301      -0.0000003633     1.000000    0.00013498
  164      -16.4048500948      -0.0000003647     1.000000    0.00013545
  165      -16.4048504609      -0.0000003661     1.000000    0.00013594
  166      -16.4048508285      -0.0000003676     1.000000    0.00013642
  167      -16.4048511976      -0.0000003691     1.000000    0.00013692
  168      -16.4048515682      -0.0000003706     1.000000    0.00013741
  169      -16.4048519403      -0.0000003721     1.000000    0.00013792
  170      -16.4048523140      -0.0000003737     1.000000    0.00013843
  171      -16.4048526893      -0.0000003753     1.000000    0.00013894
  172      -16.4048530663      -0.0000003770     1.000000    0.00013946
  173      -16.4048534449      -0.0000003786     1.000000    0.00013999
  174      -16.4048538252      -0.0000003803     1.000000    0.00014052
  175      -16.4048542073      -0.0000003821     1.000000    0.00014105
  176      -16.4048545911      -0.0000003838     1.000000    0.00014160
  177      -16.4048549767      -0.0000003856     1.000000    0.00014214
  178      -16.4048553641      -0.0000003874     1.000000    0.00014270
  179      -16.4048557534      -0.0000003893     1.000000    0.00014326
  180      -16.4048561446      -0.0000003912     1.000000    0.00014382
  181      -16.4048565377      -0.0000003931     1.000000    0.00014439
  182      -16.4048569328      -0.0000003951     1.000000    0.00014497
  183      -16.4048573299      -0.0000003971     1.000000    0.00014555
  184      -16.4048577289      -0.0000003991     1.000000    0.00014614
  185      -16.4048581301      -0.0000004011     1.000000    0.00014674
  186      -16.4048585333      -0.0000004032     1.000000    0.00014734
  187      -16.4048589387      -0.0000004054     1.000000    0.00014795
  188      -16.4048593462      -0.0000004075     1.000000    0.00014856
  189      -16.4048597559      -0.0000004097     1.000000    0.00014918
  190      -16.4048601678      -0.0000004119     1.000000    0.00014980
  191      -16.4048605820      -0.0000004142     1.000000    0.00015043
  192      -16.4048609985      -0.0000004165     1.000000    0.00015107
  193      -16.4048614174      -0.0000004188     1.000000    0.00015171
  194      -16.4048618386      -0.0000004212     1.000000    0.00015236
  195      -16.4048622623      -0.0000004236     1.000000    0.00015302
  196      -16.4048626883      -0.0000004261     1.000000    0.00015368
  197      -16.4048631169      -0.0000004286     1.000000    0.00015435
  198      -16.4048635480      -0.0000004311     1.000000    0.00015503
  199      -16.4048639817      -0.0000004337     1.000000    0.00015571
  200      -16.4048644179      -0.0000004363     1.000000    0.00015640
  201      -16.4048648568      -0.0000004389     1.000000    0.00015709
  202      -16.4048652984      -0.0000004416     1.000000    0.00015779
  203      -16.4048657427      -0.0000004443     1.000000    0.00015850
  204      -16.4048661898      -0.0000004471     1.000000    0.00015922
  205      -16.4048666397      -0.0000004499     1.000000    0.00015994
  206      -16.4048670924      -0.0000004527     1.000000    0.00016066
  207      -16.4048675480      -0.0000004556     1.000000    0.00016140
  208      -16.4048680065      -0.0000004585     1.000000    0.00016214
  209      -16.4048684680      -0.0000004615     1.000000    0.00016289
  210      -16.4048689325      -0.0000004645     1.000000    0.00016364
  211      -16.4048694000      -0.0000004675     1.000000    0.00016440
  212      -16.4048698706      -0.0000004706     1.000000    0.00016517
  213      -16.4048703444      -0.0000004738     1.000000    0.00016594
  214      -16.4048708214      -0.0000004770     1.000000    0.00016672
  215      -16.4048713015      -0.0000004802     1.000000    0.00016751
  216      -16.4048717850      -0.0000004835     1.000000    0.00016831
  217      -16.4048722718      -0.0000004868     1.000000    0.00016911
  218      -16.4048727619      -0.0000004901     1.000000    0.00016992
  219      -16.4048732554      -0.0000004935     1.000000    0.00017073
  220      -16.4048737524      -0.0000004970     1.000000    0.00017156
  221      -16.4048742529      -0.0000005005     1.000000    0.00017239
  222      -16.4048747569      -0.0000005040     1.000000    0.00017322
  223      -16.4048752646      -0.0000005076     1.000000    0.00017407
  224      -16.4048757758      -0.0000005113     1.000000    0.00017492
  225      -16.4048762908      -0.0000005150     1.000000    0.00017578
  226      -16.4048768095      -0.0000005187     1.000000    0.00017664
  227      -16.4048773320      -0.0000005225     1.000000    0.00017751
  228      -16.4048778583      -0.0000005263     1.000000    0.00017839
  229      -16.4048783885      -0.0000005302     1.000000    0.00017928
  230      -16.4048789227      -0.0000005342     1.000000    0.00018017
  231      -16.4048794609      -0.0000005381     1.000000    0.00018107
  232      -16.4048800030      -0.0000005422     1.000000    0.00018198
  233      -16.4048805493      -0.0000005463     1.000000    0.00018289
  234      -16.4048810998      -0.0000005504     1.000000    0.00018382
  235      -16.4048816544      -0.0000005546     1.000000    0.00018474
  236      -16.4048822133      -0.0000005589     1.000000    0.00018568
  237      -16.4048827764      -0.0000005632     1.000000    0.00018662
  238      -16.4048833440      -0.0000005675     1.000000    0.00018757
  239      -16.4048839159      -0.0000005720     1.000000    0.00018853
  240      -16.4048844924      -0.0000005764     1.000000    0.00018950
  241      -16.4048850733      -0.0000005809     1.000000    0.00019047
  242      -16.4048856588      -0.0000005855     1.000000    0.00019145
  243      -16.4048862490      -0.0000005902     1.000000    0.00019243
  244      -16.4048868438      -0.0000005948     1.000000    0.00019343
  245      -16.4048874434      -0.0000005996     1.000000    0.00019443
  246      -16.4048880478      -0.0000006044     1.000000    0.00019543
  247      -16.4048886570      -0.0000006093     1.000000    0.00019645
  248      -16.4048892712      -0.0000006142     1.000000    0.00019747
  249      -16.4048898904      -0.0000006191     1.000000    0.00019850
  250      -16.4048905145      -0.0000006242     1.000000    0.00019953
  251      -16.4048911438      -0.0000006293     1.000000    0.00020058
  252      -16.4048917783      -0.0000006344     1.000000    0.00020163
  253      -16.4048924179      -0.0000006396     1.000000    0.00020268
  254      -16.4048930628      -0.0000006449     1.000000    0.00020375
  255      -16.4048937131      -0.0000006503     1.000000    0.00020482
  256      -16.4048943687      -0.0000006556     1.000000    0.00020589
  257      -16.4048950298      -0.0000006611     1.000000    0.00020698
  258      -16.4048956964      -0.0000006666     1.000000    0.00020807
  259      -16.4048963686      -0.0000006722     1.000000    0.00020916
  260      -16.4048970465      -0.0000006778     1.000000    0.00021027
  261      -16.4048977300      -0.0000006835     1.000000    0.00021138
  262      -16.4048984193      -0.0000006893     1.000000    0.00021250
  263      -16.4048991144      -0.0000006951     1.000000    0.00021362
  264      -16.4048998155      -0.0000007010     1.000000    0.00021475
  265      -16.4049005224      -0.0000007070     1.000000    0.00021589
  266      -16.4049012354      -0.0000007130     1.000000    0.00021703
  267      -16.4049019545      -0.0000007191     1.000000    0.00021818
  268      -16.4049026797      -0.0000007252     1.000000    0.00021933
  269      -16.4049034112      -0.0000007314     1.000000    0.00022050
  270      -16.4049041489      -0.0000007377     1.000000    0.00022166
  271      -16.4049048929      -0.0000007440     1.000000    0.00022284
  272      -16.4049056434      -0.0000007505     1.000000    0.00022402
  273      -16.4049064003      -0.0000007569     1.000000    0.00022520
  274      -16.4049071638      -0.0000007635     1.000000    0.00022639
  275      -16.4049079338      -0.0000007701     1.000000    0.00022759
  276      -16.4049087105      -0.0000007767     1.000000    0.00022879
  277      -16.4049094940      -0.0000007834     1.000000    0.00023000
  278      -16.4049102842      -0.0000007902     1.000000    0.00023122
  279      -16.4049110813      -0.0000007971     1.000000    0.00023243
  280      -16.4049118854      -0.0000008040     1.000000    0.00023366
  281      -16.4049126964      -0.0000008110     1.000000    0.00023489
  282      -16.4049135145      -0.0000008181     1.000000    0.00023612
  283      -16.4049143397      -0.0000008252     1.000000    0.00023736
  284      -16.4049151720      -0.0000008324     1.000000    0.00023860
  285      -16.4049160117      -0.0000008396     1.000000    0.00023985
  286      -16.4049168586      -0.0000008469     1.000000    0.00024110
  287      -16.4049177129      -0.0000008543     1.000000    0.00024236
  288      -16.4049185747      -0.0000008618     1.000000    0.00024362
  289      -16.4049194440      -0.0000008693     1.000000    0.00024489
  290      -16.4049203209      -0.0000008769     1.000000    0.00024616
  291      -16.4049212054      -0.0000008845     1.000000    0.00024743
  292      -16.4049220976      -0.0000008922     1.000000    0.00024871
  293      -16.4049229975      -0.0000009000     1.000000    0.00024999
  294      -16.4049239053      -0.0000009078     1.000000    0.00025127
  295      -16.4049248210      -0.0000009157     1.000000    0.00025255
  296      -16.4049257447      -0.0000009236     1.000000    0.00025384
  297      -16.4049266763      -0.0000009317     1.000000    0.00025514
  298      -16.4049276160      -0.0000009397     1.000000    0.00025643
  299      -16.4049285639      -0.0000009479     1.000000    0.00025773
  300      -16.4049295200      -0.0000009561     1.000000    0.00025903
  301      -16.4049304843      -0.0000009643     1.000000    0.00026033
  302      -16.4049314570      -0.0000009727     1.000000    0.00026163
  303      -16.4049324380      -0.0000009810     1.000000    0.00026294
  304      -16.4049334275      -0.0000009895     1.000000    0.00026424
  305      -16.4049344254      -0.0000009980     1.000000    0.00026555
  306      -16.4049354320      -0.0000010065     1.000000    0.00026686
  307      -16.4049364471      -0.0000010151     1.000000    0.00026817
  308      -16.4049374709      -0.0000010238     1.000000    0.00026948
  309      -16.4049385034      -0.0000010325     1.000000    0.00027079
  310      -16.4049395446      -0.0000010413     1.000000    0.00027210
  311      -16.4049405947      -0.0000010501     1.000000    0.00027341
  312      -16.4049416537      -0.0000010590     1.000000    0.00027472
  313      -16.4049427216      -0.0000010679     1.000000    0.00027603
  314      -16.4049437985      -0.0000010769     1.000000    0.00027734
  315      -16.4049448844      -0.0000010859     1.000000    0.00027865
  316      -16.4049459794      -0.0000010950     1.000000    0.00027996
  317      -16.4049470835      -0.0000011041     1.000000    0.00028126
  318      -16.4049481968      -0.0000011133     1.000000    0.00028257
  319      -16.4049493193      -0.0000011225     1.000000    0.00028387
  320      -16.4049504510      -0.0000011318     1.000000    0.00028517
  321      -16.4049515921      -0.0000011411     1.000000    0.00028646
  322      -16.4049527425      -0.0000011504     1.000000    0.00028776
  323      -16.4049539023      -0.0000011598     1.000000    0.00028905
  324      -16.4049550715      -0.0000011692     1.000000    0.00029034
  325      -16.4049562501      -0.0000011787     1.000000    0.00029162
  326      -16.4049574383      -0.0000011882     1.000000    0.00029290
  327      -16.4049586360      -0.0000011977     1.000000    0.00029418
  328      -16.4049598432      -0.0000012073     1.000000    0.00029545
  329      -16.4049610601      -0.0000012168     1.000000    0.00029672
  330      -16.4049622866      -0.0000012265     1.000000    0.00029798
  331      -16.4049635227      -0.0000012361     1.000000    0.00029924
  332      -16.4049647685      -0.0000012458     1.000000    0.00030049
  333      -16.4049660240      -0.0000012555     1.000000    0.00030174
  334      -16.4049672893      -0.0000012653     1.000000    0.00030298
  335      -16.4049685643      -0.0000012750     1.000000    0.00030421
  336      -16.4049698491      -0.0000012848     1.000000    0.00030544
  337      -16.4049711437      -0.0000012946     1.000000    0.00030666
  338      -16.4049724480      -0.0000013044     1.000000    0.00030787
  339      -16.4049737623      -0.0000013142     1.000000    0.00030907
  340      -16.4049750863      -0.0000013241     1.000000    0.00031027
  341      -16.4049764202      -0.0000013339     1.000000    0.00031146
  342      -16.4049777640      -0.0000013438     1.000000    0.00031264
  343      -16.4049791177      -0.0000013537     1.000000    0.00031381
  344      -16.4049804812      -0.0000013635     1.000000    0.00031497
  345      -16.4049818546      -0.0000013734     1.000000    0.00031612
  346      -16.4049832379      -0.0000013833     1.000000    0.00031727
  347      -16.4049846311      -0.0000013932     1.000000    0.00031840
  348      -16.4049860342      -0.0000014031     1.000000    0.00031952
  349      -16.4049874472      -0.0000014130     1.000000    0.00032064
  350      -16.4049888700      -0.0000014228     1.000000    0.00032174
  351      -16.4049903027      -0.0000014327     1.000000    0.00032283
  352      -16.4049917453      -0.0000014426     1.000000    0.00032391
  353      -16.4049931978      -0.0000014524     1.000000    0.00032497
  354      -16.4049946601      -0.0000014623     1.000000    0.00032603
  355      -16.4049961322      -0.0000014721     1.000000    0.00032707
  356      -16.4049976141      -0.0000014819     1.000000    0.00032810
  357      -16.4049991058      -0.0000014917     1.000000    0.00032912
  358      -16.4050006073      -0.0000015015     1.000000    0.00033012
  359      -16.4050021186      -0.0000015112     1.000000    0.00033112
  360      -16.4050036395      -0.0000015210     1.000000    0.00033209
  361      -16.4050051702      -0.0000015307     1.000000    0.00033306
  362      -16.4050067106      -0.0000015403     1.000000    0.00033401
  363      -16.4050082606      -0.0000015500     1.000000    0.00033494
  364      -16.4050098202      -0.0000015596     1.000000    0.00033586
  365      -16.4050113893      -0.0000015692     1.000000    0.00033677
  366      -16.4050129681      -0.0000015787     1.000000    0.00033766
  367      -16.4050145563      -0.0000015882     1.000000    0.00033853
  368      -16.4050161540      -0.0000015977     1.000000    0.00033939
  369      -16.4050177611      -0.0000016071     1.000000    0.00034024
  370      -16.4050193775      -0.0000016165     1.000000    0.00034107
  371      -16.4050210034      -0.0000016258     1.000000    0.00034188
  372      -16.4050226385      -0.0000016351     1.000000    0.00034267
  373      -16.4050242828      -0.0000016443     1.000000    0.00034345
  374      -16.4050259364      -0.0000016535     1.000000    0.00034421
  375      -16.4050275990      -0.0000016627     1.000000    0.00034496
  376      -16.4050292708      -0.0000016718     1.000000    0.00034568
  377      -16.4050309516      -0.0000016808     1.000000    0.00034639
  378      -16.4050326413      -0.0000016898     1.000000    0.00034709
  379      -16.4050343400      -0.0000016987     1.000000    0.00034776
  380      -16.4050360476      -0.0000017075     1.000000    0.00034842
  381      -16.4050377639      -0.0000017163     1.000000    0.00034905
  382      -16.4050394889      -0.0000017251     1.000000    0.00034967
  383      -16.4050412226      -0.0000017337     1.000000    0.00035028
  384      -16.4050429650      -0.0000017423     1.000000    0.00035086
  385      -16.4050447158      -0.0000017509     1.000000    0.00035143
  386      -16.4050464751      -0.0000017593     1.000000    0.00035197
  387      -16.4050482428      -0.0000017677     1.000000    0.00035250
  388      -16.4050500189      -0.0000017760     1.000000    0.00035301
  389      -16.4050518032      -0.0000017843     1.000000    0.00035350
  390      -16.4050535957      -0.0000017925     1.000000    0.00035397
  391      -16.4050553962      -0.0000018006     1.000000    0.00035442
  392      -16.4050572049      -0.0000018086     1.000000    0.00035485
  393      -16.4050590214      -0.0000018166     1.000000    0.00035526
  394      -16.4050608459      -0.0000018245     1.000000    0.00035566
  395      -16.4050626781      -0.0000018323     1.000000    0.00035603
  396      -16.4050645181      -0.0000018400     1.000000    0.00035638
  397      -16.4050663658      -0.0000018476     1.000000    0.00035672
  398      -16.4050682210      -0.0000018552     1.000000    0.00035703
  399      -16.4050700837      -0.0000018627     1.000000    0.00035733
  400      -16.4050719537      -0.0000018701     1.000000    0.00035761
  401      -16.4050738312      -0.0000018774     1.000000    0.00035786
  402      -16.4050757158      -0.0000018847     1.000000    0.00035810
  403      -16.4050776077      -0.0000018918     1.000000    0.00035832
  404      -16.4050795066      -0.0000018989     1.000000    0.00035852
  405      -16.4050814125      -0.0000019059     1.000000    0.00035870
  406      -16.4050833253      -0.0000019128     1.000000    0.00035886
  407      -16.4050852449      -0.0000019196     1.000000    0.00035900
  408      -16.4050871713      -0.0000019264     1.000000    0.00035912
  409      -16.4050891043      -0.0000019330     1.000000    0.00035922
  410      -16.4050910440      -0.0000019396     1.000000    0.00035930
  411      -16.4050929901      -0.0000019461     1.000000    0.00035936
  412      -16.4050949426      -0.0000019525     1.000000    0.00035941
  413      -16.4050969015      -0.0000019589     1.000000    0.00035943
  414      -16.4050988666      -0.0000019651     1.000000    0.00035944
  415      -16.4051008378      -0.0000019713     1.000000    0.00035942
  416      -16.4051028152      -0.0000019773     1.000000    0.00035939
  417      -16.4051047985      -0.0000019833     1.000000    0.00035934
  418      -16.4051067878      -0.0000019892     1.000000    0.00035927
  419      -16.4051087828      -0.0000019951     1.000000    0.00035918
  420      -16.4051107837      -0.0000020008     1.000000    0.00035908
  421      -16.4051127901      -0.0000020065     1.000000    0.00035895
  422      -16.4051148022      -0.0000020121     1.000000    0.00035881
  423      -16.4051168198      -0.0000020176     1.000000    0.00035865
  424      -16.4051188428      -0.0000020230     1.000000    0.00035847
  425      -16.4051208712      -0.0000020284     1.000000    0.00035828
  426      -16.4051229048      -0.0000020336     1.000000    0.00035826
  427      -16.4051249436      -0.0000020388     1.000000    0.00036020
  428      -16.4051269876      -0.0000020439     1.000000    0.00036213
  429      -16.4051290365      -0.0000020490     1.000000    0.00036404
  430      -16.4051310905      -0.0000020539     1.000000    0.00036594
  431      -16.4051331493      -0.0000020588     1.000000    0.00036783
  432      -16.4051352130      -0.0000020636     1.000000    0.00036970
  433      -16.4051372813      -0.0000020684     1.000000    0.00037156
  434      -16.4051393544      -0.0000020731     1.000000    0.00037341
  435      -16.4051414320      -0.0000020776     1.000000    0.00037525
  436      -16.4051435142      -0.0000020822     1.000000    0.00037707
  437      -16.4051456008      -0.0000020866     1.000000    0.00037888
  438      -16.4051476919      -0.0000020910     1.000000    0.00038067
  439      -16.4051497872      -0.0000020953     1.000000    0.00038246
  440      -16.4051518868      -0.0000020996     1.000000    0.00038423
  441      -16.4051539906      -0.0000021038     1.000000    0.00038598
  442      -16.4051560985      -0.0000021079     1.000000    0.00038772
  443      -16.4051582105      -0.0000021120     1.000000    0.00038945
  444      -16.4051603265      -0.0000021160     1.000000    0.00039117
  445      -16.4051624464      -0.0000021199     1.000000    0.00039287
  446      -16.4051645702      -0.0000021238     1.000000    0.00039456
  447      -16.4051666978      -0.0000021276     1.000000    0.00039623
  448      -16.4051688291      -0.0000021314     1.000000    0.00039789
  449      -16.4051709642      -0.0000021351     1.000000    0.00039954
  450      -16.4051731029      -0.0000021387     1.000000    0.00040118
  451      -16.4051752452      -0.0000021423     1.000000    0.00040280
  452      -16.4051773911      -0.0000021458     1.000000    0.00040440
  453      -16.4051795404      -0.0000021493     1.000000    0.00040600
  454      -16.4051816932      -0.0000021528     1.000000    0.00040758
  455      -16.4051838493      -0.0000021561     1.000000    0.00040914
  456      -16.4051860088      -0.0000021595     1.000000    0.00041069
  457      -16.4051881716      -0.0000021628     1.000000    0.00041223
  458      -16.4051903376      -0.0000021660     1.000000    0.00041376
  459      -16.4051925067      -0.0000021692     1.000000    0.00041527
  460      -16.4051946791      -0.0000021723     1.000000    0.00041677
  461      -16.4051968545      -0.0000021754     1.000000    0.00041825
  462      -16.4051990329      -0.0000021785     1.000000    0.00041972
  463      -16.4052012144      -0.0000021815     1.000000    0.00042118
  464      -16.4052033989      -0.0000021844     1.000000    0.00042263
  465      -16.4052055863      -0.0000021874     1.000000    0.00042406
  466      -16.4052077765      -0.0000021903     1.000000    0.00042547
  467      -16.4052099696      -0.0000021931     1.000000    0.00042688
  468      -16.4052121655      -0.0000021959     1.000000    0.00042827
  469      -16.4052143642      -0.0000021987     1.000000    0.00042965
  470      -16.4052165656      -0.0000022014     1.000000    0.00043101
  471      -16.4052187697      -0.0000022041     1.000000    0.00043236
  472      -16.4052209765      -0.0000022068     1.000000    0.00043370
  473      -16.4052231859      -0.0000022094     1.000000    0.00043502
  474      -16.4052253979      -0.0000022120     1.000000    0.00043633
  475      -16.4052276124      -0.0000022145     1.000000    0.00043763
  476      -16.4052298295      -0.0000022171     1.000000    0.00043891
  477      -16.4052320490      -0.0000022196     1.000000    0.00044019
  478      -16.4052342710      -0.0000022220     1.000000    0.00044144
  479      -16.4052364955      -0.0000022244     1.000000    0.00044269
  480      -16.4052387223      -0.0000022268     1.000000    0.00044392
  481      -16.4052409515      -0.0000022292     1.000000    0.00044514
  482      -16.4052431830      -0.0000022315     1.000000    0.00044635
  483      -16.4052454168      -0.0000022338     1.000000    0.00044754
  484      -16.4052476529      -0.0000022361     1.000000    0.00044872
  485      -16.4052498913      -0.0000022383     1.000000    0.00044989
  486      -16.4052521319      -0.0000022406     1.000000    0.00045104
  487      -16.4052543746      -0.0000022427     1.000000    0.00045218
  488      -16.4052566195      -0.0000022449     1.000000    0.00045331
  489      -16.4052588665      -0.0000022470     1.000000    0.00045442
  490      -16.4052611157      -0.0000022491     1.000000    0.00045552
  491      -16.4052633668      -0.0000022512     1.000000    0.00045661
  492      -16.4052656201      -0.0000022532     1.000000    0.00045769
  493      -16.4052678753      -0.0000022552     1.000000    0.00045875
  494      -16.4052701326      -0.0000022572     1.000000    0.00045980
  495      -16.4052723917      -0.0000022592     1.000000    0.00046083
  496      -16.4052746528      -0.0000022611     1.000000    0.00046186
  497      -16.4052769158      -0.0000022630     1.000000    0.00046286
  498      -16.4052791807      -0.0000022649     1.000000    0.00046386
  499      -16.4052814474      -0.0000022667     1.000000    0.00046484
  500      -16.4052837159      -0.0000022685     1.000000    0.00046581
  501      -16.4052859861      -0.0000022703     1.000000    0.00046677
  502      -16.4052882581      -0.0000022720     1.000000    0.00046771
  503      -16.4052905318      -0.0000022737     1.000000    0.00046864
  504      -16.4052928072      -0.0000022754     1.000000    0.00046955
  505      -16.4052950842      -0.0000022770     1.000000    0.00047045
  506      -16.4052973628      -0.0000022786     1.000000    0.00047134
  507      -16.4052996430      -0.0000022802     1.000000    0.00047221
  508      -16.4053019247      -0.0000022817     1.000000    0.00047307
  509      -16.4053042079      -0.0000022832     1.000000    0.00047392
  510      -16.4053064925      -0.0000022847     1.000000    0.00047475
  511      -16.4053087786      -0.0000022861     1.000000    0.00047557
  512      -16.4053110660      -0.0000022874     1.000000    0.00047637
  513      -16.4053133548      -0.0000022888     1.000000    0.00047716
  514      -16.4053156449      -0.0000022901     1.000000    0.00047793
  515      -16.4053179362      -0.0000022913     1.000000    0.00047869
  516      -16.4053202287      -0.0000022925     1.000000    0.00047943
  517      -16.4053225224      -0.0000022937     1.000000    0.00048016
  518      -16.4053248172      -0.0000022948     1.000000    0.00048088
  519      -16.4053271131      -0.0000022959     1.000000    0.00048157
  520      -16.4053294100      -0.0000022969     1.000000    0.00048226
  521      -16.4053317078      -0.0000022978     1.000000    0.00048292
  522      -16.4053340066      -0.0000022987     1.000000    0.00048358
  523      -16.4053363062      -0.0000022996     1.000000    0.00048421
  524      -16.4053386066      -0.0000023004     1.000000    0.00048483
  525      -16.4053409077      -0.0000023011     1.000000    0.00048544
  526      -16.4053432095      -0.0000023018     1.000000    0.00048602
  527      -16.4053455120      -0.0000023024     1.000000    0.00048659
  528      -16.4053478150      -0.0000023030     1.000000    0.00048715
  529      -16.4053501185      -0.0000023035     1.000000    0.00048769
  530      -16.4053524224      -0.0000023039     1.000000    0.00048821
  531      -16.4053547267      -0.0000023043     1.000000    0.00048871
  532      -16.4053570312      -0.0000023046     1.000000    0.00048919
  533      -16.4053593360      -0.0000023048     1.000000    0.00048966
  534      -16.4053616409      -0.0000023049     1.000000    0.00049011
  535      -16.4053639459      -0.0000023050     1.000000    0.00049054
  536      -16.4053662508      -0.0000023050     1.000000    0.00049095
  537      -16.4053685557      -0.0000023049     1.000000    0.00049135
  538      -16.4053708604      -0.0000023047     1.000000    0.00049172
  539      -16.4053731648      -0.0000023044     1.000000    0.00049208
  540      -16.4053754688      -0.0000023041     1.000000    0.00049242
  541      -16.4053777724      -0.0000023036     1.000000    0.00049273
  542      -16.4053800755      -0.0000023031     1.000000    0.00049303
  543      -16.4053823779      -0.0000023024     1.000000    0.00049331
  544      -16.4053846797      -0.0000023017     1.000000    0.00049357
  545      -16.4053869805      -0.0000023009     1.000000    0.00049380
  546      -16.4053892805      -0.0000023000     1.000000    0.00049402
  547      -16.4053915794      -0.0000022989     1.000000    0.00049422
  548      -16.4053938772      -0.0000022978     1.000000    0.00049439
  549      -16.4053961737      -0.0000022965     1.000000    0.00049454
  550      -16.4053984689      -0.0000022952     1.000000    0.00049467
  551      -16.4054007625      -0.0000022937     1.000000    0.00049478
  552      -16.4054030546      -0.0000022921     1.000000    0.00049487
  553      -16.4054053450      -0.0000022904     1.000000    0.00049493
  554      -16.4054076336      -0.0000022885     1.000000    0.00049497
  555      -16.4054099201      -0.0000022866     1.000000    0.00049499
  556      -16.4054122046      -0.0000022845     1.000000    0.00049498
  557      -16.4054144869      -0.0000022823     1.000000    0.00049496
  558      -16.4054167669      -0.0000022799     1.000000    0.00049490
  559      -16.4054190443      -0.0000022775     1.000000    0.00049482
  560      -16.4054213192      -0.0000022748     1.000000    0.00049472
  561      -16.4054235912      -0.0000022721     1.000000    0.00049460
  562      -16.4054258604      -0.0000022692     1.000000    0.00049445
  563      -16.4054281266      -0.0000022661     1.000000    0.00049427
  564      -16.4054303895      -0.0000022630     1.000000    0.00049407
  565      -16.4054326491      -0.0000022596     1.000000    0.00049384
  566      -16.4054349053      -0.0000022561     1.000000    0.00049359
  567      -16.4054371577      -0.0000022525     1.000000    0.00049331
  568      -16.4054394064      -0.0000022487     1.000000    0.00049300
  569      -16.4054416511      -0.0000022447     1.000000    0.00049267
  570      -16.4054438917      -0.0000022406     1.000000    0.00049231
  571      -16.4054461281      -0.0000022363     1.000000    0.00049192
  572      -16.4054483599      -0.0000022319     1.000000    0.00049151
  573      -16.4054505872      -0.0000022273     1.000000    0.00049106
  574      -16.4054528097      -0.0000022225     1.000000    0.00049060
  575      -16.4054550272      -0.0000022175     1.000000    0.00049010
  576      -16.4054572396      -0.0000022124     1.000000    0.00048957
  577      -16.4054594467      -0.0000022071     1.000000    0.00048902
  578      -16.4054616483      -0.0000022016     1.000000    0.00048843
  579      -16.4054638443      -0.0000021960     1.000000    0.00048782
  580      -16.4054660345      -0.0000021901     1.000000    0.00048718
  581      -16.4054682186      -0.0000021841     1.000000    0.00048651
  582      -16.4054703965      -0.0000021779     1.000000    0.00048581
  583      -16.4054725681      -0.0000021715     1.000000    0.00048508
  584      -16.4054747330      -0.0000021650     1.000000    0.00048432
  585      -16.4054768912      -0.0000021582     1.000000    0.00048353
  586      -16.4054790425      -0.0000021513     1.000000    0.00048272
  587      -16.4054811867      -0.0000021441     1.000000    0.00048187
  588      -16.4054833235      -0.0000021368     1.000000    0.00048099
  589      -16.4054854528      -0.0000021293     1.000000    0.00048008
  590      -16.4054875744      -0.0000021216     1.000000    0.00047914
  591      -16.4054896881      -0.0000021137     1.000000    0.00047817
  592      -16.4054917938      -0.0000021056     1.000000    0.00047717
  593      -16.4054938911      -0.0000020973     1.000000    0.00047614
  594      -16.4054959800      -0.0000020889     1.000000    0.00047508
  595      -16.4054980602      -0.0000020802     1.000000    0.00047398
  596      -16.4055001315      -0.0000020713     1.000000    0.00047286
  597      -16.4055021938      -0.0000020623     1.000000    0.00047170
  598      -16.4055042469      -0.0000020530     1.000000    0.00047052
  599      -16.4055062905      -0.0000020436     1.000000    0.00046930
  600      -16.4055083245      -0.0000020340     1.000000    0.00046806
  601      -16.4055103486      -0.0000020242     1.000000    0.00046678
  602      -16.4055123628      -0.0000020141     1.000000    0.00046547
  603      -16.4055143667      -0.0000020039     1.000000    0.00046413
  604      -16.4055163602      -0.0000019935     1.000000    0.00046276
  605      -16.4055183432      -0.0000019830     1.000000    0.00046136
  606      -16.4055203154      -0.0000019722     1.000000    0.00045993
  607      -16.4055222766      -0.0000019612     1.000000    0.00045847
  608      -16.4055242267      -0.0000019501     1.000000    0.00045698
  609      -16.4055261655      -0.0000019388     1.000000    0.00045546
  610      -16.4055280928      -0.0000019273     1.000000    0.00045391
  611      -16.4055300083      -0.0000019156     1.000000    0.00045233
  612      -16.4055319121      -0.0000019037     1.000000    0.00045072
  613      -16.4055338038      -0.0000018917     1.000000    0.00044908
  614      -16.4055356833      -0.0000018795     1.000000    0.00044741
  615      -16.4055375504      -0.0000018671     1.000000    0.00044571
  616      -16.4055394050      -0.0000018546     1.000000    0.00044398
  617      -16.4055412468      -0.0000018419     1.000000    0.00044222
  618      -16.4055430759      -0.0000018290     1.000000    0.00044044
  619      -16.4055448918      -0.0000018160     1.000000    0.00043863
  620      -16.4055466946      -0.0000018028     1.000000    0.00043679
  621      -16.4055484841      -0.0000017895     1.000000    0.00043492
  622      -16.4055502600      -0.0000017760     1.000000    0.00043303
  623      -16.4055520224      -0.0000017623     1.000000    0.00043110
  624      -16.4055537710      -0.0000017486     1.000000    0.00042916
  625      -16.4055555056      -0.0000017347     1.000000    0.00042718
  626      -16.4055572262      -0.0000017206     1.000000    0.00042518
  627      -16.4055589326      -0.0000017064     1.000000    0.00042316
  628      -16.4055606247      -0.0000016921     1.000000    0.00042110
  629      -16.4055623024      -0.0000016777     1.000000    0.00041903
  630      -16.4055639656      -0.0000016631     1.000000    0.00041693
  631      -16.4055656140      -0.0000016485     1.000000    0.00041481
  632      -16.4055672477      -0.0000016337     1.000000    0.00041266
  633      -16.4055688666      -0.0000016188     1.000000    0.00041049
  634      -16.4055704704      -0.0000016038     1.000000    0.00040829
  635      -16.4055720591      -0.0000015887     1.000000    0.00040608
  636      -16.4055736327      -0.0000015736     1.000000    0.00040384
  637      -16.4055751910      -0.0000015583     1.000000    0.00040158
  638      -16.4055767340      -0.0000015430     1.000000    0.00039931
  639      -16.4055782615      -0.0000015275     1.000000    0.00039701
  640      -16.4055797736      -0.0000015120     1.000000    0.00039469
  641      -16.4055812701      -0.0000014965     1.000000    0.00039235
  642      -16.4055827509      -0.0000014809     1.000000    0.00038999
  643      -16.4055842161      -0.0000014652     1.000000    0.00038762
  644      -16.4055856655      -0.0000014494     1.000000    0.00038523
  645      -16.4055870991      -0.0000014336     1.000000    0.00038282
  646      -16.4055885169      -0.0000014178     1.000000    0.00038039
  647      -16.4055899188      -0.0000014019     1.000000    0.00037795
  648      -16.4055913048      -0.0000013860     1.000000    0.00037549
  649      -16.4055926749      -0.0000013701     1.000000    0.00037302
  650      -16.4055940290      -0.0000013541     1.000000    0.00037053
  651      -16.4055953671      -0.0000013381     1.000000    0.00036803
  652      -16.4055966893      -0.0000013221     1.000000    0.00036551
  653      -16.4055979954      -0.0000013061     1.000000    0.00036299
  654      -16.4055992855      -0.0000012901     1.000000    0.00036045
  655      -16.4056005596      -0.0000012741     1.000000    0.00035790
  656      -16.4056018178      -0.0000012581     1.000000    0.00035533
  657      -16.4056030599      -0.0000012421     1.000000    0.00035276
  658      -16.4056042860      -0.0000012262     1.000000    0.00035018
  659      -16.4056054962      -0.0000012102     1.000000    0.00034759
  660      -16.4056066905      -0.0000011943     1.000000    0.00034499
  661      -16.4056078689      -0.0000011784     1.000000    0.00034238
  662      -16.4056090314      -0.0000011625     1.000000    0.00033977
  663      -16.4056101781      -0.0000011467     1.000000    0.00033715
  664      -16.4056113091      -0.0000011309     1.000000    0.00033452
  665      -16.4056124243      -0.0000011152     1.000000    0.00033188
  666      -16.4056135238      -0.0000010995     1.000000    0.00032924
  667      -16.4056146077      -0.0000010839     1.000000    0.00032660
  668      -16.4056156760      -0.0000010684     1.000000    0.00032395
  669      -16.4056167289      -0.0000010529     1.000000    0.00032130
  670      -16.4056177663      -0.0000010374     1.000000    0.00031865
  671      -16.4056187884      -0.0000010221     1.000000    0.00031599
  672      -16.4056197953      -0.0000010068     1.000000    0.00031334
  673      -16.4056207869      -0.0000009916     1.000000    0.00031068
  674      -16.4056217634      -0.0000009765     1.000000    0.00030802
  675      -16.4056227250      -0.0000009615     1.000000    0.00030536
  676      -16.4056236716      -0.0000009466     1.000000    0.00030270
  677      -16.4056246033      -0.0000009318     1.000000    0.00030004
  678      -16.4056255204      -0.0000009171     1.000000    0.00029738
  679      -16.4056264228      -0.0000009024     1.000000    0.00029473
  680      -16.4056273107      -0.0000008879     1.000000    0.00029208
  681      -16.4056281842      -0.0000008735     1.000000    0.00028943
  682      -16.4056290435      -0.0000008592     1.000000    0.00028678
  683      -16.4056298885      -0.0000008450     1.000000    0.00028414
  684      -16.4056307194      -0.0000008310     1.000000    0.00028150
  685      -16.4056315365      -0.0000008170     1.000000    0.00027887
  686      -16.4056323396      -0.0000008032     1.000000    0.00027624
  687      -16.4056331291      -0.0000007895     1.000000    0.00027362
  688      -16.4056339051      -0.0000007759     1.000000    0.00027101
  689      -16.4056346675      -0.0000007625     1.000000    0.00026840
  690      -16.4056354167      -0.0000007492     1.000000    0.00026580
  691      -16.4056361527      -0.0000007360     1.000000    0.00026321
  692      -16.4056368756      -0.0000007229     1.000000    0.00026062
  693      -16.4056375856      -0.0000007100     1.000000    0.00025805
  694      -16.4056382829      -0.0000006972     1.000000    0.00025548
  695      -16.4056389675      -0.0000006846     1.000000    0.00025292
  696      -16.4056396396      -0.0000006721     1.000000    0.00025037
  697      -16.4056402994      -0.0000006598     1.000000    0.00024783
  698      -16.4056409469      -0.0000006476     1.000000    0.00024531
  699      -16.4056415824      -0.0000006355     1.000000    0.00024279
  700      -16.4056422060      -0.0000006236     1.000000    0.00024028
  701      -16.4056428178      -0.0000006118     1.000000    0.00023779
  702      -16.4056434180      -0.0000006002     1.000000    0.00023530
  703      -16.4056440067      -0.0000005887     1.000000    0.00023283
  704      -16.4056445841      -0.0000005774     1.000000    0.00023037
  705      -16.4056451502      -0.0000005662     1.000000    0.00022793
  706      -16.4056457054      -0.0000005552     1.000000    0.00022550
  707      -16.4056462497      -0.0000005443     1.000000    0.00022307
  708      -16.4056467832      -0.0000005335     1.000000    0.00022067
  709      -16.4056473061      -0.0000005229     1.000000    0.00021828
  710      -16.4056478187      -0.0000005125     1.000000    0.00021590
  711      -16.4056483209      -0.0000005022     1.000000    0.00021353
  712      -16.4056488130      -0.0000004921     1.000000    0.00021118
  713      -16.4056492950      -0.0000004821     1.000000    0.00020884
  714      -16.4056497673      -0.0000004723     1.000000    0.00020652
  715      -16.4056502299      -0.0000004626     1.000000    0.00020422
  716      -16.4056506829      -0.0000004530     1.000000    0.00020193
  717      -16.4056511265      -0.0000004436     1.000000    0.00019965
  718      -16.4056515609      -0.0000004344     1.000000    0.00019739
  719      -16.4056519861      -0.0000004253     1.000000    0.00019515
  720      -16.4056524024      -0.0000004163     1.000000    0.00019292
  721      -16.4056528099      -0.0000004075     1.000000    0.00019071
  722      -16.4056532088      -0.0000003988     1.000000    0.00018851
  723      -16.4056535990      -0.0000003903     1.000000    0.00018633
  724      -16.4056539810      -0.0000003819     1.000000    0.00018417
  725      -16.4056543546      -0.0000003737     1.000000    0.00018202
  726      -16.4056547202      -0.0000003656     1.000000    0.00017989
  727      -16.4056550778      -0.0000003576     1.000000    0.00017778
  728      -16.4056554276      -0.0000003498     1.000000    0.00017568
  729      -16.4056557697      -0.0000003421     1.000000    0.00017360
  730      -16.4056561043      -0.0000003345     1.000000    0.00017154
  731      -16.4056564314      -0.0000003271     1.000000    0.00016950
  732      -16.4056567512      -0.0000003199     1.000000    0.00016747
  733      -16.4056570639      -0.0000003127     1.000000    0.00016546
  734      -16.4056573696      -0.0000003057     1.000000    0.00016347
  735      -16.4056576684      -0.0000002988     1.000000    0.00016149
  736      -16.4056579604      -0.0000002920     1.000000    0.00015953
  737      -16.4056582458      -0.0000002854     1.000000    0.00015759
  738      -16.4056585247      -0.0000002789     1.000000    0.00015567
  739      -16.4056587972      -0.0000002725     1.000000    0.00015376
  740      -16.4056590635      -0.0000002662     1.000000    0.00015187
  741      -16.4056593236      -0.0000002601     1.000000    0.00015000
  742      -16.4056595776      -0.0000002541     1.000000    0.00014815
  743      -16.4056598258      -0.0000002482     1.000000    0.00014631
  744      -16.4056600682      -0.0000002424     1.000000    0.00014449
  745      -16.4056603049      -0.0000002367     1.000000    0.00014269
  746      -16.4056605361      -0.0000002312     1.000000    0.00014090
  747      -16.4056607618      -0.0000002257     1.000000    0.00013914
  748      -16.4056609822      -0.0000002204     1.000000    0.00013739
  749      -16.4056611973      -0.0000002151     1.000000    0.00013566
  750      -16.4056614073      -0.0000002100     1.000000    0.00013394
  751      -16.4056616123      -0.0000002050     1.000000    0.00013224
  752      -16.4056618124      -0.0000002001     1.000000    0.00013056
  753      -16.4056620077      -0.0000001953     1.000000    0.00012890
  754      -16.4056621983      -0.0000001906     1.000000    0.00012725
  755      -16.4056623843      -0.0000001860     1.000000    0.00012562
  756      -16.4056625658      -0.0000001815     1.000000    0.00012401
  757      -16.4056627428      -0.0000001771     1.000000    0.00012242
  758      -16.4056629156      -0.0000001727     1.000000    0.00012084
  759      -16.4056630841      -0.0000001685     1.000000    0.00011928
  760      -16.4056632485      -0.0000001644     1.000000    0.00011773
  761      -16.4056634088      -0.0000001603     1.000000    0.00011620
  762      -16.4056635652      -0.0000001564     1.000000    0.00011469
  763      -16.4056637178      -0.0000001525     1.000000    0.00011320
  764      -16.4056638665      -0.0000001487     1.000000    0.00011172
  765      -16.4056640116      -0.0000001450     1.000000    0.00011026
  766      -16.4056641530      -0.0000001414     1.000000    0.00010881
  767      -16.4056642909      -0.0000001379     1.000000    0.00010738
  768      -16.4056644253      -0.0000001344     1.000000    0.00010596
  769      -16.4056645564      -0.0000001311     1.000000    0.00010457
  770      -16.4056646842      -0.0000001278     1.000000    0.00010318
  771      -16.4056648087      -0.0000001245     1.000000    0.00010182
  772      -16.4056649301      -0.0000001214     1.000000    0.00010047
  773      -16.4056650484      -0.0000001183     1.000000    0.00009913
  774      -16.4056651638      -0.0000001153     1.000000    0.00009781
  775      -16.4056652761      -0.0000001124     1.000000    0.00009651
  776      -16.4056653856      -0.0000001095     1.000000    0.00009522
  777      -16.4056654924      -0.0000001067     1.000000    0.00009394
  778      -16.4056655963      -0.0000001040     1.000000    0.00009268
  779      -16.4056656976      -0.0000001013     1.000000    0.00009144
  780      -16.4056657963      -0.0000000987     1.000000    0.00009021
  781      -16.4056658925      -0.0000000962     1.000000    0.00008899
  782      -16.4056659862      -0.0000000937     1.000000    0.00008779
  783      -16.4056660774      -0.0000000912     1.000000    0.00008660
  784      -16.4056661663      -0.0000000889     1.000000    0.00008543
  785      -16.4056662529      -0.0000000866     1.000000    0.00008427
  786      -16.4056663372      -0.0000000843     1.000000    0.00008313
  787      -16.4056664193      -0.0000000821     1.000000    0.00008200
  788      -16.4056664993      -0.0000000800     1.000000    0.00008088
  789      -16.4056665771      -0.0000000779     1.000000    0.00007978
  790      -16.4056666530      -0.0000000758     1.000000    0.00007869
  791      -16.4056667268      -0.0000000738     1.000000    0.00007761
  792      -16.4056667987      -0.0000000719     1.000000    0.00007655
  793      -16.4056668687      -0.0000000700     1.000000    0.00007550
  794      -16.4056669369      -0.0000000681     1.000000    0.00007446
  795      -16.4056670032      -0.0000000663     1.000000    0.00007344
  796      -16.4056670678      -0.0000000646     1.000000    0.00007243
  797      -16.4056671307      -0.0000000629     1.000000    0.00007143
  798      -16.4056671919      -0.0000000612     1.000000    0.00007045
  799      -16.4056672514      -0.0000000596     1.000000    0.00006947
  800      -16.4056673094      -0.0000000580     1.000000    0.00006851
  801      -16.4056673659      -0.0000000564     1.000000    0.00006757
  802      -16.4056674208      -0.0000000549     1.000000    0.00006663
  803      -16.4056674742      -0.0000000535     1.000000    0.00006570
  804      -16.4056675263      -0.0000000520     1.000000    0.00006479
  805      -16.4056675769      -0.0000000506     1.000000    0.00006389
  806      -16.4056676261      -0.0000000493     1.000000    0.00006300
  807      -16.4056676741      -0.0000000479     1.000000    0.00006212
  808      -16.4056677207      -0.0000000466     1.000000    0.00006126
  809      -16.4056677661      -0.0000000454     1.000000    0.00006040
  810      -16.4056678102      -0.0000000442     1.000000    0.00005956
  811      -16.4056678532      -0.0000000430     1.000000    0.00005872
  812      -16.4056678950      -0.0000000418     1.000000    0.00005790
  813      -16.4056679356      -0.0000000407     1.000000    0.00005709
  814      -16.4056679752      -0.0000000396     1.000000    0.00005629
  815      -16.4056680137      -0.0000000385     1.000000    0.00005550
  816      -16.4056680511      -0.0000000374     1.000000    0.00005472
  817      -16.4056680875      -0.0000000364     1.000000    0.00005395
  818      -16.4056681229      -0.0000000354     1.000000    0.00005319
  819      -16.4056681574      -0.0000000344     1.000000    0.00005244
  820      -16.4056681908      -0.0000000335     1.000000    0.00005170
  821      -16.4056682234      -0.0000000326     1.000000    0.00005097
  822      -16.4056682551      -0.0000000317     1.000000    0.00005025
  823      -16.4056682859      -0.0000000308     1.000000    0.00004954
  824      -16.4056683159      -0.0000000300     1.000000    0.00004884
  825      -16.4056683450      -0.0000000291     1.000000    0.00004815
  826      -16.4056683734      -0.0000000283     1.000000    0.00004747
  827      -16.4056684009      -0.0000000276     1.000000    0.00004679
  828      -16.4056684277      -0.0000000268     1.000000    0.00004613
  829      -16.4056684538      -0.0000000261     1.000000    0.00004547
  830      -16.4056684791      -0.0000000253     1.000000    0.00004483
  831      -16.4056685038      -0.0000000246     1.000000    0.00004419
  832      -16.4056685277      -0.0000000239     1.000000    0.00004356
  833      -16.4056685510      -0.0000000233     1.000000    0.00004294
  834      -16.4056685736      -0.0000000226     1.000000    0.00004233
  835      -16.4056685956      -0.0000000220     1.000000    0.00004173
  836      -16.4056686170      -0.0000000214     1.000000    0.00004113
  837      -16.4056686378      -0.0000000208     1.000000    0.00004054
  838      -16.4056686580      -0.0000000202     1.000000    0.00003996
  839      -16.4056686777      -0.0000000197     1.000000    0.00003939
  840      -16.4056686968      -0.0000000191     1.000000    0.00003883
  841      -16.4056687154      -0.0000000186     1.000000    0.00003827
  842      -16.4056687334      -0.0000000181     1.000000    0.00003772
  843      -16.4056687510      -0.0000000175     1.000000    0.00003718
  844      -16.4056687680      -0.0000000171     1.000000    0.00003665
  845      -16.4056687846      -0.0000000166     1.000000    0.00003613
  846      -16.4056688007      -0.0000000161     1.000000    0.00003561
  847      -16.4056688164      -0.0000000157     1.000000    0.00003510
  848      -16.4056688316      -0.0000000152     1.000000    0.00003459
  849      -16.4056688464      -0.0000000148     1.000000    0.00003409
  850      -16.4056688608      -0.0000000144     1.000000    0.00003360
  851      -16.4056688748      -0.0000000140     1.000000    0.00003312
  852      -16.4056688883      -0.0000000136     1.000000    0.00003264
  853      -16.4056689015      -0.0000000132     1.000000    0.00003217
  854      -16.4056689144      -0.0000000128     1.000000    0.00003171
  855      -16.4056689268      -0.0000000125     1.000000    0.00003125
  856      -16.4056689389      -0.0000000121     1.000000    0.00003080
  857      -16.4056689507      -0.0000000118     1.000000    0.00003036
  858      -16.4056689621      -0.0000000114     1.000000    0.00002992
  859      -16.4056689732      -0.0000000111     1.000000    0.00002949
  860      -16.4056689840      -0.0000000108     1.000000    0.00002906
  861      -16.4056689945      -0.0000000105     1.000000    0.00002864
  862      -16.4056690047      -0.0000000102     1.000000    0.00002822
  863      -16.4056690146      -0.0000000099     1.000000    0.00002782
  864      -16.4056690242      -0.0000000096     1.000000    0.00002741
  865      -16.4056690336      -0.0000000093     1.000000    0.00002702
  866      -16.4056690427      -0.0000000091     1.000000    0.00002662
  867      -16.4056690515      -0.0000000088     1.000000    0.00002624
  868      -16.4056690601      -0.0000000086     1.000000    0.00002586
  869      -16.4056690684      -0.0000000083     1.000000    0.00002548
  870      -16.4056690765      -0.0000000081     1.000000    0.00002511
  871      -16.4056690843      -0.0000000079     1.000000    0.00002475
  872      -16.4056690920      -0.0000000076     1.000000    0.00002439
  873      -16.4056690994      -0.0000000074     1.000000    0.00002403
  874      -16.4056691066      -0.0000000072     1.000000    0.00002369
  875      -16.4056691136      -0.0000000070     1.000000    0.00002334
  876      -16.4056691204      -0.0000000068     1.000000    0.00002300
  877      -16.4056691270      -0.0000000066     1.000000    0.00002267
  878      -16.4056691334      -0.0000000064     1.000000    0.00002234
  879      -16.4056691396      -0.0000000062     1.000000    0.00002201
  880      -16.4056691457      -0.0000000061     1.000000    0.00002169
  881      -16.4056691516      -0.0000000059     1.000000    0.00002138
  882      -16.4056691573      -0.0000000057     1.000000    0.00002106
  883      -16.4056691628      -0.0000000055     1.000000    0.00002076
  884      -16.4056691682      -0.0000000054     1.000000    0.00002045
  885      -16.4056691735      -0.0000000052     1.000000    0.00002016
  886      -16.4056691785      -0.0000000051     1.000000    0.00001986
  887      -16.4056691835      -0.0000000049     1.000000    0.00001957
  888      -16.4056691883      -0.0000000048     1.000000    0.00001929
  889      -16.4056691929      -0.0000000047     1.000000    0.00001900
  890      -16.4056691975      -0.0000000045     1.000000    0.00001873
  891      -16.4056692019      -0.0000000044     1.000000    0.00001845
  892      -16.4056692061      -0.0000000043     1.000000    0.00001818
  893      -16.4056692103      -0.0000000041     1.000000    0.00001792
  894      -16.4056692143      -0.0000000040     1.000000    0.00001766
  895      -16.4056692182      -0.0000000039     1.000000    0.00001740
  896      -16.4056692220      -0.0000000038     1.000000    0.00001714
  897      -16.4056692257      -0.0000000037     1.000000    0.00001689
  898      -16.4056692293      -0.0000000036     1.000000    0.00001664
  899      -16.4056692328      -0.0000000035     1.000000    0.00001640
  900      -16.4056692361      -0.0000000034     1.000000    0.00001616
  901      -16.4056692394      -0.0000000033     1.000000    0.00001592
  902      -16.4056692426      -0.0000000032     1.000000    0.00001569
  903      -16.4056692457      -0.0000000031     1.000000    0.00001546
  904      -16.4056692487      -0.0000000030     1.000000    0.00001523
  905      -16.4056692516      -0.0000000029     1.000000    0.00001501
  906      -16.4056692544      -0.0000000028     1.000000    0.00001479
  907      -16.4056692572      -0.0000000028     1.000000    0.00001457
  908      -16.4056692599      -0.0000000027     1.000000    0.00001436
  909      -16.4056692625      -0.0000000026     1.000000    0.00001415
  910      -16.4056692650      -0.0000000025     1.000000    0.00001394
  911      -16.4056692674      -0.0000000024     1.000000    0.00001374
  912      -16.4056692698      -0.0000000024     1.000000    0.00001354
  913      -16.4056692721      -0.0000000023     1.000000    0.00001334
  914      -16.4056692743      -0.0000000022     1.000000    0.00001314
  915      -16.4056692765      -0.0000000022     1.000000    0.00001295
  916      -16.4056692786      -0.0000000021     1.000000    0.00001276
  917      -16.4056692807      -0.0000000020     1.000000    0.00001257
  918      -16.4056692827      -0.0000000020     1.000000    0.00001239
  919      -16.4056692846      -0.0000000019     1.000000    0.00001220
  920      -16.4056692865      -0.0000000019     1.000000    0.00001202
  921      -16.4056692883      -0.0000000018     1.000000    0.00001185
  922      -16.4056692901      -0.0000000018     1.000000    0.00001167
  923      -16.4056692918      -0.0000000017     1.000000    0.00001150
  924      -16.4056692935      -0.0000000017     1.000000    0.00001133
  925      -16.4056692951      -0.0000000016     1.000000    0.00001116
  926      -16.4056692966      -0.0000000016     1.000000    0.00001100
  927      -16.4056692982      -0.0000000015     1.000000    0.00001084
  928      -16.4056692997      -0.0000000015     1.000000    0.00001068
  929      -16.4056693011      -0.0000000014     1.000000    0.00001052
  930      -16.4056693025      -0.0000000014     1.000000    0.00001037
  931      -16.4056693038      -0.0000000014     1.000000    0.00001021
  932      -16.4056693052      -0.0000000013     1.000000    0.00001006
  933      -16.4056693064      -0.0000000013     1.000000    0.00000992
  934      -16.4056693077      -0.0000000012     1.000000    0.00000977
  935      -16.4056693089      -0.0000000012     1.000000    0.00000963
  936      -16.4056693101      -0.0000000012     1.000000    0.00000948
  937      -16.4056693112      -0.0000000011     1.000000    0.00000934
  938      -16.4056693123      -0.0000000011     1.000000    0.00000921
  939      -16.4056693134      -0.0000000011     1.000000    0.00000907
  940      -16.4056693144      -0.0000000010     1.000000    0.00000894
  941      -16.4056693154      -0.0000000010     1.000000    0.00000880
  942      -16.4056693164      -0.0000000010     1.000000    0.00000867
  943      -16.4056693173      -0.0000000010     1.000000    0.00000855
  944      -16.4056693183      -0.0000000009     1.000000    0.00000842
  945      -16.4056693192      -0.0000000009     1.000000    0.00000830
  946      -16.4056693200      -0.0000000009     1.000000    0.00000817
  947      -16.4056693209      -0.0000000008     1.000000    0.00000805
  948      -16.4056693217      -0.0000000008     1.000000    0.00000793
  949      -16.4056693225      -0.0000000008     1.000000    0.00000782
  950      -16.4056693233      -0.0000000008     1.000000    0.00000770
  951      -16.4056693240      -0.0000000008     1.000000    0.00000759
  952      -16.4056693248      -0.0000000007     1.000000    0.00000748
  953      -16.4056693255      -0.0000000007     1.000000    0.00000737
  954      -16.4056693261      -0.0000000007     1.000000    0.00000726
  955      -16.4056693268      -0.0000000007     1.000000    0.00000715
  956      -16.4056693275      -0.0000000006     1.000000    0.00000704
  957      -16.4056693281      -0.0000000006     1.000000    0.00000694
  958      -16.4056693287      -0.0000000006     1.000000    0.00000684
  959      -16.4056693293      -0.0000000006     1.000000    0.00000674
  960      -16.4056693299      -0.0000000006     1.000000    0.00000664
  961      -16.4056693304      -0.0000000006     1.000000    0.00000654
  962      -16.4056693310      -0.0000000005     1.000000    0.00000644
  963      -16.4056693315      -0.0000000005     1.000000    0.00000635
  964      -16.4056693320      -0.0000000005     1.000000    0.00000625
  965      -16.4056693325      -0.0000000005     1.000000    0.00000616
  966      -16.4056693330      -0.0000000005     1.000000    0.00000607
  967      -16.4056693334      -0.0000000005     1.000000    0.00000598
  968      -16.4056693339      -0.0000000005     1.000000    0.00000589
  969      -16.4056693343      -0.0000000004     1.000000    0.00000580
  970      -16.4056693348      -0.0000000004     1.000000    0.00000572
  971      -16.4056693352      -0.0000000004     1.000000    0.00000563
  972      -16.4056693356      -0.0000000004     1.000000    0.00000555
  973      -16.4056693360      -0.0000000004     1.000000    0.00000547
  974      -16.4056693363      -0.0000000004     1.000000    0.00000539
  975      -16.4056693367      -0.0000000004     1.000000    0.00000531
  976      -16.4056693371      -0.0000000004     1.000000    0.00000523
  977      -16.4056693374      -0.0000000003     1.000000    0.00000515
  978      -16.4056693378      -0.0000000003     1.000000    0.00000508
  979      -16.4056693381      -0.0000000003     1.000000    0.00000500
  980      -16.4056693384      -0.0000000003     1.000000    0.00000493
  981      -16.4056693387      -0.0000000003     1.000000    0.00000485
  982      -16.4056693390      -0.0000000003     1.000000    0.00000478
  983      -16.4056693393      -0.0000000003     1.000000    0.00000471
  984      -16.4056693396      -0.0000000003     1.000000    0.00000464
  985      -16.4056693399      -0.0000000003     1.000000    0.00000457
  986      -16.4056693401      -0.0000000003     1.000000    0.00000450
  987      -16.4056693404      -0.0000000003     1.000000    0.00000444
  988      -16.4056693406      -0.0000000002     1.000000    0.00000437
  989      -16.4056693409      -0.0000000002     1.000000    0.00000431
  990      -16.4056693411      -0.0000000002     1.000000    0.00000424
  991      -16.4056693413      -0.0000000002     1.000000    0.00000418
  992      -16.4056693416      -0.0000000002     1.000000    0.00000412
  993      -16.4056693418      -0.0000000002     1.000000    0.00000406
  994      -16.4056693420      -0.0000000002     1.000000    0.00000400
  995      -16.4056693422      -0.0000000002     1.000000    0.00000394
  996      -16.4056693424      -0.0000000002     1.000000    0.00000388
  997      -16.4056693426      -0.0000000002     1.000000    0.00000382
  998      -16.4056693428      -0.0000000002     1.000000    0.00000377
  999      -16.4056693429      -0.0000000002     1.000000    0.00000371
 1000      -16.4056693431      -0.0000000002     1.000000    0.00000365

Total Energy:                      -16.4056693431 H         -446.4210 eV
Extrapolated to 0:                 -16.3607224307 H         -445.1979 eV

----------------------------------------------------------------------------------
 Solving CP-REKS equation for  1 state vector...
----------------------------------------------------------------------------------
  CG solver: Constructing Y initial guess
  CG solver: Iteration    1    eps =    0.034146695611
  CG solver: Iteration    2    eps =    0.006739520911
  CG solver: Iteration    3    eps =    0.004254905405
  CG solver: Iteration    4    eps =    0.006848161969
  CG solver: Iteration    5    eps =    0.012557527463
  CG solver: Iteration    6    eps =    0.004314370208
  CG solver: Iteration    7    eps =    0.000874220472
  CG solver: Iteration    8    eps =    0.000100868979
  CG solver: Iteration    9    eps =    0.000017785307
  CG solver: Iteration   10    eps =    0.000002249733
  CG solver: Iteration   11    eps =    0.000000258180
  CG solver: Iteration   12    eps =    0.000000025982
  CG solver: Iteration   13    eps =    0.000000003403
  Convergence reached in CG solver after   13 iterations
  CG solver: Calculating converged R, Z, Q2 matrix
----------------------------------------------------------------------------------

----------------------------------------------------------------------------------
 Solving CP-REKS equation for SI between  1 and  2 state vectors...
----------------------------------------------------------------------------------
  CG solver: Constructing Y initial guess
  CG solver: Iteration    1    eps =    0.018494957321
  CG solver: Iteration    2    eps =    0.000608491765
  CG solver: Iteration    3    eps =    0.000123611025
  CG solver: Iteration    4    eps =    0.000233894851
  CG solver: Iteration    5    eps =    0.000643610882
  CG solver: Iteration    6    eps =    0.000186008789
  CG solver: Iteration    7    eps =    0.000080434689
  CG solver: Iteration    8    eps =    0.000006947499
  CG solver: Iteration    9    eps =    0.000000307211
  CG solver: Iteration   10    eps =    0.000000046391
  CG solver: Iteration   11    eps =    0.000000008177
  Convergence reached in CG solver after   11 iterations
  CG solver: Calculating converged R, Z, Q2 matrix
----------------------------------------------------------------------------------

--------------------------------------------------
 Gradient Information
--------------------------------------------------
           1 st state (SSR)
     0.00000000     0.00000000     0.00000000
     0.00000000     0.00000000     0.00000000
     0.00000000     0.00000000     0.00000000
     0.00000000     0.00000000     0.00000000
     0.00000000     0.00000000     0.00000000
     0.00000000     0.00000000     0.00000000
     0.00000000     0.00000000     0.00000000
     0.00000000     0.00000000     0.00000000
     0.00000000     0.00000000     0.00000000
     0.00000000     0.00000000     0.00000000
     0.00000000     0.00000000     0.00000000
     0.00000000     0.00000000     0.00000000
     0.00000000     0.00000000     0.00000000
     0.00000000     0.00000000     0.00000000

           2 st state (SSR)
     0.00000000     0.00000000     0.00000000
     0.00000000     0.00000000     0.00000000
     0.00000000     0.00000000     0.00000000
     0.00000000     0.00000000     0.00000000
     0.00000000     0.00000000     0.00000000
     0.00000000     0.00000000     0.00000000
     0.00000000     0.00000000     0.00000000
     0.00000000     0.00000000     0.00000000
     0.00000000     0.00000000     0.00000000
     0.00000000     0.00000000     0.00000000
     0.00000000     0.00000000     0.00000000
     0.00000000     0.00000000     0.00000000
     0.00000000     0.00000000     0.00000000
     0.00000000     0.00000000     0.00000000
--------------------------------------------------
 Coupling Information
--------------------------------------------------
 between  1 and  2 states
--------------------------------------------------
 g vector - difference gradient
    -0.01870204     0.32889612    -0.30206978
    -0.04946271    -0.46250791     0.22716748
     0.05380702    -0.08098221     0.00690692
    -0.10123912     0.03476362     0.02538021
     0.14984162    -0.01046549     0.05227526
    -0.17961794     0.13608433    -0.06702694
     0.06632493    -0.15356594    -0.17593151
     0.07415440     0.14570578    -0.00675447
    -0.06976222    -0.03756798     0.01204640
     0.23738528     0.03176085     0.25483007
    -0.09800984     0.04111349    -0.02419621
    -0.12598208    -0.02829041    -0.00854514
    -0.08290730     0.07531916     0.03220315
     0.14416998    -0.02026341    -0.02628544

 h vector - derivative coupling
    -0.02494718    -0.03839358     0.01992153
     0.02973964     0.06980228    -0.02785920
    -0.00241561    -0.00047664    -0.00160980
     0.00809148    -0.00193598     0.00440797
    -0.01500112    -0.00851238     0.00110966
    -0.00945185    -0.01815012     0.00652944
     0.01860606     0.00615399     0.00802073
     0.00305668    -0.00849393     0.00248034
    -0.00161315     0.01084638    -0.00175483
    -0.00124403     0.00103795    -0.00955926
    -0.00277444     0.00358881     0.00115577
    -0.00281494    -0.01491815    -0.00307794
    -0.00034797    -0.00021334     0.00015582
     0.00111643    -0.00033527     0.00007978

 G vector - GDV
     0.00000000     0.00000000     0.00000000
     0.00000000     0.00000000     0.00000000
     0.00000000     0.00000000     0.00000000
     0.00000000     0.00000000     0.00000000
     0.00000000     0.00000000     0.00000000
     0.00000000     0.00000000     0.00000000
     0.00000000     0.00000000     0.00000000
     0.00000000     0.00000000     0.00000000
     0.00000000     0.00000000     0.00000000
     0.00000000     0.00000000     0.00000000
     0.00000000     0.00000000     0.00000000
     0.00000000     0.00000000     0.00000000
     0.00000000     0.00000000     0.00000000
     0.00000000     0.00000000     0.00000000

 H vector - DCV - non-adiabatic coupling
     0.00000000     0.00000000     0.00000000
     0.00000000     0.00000000     0.00000000
     0.00000000     0.00000000     0.00000000
     0.00000000     0.00000000     0.00000000
     0.00000000     0.00000000     0.00000000
     0.00000000     0.00000000     0.00000000
     0.00000000     0.00000000     0.00000000
     0.00000000     0.00000000     0.00000000
     0.00000000     0.00000000     0.00000000
     0.00000000     0.00000000     0.00000000
     0.00000000     0.00000000     0.00000000
     0.00000000     0.00000000     0.00000000
     0.00000000     0.00000000     0.00000000
     0.00000000     0.00000000     0.00000000
--------------------------------------------------

WARNING!
-> SCC is NOT converged, maximal SCC iterations exceeded

--------------------------------------------------------------------------------
DFTB+ running times                          cpu [s]             wall clock [s]
--------------------------------------------------------------------------------
SCC                                    +     1.56  ( 82.3%)      1.57  ( 82.2%)
      Sparse to dense                        0.07  (  3.8%)      0.07  (  3.6%)
      Dense to sparse                        0.26  ( 13.5%)      0.24  ( 12.8%)
      Range separated Hamiltonian            0.13  (  6.6%)      0.13  (  6.8%)
  Density matrix creation                    0.16  (  8.3%)      0.15  (  7.8%)
  Force calculation                          0.33  ( 17.4%)      0.33  ( 17.4%)
--------------------------------------------------------------------------------
Missing                                +     0.34  ( 17.7%)      0.34  ( 17.8%)
Total                                  =     1.90  (100.0%)      1.91  (100.0%)
--------------------------------------------------------------------------------
