     6
  Step:     0            Position(A)                                  Velocity(au)
C        -0.04219558     0.03503401     0.04189259    -0.00012241    -0.00005194    -0.00007892
N        -0.05047669    -0.07698469     1.28014826    -0.00012515     0.00004062     0.00001845
H         0.89990785    -0.06006260    -0.52957986     0.00058401     0.00033916    -0.00001118
H         0.88808057    -0.03118350     1.86261676     0.00138070    -0.00028690     0.00034730
H        -0.87571302     0.04429501     1.79704911     0.00029243    -0.00001475     0.00000638
H        -0.92096577     0.02951277    -0.52662971     0.00094070     0.00001703     0.00034146
     6
  Step:     1            Position(A)                                  Velocity(au)
C        -0.04280794     0.03478325     0.04104406    -0.00010015    -0.00004014    -0.00023079
N        -0.05107746    -0.07682425     1.28062290    -0.00009371     0.00001800     0.00015511
H         0.90335043    -0.05817217    -0.52958996     0.00066845     0.00035367     0.00000979
H         0.89513437    -0.03264197     1.86413472     0.00118984    -0.00024560     0.00020401
H        -0.87485495     0.04443112     1.79749023     0.00001889     0.00006558     0.00015786
H        -0.91667444     0.02970368    -0.52506371     0.00061842     0.00005459     0.00022292
     6
  Step:     2            Position(A)                                  Velocity(au)
C        -0.04329086     0.03459500     0.03936849    -0.00007544    -0.00002931    -0.00038132
N        -0.05150152    -0.07678780     1.28184466    -0.00006098    -0.00000472     0.00029146
H         0.90721847    -0.05619468    -0.52947274     0.00073861     0.00037206     0.00003516
H         0.90109341    -0.03386949     1.86484796     0.00098248    -0.00020186     0.00005499
H        -0.87550638     0.04501227     1.79877557    -0.00025539     0.00014814     0.00031340
H        -0.91420233     0.03010980    -0.52419168     0.00028074     0.00009669     0.00009001
     6
  Step:     3            Position(A)                                  Velocity(au)
C        -0.04363283     0.03446274     0.03687480    -0.00004897    -0.00001978    -0.00052996
N        -0.05174419    -0.07687589     1.28380963    -0.00002774    -0.00002748     0.00042673
H         0.91142633    -0.05410412    -0.52920557     0.00079106     0.00039549     0.00006421
H         0.90587661    -0.03484908     1.86473601     0.00076094    -0.00015479    -0.00009591
H        -0.87764739     0.04605090     1.80091694    -0.00052160     0.00023246     0.00046924
H        -0.91360490     0.03076086    -0.52407956    -0.00006126     0.00014453    -0.00005256
     6
  Step:     4            Position(A)                                  Velocity(au)
C        -0.04382631     0.03437867     0.03357378    -0.00002152    -0.00001161    -0.00067580
N        -0.05180489    -0.07708826     1.28651062     0.00000522    -0.00004991     0.00055985
H         0.91586810    -0.05187033    -0.52877067     0.00082189     0.00042356     0.00009577
H         0.90941371    -0.03556200     1.86379928     0.00052730    -0.00010521    -0.00024464
H        -0.88120969     0.04755404     1.80390632    -0.00077044     0.00031633     0.00062122
H        -0.91487216     0.03169017    -0.52476634    -0.00039474     0.00019731    -0.00019939
     6
  Step:     5            Position(A)                                  Velocity(au)
C        -0.04386825     0.03433577     0.02948134     0.00000602    -0.00000449    -0.00081669
N        -0.05168713    -0.07742194     1.28993452     0.00003704    -0.00007132     0.00068871
H         0.92041803    -0.04947026    -0.52815787     0.00082864     0.00045377     0.00012817
H         0.91164535    -0.03600014     1.86205963     0.00028468    -0.00005610    -0.00038706
H        -0.88607618     0.04951159     1.80771319    -0.00099266     0.00039554     0.00076413
H        -0.91792350     0.03291943    -0.52626090    -0.00070707     0.00025139    -0.00034419
     6
  Step:     6            Position(A)                                  Velocity(au)
C        -0.04376041     0.03432951     0.02462756     0.00003268     0.00000196    -0.00094864
N        -0.05139910    -0.07786947     1.29405494     0.00006674    -0.00009080     0.00080971
H         0.92494526    -0.04689961    -0.52736665     0.00081212     0.00048244     0.00015951
H         0.91253221    -0.03617652     1.85955935     0.00003861    -0.00001103    -0.00051911
H        -0.89208353     0.05188692     1.81227677    -0.00117954     0.00046533     0.00089134
H        -0.92261758     0.03444394    -0.52853665    -0.00098789     0.00030191    -0.00047971
     6
  Step:     7            Position(A)                                  Velocity(au)
C        -0.04350951     0.03435724     0.01906688     0.00005747     0.00000788    -0.00106635
N        -0.05095450    -0.07841882     1.29882371     0.00009315    -0.00010761     0.00091810
H         0.92933376    -0.04417392    -0.52640668     0.00077589     0.00050646     0.00018783
H         0.91206918    -0.03612121     1.85636066    -0.00020293     0.00002785    -0.00063652
H        -0.89902556     0.05462006     1.81749855    -0.00132317     0.00052209     0.00099567
H        -0.92876882     0.03623386    -0.53152732    -0.00122909     0.00034523    -0.00059863
     6
  Step:     8            Position(A)                                  Velocity(au)
C        -0.04312742     0.03441628     0.01288303     0.00007941     0.00001316    -0.00116437
N        -0.05037313    -0.07905467     1.30416670     0.00011516    -0.00012120     0.00100903
H         0.93349073    -0.04132163    -0.52529795     0.00072435     0.00052395     0.00021119
H         0.91029722    -0.03586974     1.85254887    -0.00043016     0.00006015    -0.00073451
H        -0.90665660     0.05763706     1.82324278    -0.00141700     0.00056379     0.00107094
H        -0.93615445     0.03824617    -0.53512979    -0.00142373     0.00037966    -0.00069492
     6
  Step:     9            Position(A)                                  Velocity(au)
C        -0.04263114     0.03450276     0.00618796     0.00009760     0.00001756    -0.00123821
N        -0.04968073    -0.07975939     1.30998450     0.00013178    -0.00013124     0.00107846
H         0.93734572    -0.03837854    -0.52407072     0.00066183     0.00053398     0.00022787
H         0.90731119    -0.03545594     1.84823637    -0.00063268     0.00008634    -0.00080821
H        -0.91469883     0.06085612     1.82934404    -0.00145705     0.00058951     0.00111319
H        -0.94451650     0.04043325    -0.53921375    -0.00156629     0.00040477    -0.00076497
     6
  Step:    10            Position(A)                                  Velocity(au)
C        -0.04204231     0.03461154    -0.00088381     0.00011136     0.00002091    -0.00128542
N        -0.04890795    -0.08051388     1.31615735     0.00014239    -0.00013765     0.00112409
H         0.94084916    -0.03538463    -0.52276441     0.00059264     0.00053635     0.00023664
H         0.90326285    -0.03490974     1.84356296    -0.00080087     0.00010724    -0.00085376
H        -0.92285655     0.06419146     1.83561958    -0.00144323     0.00059933     0.00112151
H        -0.95356905     0.04274659    -0.54363497    -0.00165427     0.00042085    -0.00080800
     6
  Step:    11            Position(A)                                  Velocity(au)
C        -0.04138584     0.03473662    -0.00818586     0.00012046     0.00002314    -0.00130652
N        -0.04808847    -0.08129867     1.32255424     0.00014687    -0.00014066     0.00114622
H         0.94397275    -0.03238096    -0.52142452     0.00052125     0.00053176     0.00023713
H         0.89835574    -0.03425680     1.83868945    -0.00092779     0.00012377    -0.00086958
H        -0.93083730     0.06755796     1.84188492    -0.00138030     0.00059464     0.00109855
H        -0.96301476     0.04513922    -0.54824895    -0.00168953     0.00042885    -0.00082586
     6
  Step:    12            Position(A)                                  Velocity(au)
C        -0.04068772     0.03487174    -0.01557563     0.00012514     0.00002430    -0.00130551
N        -0.04725637    -0.08209559     1.32904657     0.00014564    -0.00014085     0.00114816
H         0.94671055    -0.02940500    -0.52009785     0.00045209     0.00052193     0.00022990
H         0.89282991    -0.03351794     1.83378459    -0.00101058     0.00013711    -0.00085693
H        -0.93837804     0.07087814     1.84797271    -0.00127759     0.00057824     0.00105040
H        -0.97256780     0.04756896    -0.55292178    -0.00167883     0.00043050    -0.00082219
     6
  Step:    13            Position(A)                                  Velocity(au)
C        -0.03997226     0.03501112    -0.02293347     0.00012608     0.00002457    -0.00128924
N        -0.04644330    -0.08288973     1.33552438     0.00013953    -0.00013909     0.00113574
H         0.94907975    -0.02648500    -0.51882745     0.00038916     0.00050940     0.00021615
H         0.88693980    -0.03270794     1.82900927    -0.00105064     0.00014865    -0.00081950
H        -0.94526949     0.07409001     1.85375067    -0.00114700     0.00055398     0.00098531
H        -0.98197955     0.05000236    -0.55753679    -0.00163284     0.00042818    -0.00080209
     6
  Step:    14            Position(A)                                  Velocity(au)
C        -0.03925971     0.03515001    -0.03017771     0.00012419     0.00002417    -0.00126531
N        -0.04567604    -0.08367099     1.34191014     0.00012955    -0.00013634     0.00111555
H         0.95111819    -0.02363550    -0.51764965     0.00033528     0.00049680     0.00019723
H         0.88093030    -0.03183434     1.82450286    -0.00105218     0.00015984    -0.00076192
H        -0.95136909     0.07715262     1.85913242    -0.00099988     0.00052574     0.00091145
H        -0.99106152     0.05241855    -0.56200635    -0.00156338     0.00042438    -0.00077140
     6
  Step:    15            Position(A)                                  Velocity(au)
C        -0.03856526     0.03528492    -0.03726839     0.00012025     0.00002329    -0.00123966
N        -0.04497557    -0.08443439     1.34816264     0.00011654    -0.00013334     0.00109278
H         0.95287824    -0.02085670    -0.51659295     0.00029184     0.00048605     0.00017417
H         0.87501949    -0.03089703     1.82037729    -0.00101979     0.00017197    -0.00068800
H        -0.95659732     0.08004626     1.86407669    -0.00084447     0.00049643     0.00083495
H        -0.99969137     0.05481020    -0.56627608    -0.00147991     0.00042104    -0.00073493
     6
  Step:    16            Position(A)                                  Velocity(au)
C        -0.03789972     0.03541338    -0.04419814     0.00017468     0.00003357    -0.00185027
N        -0.04435798    -0.08517901     1.35426933     0.00015377    -0.00019865     0.00162917
H         0.95441884    -0.01813835    -0.51567985     0.00039421     0.00072767     0.00022449
H         0.86939658    -0.02988936     1.81672162    -0.00145623     0.00028303    -0.00091319
H        -0.96091995     0.08276712     1.86857559    -0.00104347     0.00071179     0.00115578
H        -1.00779915     0.05718043    -0.57031826    -0.00211284     0.00063810    -0.00105884
     6
  Step:    17            Position(A)                                  Velocity(au)
C        -0.03695176     0.03559741    -0.05418774     0.00009936     0.00001943    -0.00104890
N        -0.04354482    -0.08626043     1.36310921     0.00008204    -0.00011457     0.00093234
H         0.95682375    -0.01418837    -0.51483271     0.00028592     0.00041815     0.00004762
H         0.86153603    -0.02832867     1.81193961    -0.00080912     0.00016889    -0.00047730
H        -0.96632467     0.08663861     1.87483880    -0.00053821     0.00040938     0.00065866
H        -1.01953454     0.06063360    -0.57645248    -0.00126264     0.00036422    -0.00068642
     6
  Step:    18            Position(A)                                  Velocity(au)
C        -0.03641670     0.03570145    -0.06003132     0.00009013     0.00001743    -0.00102611
N        -0.04314253    -0.08689827     1.36829241     0.00006003    -0.00011199     0.00090776
H         0.95837715    -0.01184486    -0.51465077     0.00026892     0.00041459     0.00001594
H         0.85734292    -0.02732253     1.80959154    -0.00066800     0.00018930    -0.00035165
H        -0.96887285     0.08885985     1.87832864    -0.00036767     0.00037967     0.00058182
H        -1.02631279     0.06268689    -0.58017160    -0.00114139     0.00036509    -0.00063346
     6
  Step:    19            Position(A)                                  Velocity(au)
C        -0.03593724     0.03579362    -0.06573764     0.00008026     0.00001533    -0.00100679
N        -0.04286916    -0.08752104     1.37332691     0.00003681    -0.00010995     0.00088545
H         0.95985076    -0.00952179    -0.51465328     0.00025891     0.00041351    -0.00001781
H         0.85401699    -0.02619789     1.80798146    -0.00050728     0.00021227    -0.00021820
H        -0.97046311     0.09091213     1.88138780    -0.00020087     0.00035192     0.00050976
H        -1.03238208     0.06474310    -0.58358273    -0.00101864     0.00036767    -0.00058138
     6
  Step:    20            Position(A)                                  Velocity(au)
C        -0.03551622     0.03587340    -0.07132685     0.00006971     0.00001308    -0.00098837
N        -0.04272957    -0.08813188     1.37822660     0.00001275    -0.00010819     0.00086330
H         0.96128193    -0.00720551    -0.51485060     0.00025443     0.00041375    -0.00005348
H         0.85165158    -0.02494096     1.80714353    -0.00033030     0.00023725    -0.00007856
H        -0.97112642     0.09280814     1.88404784    -0.00003901     0.00032553     0.00044205
H        -1.03774119     0.06681190    -0.58669433    -0.00089293     0.00037108    -0.00052933
     6
  Step:    21            Position(A)                                  Velocity(au)
C        -0.03515666     0.03594013    -0.07680481     0.00005856     0.00001070    -0.00096920
N        -0.04272641    -0.08873251     1.38299364    -0.00001157    -0.00010655     0.00084004
H         0.96269977    -0.00488890    -0.51525217     0.00025428     0.00041447    -0.00009071
H         0.85031843    -0.02354132     1.80710181    -0.00014262     0.00026360     0.00006436
H        -0.97089988     0.09455720     1.88633760     0.00011566     0.00030034     0.00037901
H        -1.04238061     0.06889825    -0.58950986    -0.00076429     0.00037476    -0.00047714
     6
  Step:    22            Position(A)                                  Velocity(au)
C        -0.03486120     0.03599313    -0.08216843     0.00004696     0.00000819    -0.00094842
N        -0.04285898    -0.08932376     1.38762337    -0.00003543    -0.00010495     0.00081512
H         0.96412638    -0.00256924    -0.51586532     0.00025737     0.00041517    -0.00012900
H         0.85005621    -0.02199227     1.80786351     0.00004875     0.00029069     0.00020690
H        -0.96983260     0.09616774     1.88828746     0.00026037     0.00027652     0.00032146
H        -1.04629064     0.07100399    -0.59203162    -0.00063375     0.00037840    -0.00042513
     6
  Step:    23            Position(A)                                  Velocity(au)
C        -0.03463156     0.03603175    -0.08740973     0.00003514     0.00000557    -0.00092568
N        -0.04312255    -0.08990597     1.39210802    -0.00005806    -0.00010334     0.00078845
H         0.96557760    -0.00024668    -0.51669459     0.00026268     0.00041553    -0.00016779
H         0.85086351    -0.02029092     1.80941524     0.00023612     0.00031787     0.00034509
H        -0.96798854     0.09764915     1.88993206     0.00039221     0.00025444     0.00027045
H        -1.04946693     0.07312932    -0.59426353    -0.00050289     0.00038187    -0.00037392
     6
  Step:    24            Position(A)                                  Velocity(au)
C        -0.03446826     0.03605542    -0.09251874     0.00002334     0.00000286    -0.00090093
N        -0.04350819    -0.09047923     1.39643927    -0.00007873    -0.00010173     0.00076020
H         0.96706346     0.00207691    -0.51774142     0.00026922     0.00041537    -0.00020651
H         0.85269634    -0.01843809     1.81172208     0.00041190     0.00034451     0.00047513
H        -0.96544719     0.09901273     1.89131147     0.00050843     0.00023455     0.00022707
H        -1.05191367     0.07527377    -0.59621258    -0.00037359     0.00038518    -0.00032423
     6
  Step:    25            Position(A)                                  Velocity(au)
C        -0.03437055     0.03606370    -0.09748523     0.00001179     0.00000008    -0.00087436
N        -0.04400301    -0.09104362     1.40060970    -0.00009676    -0.00010012     0.00073072
H         0.96858841     0.00439861    -0.51900413     0.00027607     0.00041460    -0.00024464
H         0.85546999    -0.01643809     1.81472883     0.00056923     0.00037007     0.00059365
H        -0.96230257     0.10027219     1.89247147     0.00060660     0.00021731     0.00019233
H        -1.05364495     0.07743697    -0.59788957    -0.00024775     0.00038844    -0.00027681
     6
  Step:    26            Position(A)                                  Velocity(au)
C        -0.03433632     0.03605626    -0.10229991     0.00000074    -0.00000276    -0.00084626
N        -0.04459066    -0.09159923     1.40461360    -0.00011163    -0.00009854     0.00070040
H         0.97015173     0.00671491    -0.52047816     0.00028235     0.00041316    -0.00028170
H         0.85906416    -0.01429822     1.81836307     0.00070246     0.00039410     0.00069796
H        -0.95866131     0.10144366     1.89346301     0.00068478     0.00020315     0.00016709
H        -1.05468513     0.07961915    -0.59930916    -0.00012721     0.00039183    -0.00023236
     6
  Step:    27            Position(A)                                  Velocity(au)
C        -0.03436222     0.03603286    -0.10695499    -0.00000959    -0.00000562    -0.00081697
N        -0.04525213    -0.09214630     1.40844731    -0.00012293    -0.00009702     0.00066966
H         0.97174790     0.00902192    -0.52215640     0.00028726     0.00041101    -0.00031729
H         0.86333061    -0.01202805     1.82253912     0.00080744     0.00041629     0.00078615
H        -0.95463978     0.10254542     1.89434125     0.00074157     0.00019240     0.00015199
H        -1.05506846     0.08182161    -0.60048977    -0.00001367     0.00039558    -0.00019154
     6
  Step:    28            Position(A)                                  Velocity(au)
C        -0.03444369     0.03599335    -0.11144453    -0.00001902    -0.00000851    -0.00078687
N        -0.04596664    -0.09268523     1.41210924    -0.00013045    -0.00009560     0.00063886
H         0.97336714     0.01131543    -0.52402970     0.00029012     0.00040809    -0.00035112
H         0.86810207    -0.00963861     1.82716266     0.00088168     0.00043649     0.00085714
H        -0.95036077     0.10359721     1.89516425     0.00077619     0.00018526     0.00014740
H        -1.05483819     0.08404701    -0.60145310     0.00009136     0.00039999    -0.00015488
     6
  Step:    29            Position(A)                                  Velocity(au)
C        -0.03457513     0.03593763    -0.11576448    -0.00002736    -0.00001140    -0.00075629
N        -0.04671255    -0.09321656     1.41559974    -0.00013412    -0.00009429     0.00060835
H         0.97499598     0.01359078    -0.52608743     0.00029033     0.00040433    -0.00038301
H         0.87320155    -0.00714133     1.83213526     0.00092429     0.00045475     0.00091060
H        -0.94594986     0.10461950     1.89599146     0.00078853     0.00018176     0.00015343
H        -1.05404559     0.08629979    -0.60222373     0.00018660     0.00040543    -0.00012284
     6
  Step:    30            Position(A)                                  Velocity(au)
C        -0.03475001     0.03586565    -0.11991263    -0.00003446    -0.00001431    -0.00072555
N        -0.04746833    -0.09374101     1.41892083    -0.00013404    -0.00009314     0.00057839
H         0.97661795     0.01584261    -0.52831815     0.00028743     0.00039954    -0.00041288
H         0.87845114    -0.00454688     1.83735855     0.00093579     0.00047133     0.00094692
H        -0.94153171     0.10563238     1.89688213     0.00077909     0.00018172     0.00016990
H        -1.05274881     0.08858650    -0.60282854     0.00027095     0.00041231    -0.00009579
     6
  Step:    31            Position(A)                                  Velocity(au)
C        -0.03496098     0.03577737    -0.12388833    -0.00004019    -0.00001724    -0.00069486
N        -0.04821332    -0.09425944     1.42207587    -0.00013042    -0.00009216     0.00054917
H         0.97821424     0.01806435    -0.53071034     0.00028104     0.00039344    -0.00044082
H         0.88367947    -0.00186394     1.84273773     0.00091789     0.00048674     0.00096694
H        -0.93722653     0.10665421     1.89789376     0.00074895     0.00018467     0.00019638
H        -1.05101184     0.09091636    -0.60329622     0.00034345     0.00042120    -0.00007398
     6
  Step:    32            Position(A)                                  Velocity(au)
C        -0.03519999     0.03567269    -0.12769195    -0.00004443    -0.00002018    -0.00066432
N        -0.04892845    -0.09477275     1.42506906    -0.00012361    -0.00009135     0.00052076
H         0.97976437     0.02024730    -0.53325332     0.00027095     0.00038549    -0.00046710
H         0.88872734     0.00090239     1.84818394     0.00087312     0.00050180     0.00097189
H        -0.93314682     0.10769988     1.89908072     0.00069976     0.00018978     0.00023222
H        -1.04890372     0.09330203    -0.60365682     0.00040326     0.00043283    -0.00005765
     6
  Step:    33            Position(A)                                  Velocity(au)
C        -0.03545825     0.03555147    -0.13132395    -0.00004702    -0.00002318    -0.00063383
N        -0.04959682    -0.09528185     1.42790467    -0.00011402    -0.00009069     0.00049310
H         0.98124694     0.02237910    -0.53593846     0.00025705     0.00037478    -0.00049228
H         0.89345212     0.00375257     1.85361594     0.00080468     0.00051780     0.00096319
H        -0.92939427     0.10877834     1.90049292     0.00063362     0.00019561     0.00027656
H        -1.04649818     0.09576091    -0.60394147     0.00044948     0.00044827    -0.00004700
     6
  Step:    34            Position(A)                                  Velocity(au)
C        -0.03572612     0.03541338    -0.13478381    -0.00004778    -0.00002625    -0.00060296
N        -0.05020422    -0.09578748     1.43058629    -0.00010219    -0.00009014     0.00046589
H         0.98264050     0.02444073    -0.53876144     0.00023951     0.00035955    -0.00051759
H         0.89773082     0.00669597     1.85896093     0.00071619     0.00053688     0.00094226
H        -0.92605725     0.10988858     1.90217508     0.00055303     0.00019976     0.00032852
H        -1.04387455     0.09831764    -0.60418271     0.00048074     0.00046925    -0.00004247
     6
  Step:    35            Position(A)                                  Velocity(au)
C        -0.03599266     0.03525792    -0.13806735    -0.00004637    -0.00002945    -0.00057029
N        -0.05073968    -0.09628998     1.43311509    -0.00008874    -0.00008957     0.00043818
H         0.98392560     0.02640029    -0.54172715     0.00021938     0.00033625    -0.00054596
H         0.90146190     0.00975694     1.86415399     0.00061171     0.00056282     0.00091037
H        -0.92320928     0.11101241     1.90416702     0.00046052     0.00019783     0.00038754
H        -1.04112161     0.10100890    -0.60441646     0.00049414     0.00049880    -0.00004548
     6
  Step:    36            Position(A)                                  Velocity(au)
C        -0.03624443     0.03508415    -0.14115845    -0.00004223    -0.00003292    -0.00053072
N        -0.05119617    -0.09678867     1.43548423    -0.00007447    -0.00008858     0.00040650
H         0.98509267     0.02819923    -0.54486408     0.00020197     0.00029815    -0.00058580
H         0.90456835     0.01298702     1.86913693     0.00049640     0.00060138     0.00086883
H        -0.92090960     0.11209984     1.90650696     0.00035821     0.00018250     0.00045416
H        -1.03835113     0.10389315    -0.60469108     0.00048151     0.00054129    -0.00006203
     6
  Step:    37            Position(A)                                  Velocity(au)
C        -0.03646438     0.03489015    -0.14399595    -0.00003965    -0.00004082    -0.00052385
N        -0.05157159    -0.09727954     1.43765608    -0.00006647    -0.00009582     0.00040224
H         0.98618175     0.02973084    -0.54827104     0.00022703     0.00027098    -0.00072428
H         0.90700716     0.01647488     1.87385960     0.00041843     0.00071946     0.00091112
H        -0.91920777     0.11305108     1.90924042     0.00027525     0.00017129     0.00058653
H        -1.03574273     0.10705562    -0.60510939     0.00047552     0.00065627    -0.00012078
     6
  Step:    38            Position(A)                                  Velocity(au)
C        -0.03670348     0.03465585    -0.14676596    -0.00004418    -0.00004314    -0.00048046
N        -0.05188551    -0.09780977     1.43978486    -0.00004619    -0.00009490     0.00036905
H         0.98755296     0.03142312    -0.55239412     0.00024338     0.00032775    -0.00073982
H         0.90898136     0.02022891     1.87885981     0.00028279     0.00063982     0.00087469
H        -0.91795196     0.11430790     1.91264257     0.00017602     0.00026769     0.00063183
H        -1.03313238     0.11051284    -0.60596338     0.00046620     0.00059750    -0.00016998
     6
  Step:    39            Position(A)                                  Velocity(au)
C        -0.03695738     0.03440884    -0.14935690    -0.00004541    -0.00004550    -0.00045229
N        -0.05208698    -0.09833839     1.44177393    -0.00002643    -0.00009484     0.00034713
H         0.98889739     0.03338783    -0.55652596     0.00022954     0.00037008    -0.00073818
H         0.91016249     0.02361400     1.88361937     0.00013841     0.00058329     0.00082836
H        -0.91724374     0.11603791     1.91629032     0.00008016     0.00034377     0.00067539
H        -1.03054086     0.11372250    -0.60700603     0.00046029     0.00056297    -0.00019995
     6
  Step:    40            Position(A)                                  Velocity(au)
C        -0.03720984     0.03414847    -0.15180946    -0.00004419    -0.00004797    -0.00042926
N        -0.05218024    -0.09886730     1.44365575    -0.00000750    -0.00009499     0.00032955
H         0.99011258     0.03554988    -0.56062562     0.00020168     0.00040205    -0.00073127
H         0.91052475     0.02673316     1.88809681    -0.00000863     0.00054083     0.00077629
H        -0.91705806     0.11814130     1.92017381    -0.00000969     0.00040562     0.00071607
H        -1.02799964     0.11679048    -0.60819304     0.00044746     0.00054311    -0.00022544
     6
  Step:    41            Position(A)                                  Velocity(au)
C        -0.03744978     0.03387424    -0.15414060    -0.00004122    -0.00005053    -0.00040864
N        -0.05217062    -0.09939690     1.44544636     0.00001035    -0.00009516     0.00031438
H         0.99114487     0.03786822    -0.56467520     0.00016585     0.00042825    -0.00072162
H         0.91006632     0.02964099     1.89227031    -0.00015456     0.00050620     0.00072135
H        -0.91735178     0.12055814     1.92427009    -0.00009051     0.00045836     0.00075168
H        -1.02555437     0.11977484    -0.60951829     0.00042659     0.00053168    -0.00025080
     6
  Step:    42            Position(A)                                  Velocity(au)
C        -0.03766893     0.03358574    -0.15636046    -0.00003693    -0.00005315    -0.00038956
N        -0.05206495    -0.09992708     1.44715699     0.00002686    -0.00009529     0.00030102
H         0.99195962     0.04031923    -0.56866222     0.00012468     0.00045102    -0.00070989
H         0.90880347     0.03237071     1.89613047    -0.00029631     0.00047662     0.00066548
H        -0.91806608     0.12324601     1.92854520    -0.00015974     0.00050418     0.00078045
H        -1.02324878     0.12271178    -0.61098614     0.00039826     0.00052573    -0.00027718
     6
  Step:    43            Position(A)                                  Velocity(au)
C        -0.03786087     0.03328265    -0.15847649    -0.00003161    -0.00005583    -0.00037166
N        -0.05187167    -0.10045749     1.44879682     0.00004174    -0.00009534     0.00028918
H         0.99253263     0.04288821    -0.57257640     0.00007978     0.00047161    -0.00069640
H         0.90676835     0.03494587     1.89967728    -0.00043113     0.00045081     0.00061023
H        -0.91912977     0.12616982     1.93295671    -0.00021544     0.00054402     0.00080105
H        -1.02112165     0.12562636    -0.61260341     0.00036346     0.00052369    -0.00030479
     6
  Step:    44            Position(A)                                  Velocity(au)
C        -0.03802061     0.03296472    -0.16049475    -0.00002550    -0.00005855    -0.00035474
N        -0.05160062    -0.10098762     1.45037383     0.00005476    -0.00009529     0.00027867
H         0.99284708     0.04556542    -0.57640894     0.00003235     0.00049073    -0.00068143
H         0.90400760     0.03738549     1.90291859    -0.00055650     0.00042821     0.00055693
H        -0.92046261     0.12929765     1.93745599    -0.00025624     0.00057827     0.00081252
H        -1.01920569     0.12853726    -0.61437654     0.00032331     0.00052460    -0.00033340
     6