|===============================================================================
|
|  DFTB+ release 20.1
|
|  Copyright (C) 2006 - 2020  DFTB+ developers group
|
|===============================================================================
|
|  When publishing results obtained with DFTB+, please cite the following
|  reference:
|
|  * DFTB+, a software package for efficient approximate density functional
|    theory based atomistic simulations, J. Chem. Phys. 152, 124101 (2020).
|    [doi: 10.1063/1.5143190]
|
|  You should also cite additional publications crediting the parametrization
|  data you use. Please consult the documentation of the SK-files for the
|  references.
|
|===============================================================================

Reading input file 'dftb_in.hsd'
Parser version: 8

--------------------------------------------------------------------------------
Reading SK-files:
Done.


Processed input in HSD format written to 'dftb_pin.hsd'

Starting initialization...
--------------------------------------------------------------------------------
WARNING!
-> Excited state forces are not implemented yet for fractional occupations, kT=  0.3158E-02K
OpenMP threads:              1
Chosen random seed:          508437961
Mode:                        Static calculation
Self consistent charges:     Yes
SCC-tolerance:                 0.100000E-05
Max. scc iterations:                    100
Shell resolved Hubbard:      No
Spin polarisation:           No
Nr. of up electrons:             6.000000
Nr. of down electrons:           6.000000
Periodic boundaries:         No
Electronic solver:           Relatively robust
Mixer:                       Broyden mixer
Mixing parameter:                  0.200000
Maximal SCC-cycles:                     100
Nr. of chrg. vec. in memory:              0
Electronic temperature:        0.100000E-07 H      0.272114E-06 eV
Initial charges:             Set automatically (system chrg:   0.100E+01)
Included shells:             C:  s, p
                             N:  s, p
                             H:  s
Extra options:
                             Mulliken analysis
                             Force calculation
Force type                   original
                             Eigenvector printing

--------------------------------------------------------------------------------

***  Geometry step: 0

 iSCC Total electronic   Diff electronic      SCC error    
    1   -0.53895333E+01    0.00000000E+00    0.73422524E+00
    2   -0.53944728E+01   -0.49395186E-02    0.49345594E+00
    3   -0.53975433E+01   -0.30704881E-02    0.97631794E-01
    4   -0.53978551E+01   -0.31178236E-03    0.52066657E-01
    5   -0.53979614E+01   -0.10629668E-03    0.94527148E-02
    6   -0.53979619E+01   -0.51094884E-06    0.22409334E-02
    7   -0.53979620E+01   -0.10230854E-06    0.69860137E-04
    8   -0.53979620E+01   -0.13847057E-09    0.65117824E-04
    9   -0.53979620E+01   -0.18815793E-09    0.26567243E-05
   10   -0.53979620E+01   -0.46718185E-12    0.38975373E-06
>> Charges saved for restart in charges.bin

Total Energy:                       -5.0928697092 H         -138.5840 eV
Extrapolated to 0:                  -5.2058184530 H         -141.6575 eV
Total Mermin free energy:           -5.0928697092 H         -138.5840 eV
Force related energy:               -5.2058184530 H         -141.6575 eV

--------------------------------------------------------------------------------
DFTB+ running times                          cpu [s]             wall clock [s]
--------------------------------------------------------------------------------
SCC                                    +     0.01  ( 49.0%)      0.05  ( 72.0%)
Post-SCC processing                    +     0.01  ( 44.5%)      0.02  ( 22.7%)
--------------------------------------------------------------------------------
Missing                                +     0.00  (  6.5%)      0.00  (  5.3%)
Total                                  =     0.03  (100.0%)      0.08  (100.0%)
--------------------------------------------------------------------------------
