|===============================================================================
|
|  DFTB+ release 20.1
|
|  Copyright (C) 2006 - 2020  DFTB+ developers group
|
|===============================================================================
|
|  When publishing results obtained with DFTB+, please cite the following
|  reference:
|
|  * DFTB+, a software package for efficient approximate density functional
|    theory based atomistic simulations, J. Chem. Phys. 152, 124101 (2020).
|    [doi: 10.1063/1.5143190]
|
|  You should also cite additional publications crediting the parametrization
|  data you use. Please consult the documentation of the SK-files for the
|  references.
|
|===============================================================================

Reading input file 'dftb_in.hsd'
Parser version: 8

--------------------------------------------------------------------------------
Reading SK-files:
Done.


Processed input in HSD format written to 'dftb_pin.hsd'

Starting initialization...
--------------------------------------------------------------------------------
OpenMP threads:              1
Chosen random seed:          501390816
Mode:                        Static calculation
Self consistent charges:     Yes
SCC-tolerance:                 0.100000E-05
Max. scc iterations:                   1000
Shell resolved Hubbard:      No
Spin polarisation:           No
Nr. of up electrons:            16.000000
Nr. of down electrons:          16.000000
Periodic boundaries:         No
Electronic solver:           Relatively robust
Maximal SCC-cycles:                    1000
Initial charges:             Set automatically (system chrg:   0.100E+01)
Included shells:             C:  s, p
                             H:  s
                             N:  s, p
Spin coupling constants:     C   1(s)-1(s):  -0.455900E-01
                             C   1(s)-2(p):  -0.293000E-01
                             C   2(p)-1(s):  -0.293000E-01
                             C   2(p)-2(p):  -0.275500E-01
                             H   1(s)-1(s):  -0.792500E-01
                             N   1(s)-1(s):  -0.468700E-01
                             N   1(s)-2(p):  -0.317000E-01
                             N   2(p)-1(s):  -0.317000E-01
                             N   2(p)-2(p):  -0.307200E-01
Range separated hybrid:      Yes
  Screening parameter omega:   0.300000E+00
  Range separated algorithm:   MatrixBased
Extra options:
                             Mulliken analysis
                             Force calculation
Force type                   original
                             Eigenvector printing


REKS Calcuation:             Yes
SSR(2,2) Calcuation:         Yes
Energy Functional:           (PPS+OSS)/2
Number of Core Orbitals:                 15
Number of Active Orbitals:                2
Number of Basis:                         32
Number of States:                         2
State-Averaging Weight:          0.500000
                                 0.500000
State of Interest:                        1
Initial Guess:               Diagonalize H0 matrix
Newton-Raphson for FON opt:  Yes
NR max. Iterations:                      50
Level Shifting:              Yes
Shift Value:                     0.300000
W Scale Factor:              C  =    3.200000
                             H  =    3.200000
                             N  =    3.200000
Transition Dipole:           No
Gradient of Microstate:      No
CP-REKS Solver:              Preconditioned Conjugate-Gradient
CG max. Iterations:                     100
CG Tolerance:                  0.100000E-07
Memory for A and Hxc:        Direct Updating Without Saving
Non-Adiabatic Coupling:      Yes

--------------------------------------------------------------------------------

***  Geometry step: 0

  iSCC       reks energy        Diff energy         x_a       SCC error   
    1      -16.4017092604       0.0000000000     0.999850    1.19568586
    2      -16.4171396287      -0.0154303683     0.999986    0.05716201
    3      -16.4218181402      -0.0046785116     0.999997    0.03277193
    4      -16.4238722809      -0.0020541406     0.999999    0.02015826
    5      -16.4249522113      -0.0010799305     1.000000    0.01320343
    6      -16.4255738950      -0.0006216837     1.000000    0.00903245
    7      -16.4259509539      -0.0003770589     1.000000    0.00671593
    8      -16.4261875974      -0.0002366435     1.000000    0.00542463
    9      -16.4263398209      -0.0001522236     1.000000    0.00436157
   10      -16.4264396108      -0.0000997899     1.000000    0.00350456
   11      -16.4265060317      -0.0000664209     1.000000    0.00281958
   12      -16.4265508110      -0.0000447793     1.000000    0.00227332
   13      -16.4265813391      -0.0000305282     1.000000    0.00183733
   14      -16.4266023632      -0.0000210241     1.000000    0.00148860
   15      -16.4266169792      -0.0000146160     1.000000    0.00120894
   16      -16.4266272319      -0.0000102528     1.000000    0.00098408
   17      -16.4266344870      -0.0000072550     1.000000    0.00080283
   18      -16.4266396649      -0.0000051779     1.000000    0.00065638
   19      -16.4266433917      -0.0000037268     1.000000    0.00053777
   20      -16.4266460967      -0.0000027051     1.000000    0.00044151
   21      -16.4266480767      -0.0000019800     1.000000    0.00036320
   22      -16.4266495382      -0.0000014615     1.000000    0.00029938
   23      -16.4266506260      -0.0000010878     1.000000    0.00024725
   24      -16.4266514425      -0.0000008165     1.000000    0.00020459
   25      -16.4266520606      -0.0000006180     1.000000    0.00016961
   26      -16.4266525323      -0.0000004717     1.000000    0.00014086
   27      -16.4266528954      -0.0000003631     1.000000    0.00012581
   28      -16.4266531772      -0.0000002818     1.000000    0.00011478
   29      -16.4266533977      -0.0000002205     1.000000    0.00010473
   30      -16.4266535716      -0.0000001739     1.000000    0.00009558
   31      -16.4266537098      -0.0000001383     1.000000    0.00008725
   32      -16.4266538206      -0.0000001108     1.000000    0.00007966
   33      -16.4266539101      -0.0000000895     1.000000    0.00007276
   34      -16.4266539828      -0.0000000728     1.000000    0.00006851
   35      -16.4266540424      -0.0000000596     1.000000    0.00006488
   36      -16.4266540916      -0.0000000491     1.000000    0.00006140
   37      -16.4266541323      -0.0000000408     1.000000    0.00005805
   38      -16.4266541664      -0.0000000340     1.000000    0.00005485
   39      -16.4266541950      -0.0000000286     1.000000    0.00005180
   40      -16.4266542191      -0.0000000241     1.000000    0.00004889
   41      -16.4266542395      -0.0000000205     1.000000    0.00004613
   42      -16.4266542570      -0.0000000174     1.000000    0.00004350
   43      -16.4266542719      -0.0000000149     1.000000    0.00004101
   44      -16.4266542847      -0.0000000128     1.000000    0.00003865
   45      -16.4266542957      -0.0000000110     1.000000    0.00003642
   46      -16.4266543053      -0.0000000095     1.000000    0.00003431
   47      -16.4266543135      -0.0000000083     1.000000    0.00003231
   48      -16.4266543207      -0.0000000072     1.000000    0.00003043
   49      -16.4266543269      -0.0000000062     1.000000    0.00002865
   50      -16.4266543324      -0.0000000054     1.000000    0.00002697
   51      -16.4266543372      -0.0000000048     1.000000    0.00002539
   52      -16.4266543413      -0.0000000042     1.000000    0.00002390
   53      -16.4266543450      -0.0000000037     1.000000    0.00002249
   54      -16.4266543482      -0.0000000032     1.000000    0.00002116
   55      -16.4266543510      -0.0000000028     1.000000    0.00001991
   56      -16.4266543535      -0.0000000025     1.000000    0.00001874
   57      -16.4266543556      -0.0000000022     1.000000    0.00001763
   58      -16.4266543576      -0.0000000019     1.000000    0.00001659
   59      -16.4266543592      -0.0000000017     1.000000    0.00001561
   60      -16.4266543607      -0.0000000015     1.000000    0.00001468
   61      -16.4266543620      -0.0000000013     1.000000    0.00001381
   62      -16.4266543632      -0.0000000012     1.000000    0.00001299
   63      -16.4266543642      -0.0000000010     1.000000    0.00001222
   64      -16.4266543651      -0.0000000009     1.000000    0.00001150
   65      -16.4266543659      -0.0000000008     1.000000    0.00001082
   66      -16.4266543666      -0.0000000007     1.000000    0.00001017
   67      -16.4266543672      -0.0000000006     1.000000    0.00000957
   68      -16.4266543678      -0.0000000005     1.000000    0.00000900
   69      -16.4266543683      -0.0000000005     1.000000    0.00000847
   70      -16.4266543687      -0.0000000004     1.000000    0.00000796
   71      -16.4266543691      -0.0000000004     1.000000    0.00000749
   72      -16.4266543694      -0.0000000003     1.000000    0.00000705
   73      -16.4266543697      -0.0000000003     1.000000    0.00000663
   74      -16.4266543700      -0.0000000003     1.000000    0.00000623
   75      -16.4266543702      -0.0000000002     1.000000    0.00000586
   76      -16.4266543704      -0.0000000002     1.000000    0.00000552
   77      -16.4266543706      -0.0000000002     1.000000    0.00000519
   78      -16.4266543708      -0.0000000002     1.000000    0.00000488
   79      -16.4266543709      -0.0000000001     1.000000    0.00000459
   80      -16.4266543710      -0.0000000001     1.000000    0.00000432
   81      -16.4266543711      -0.0000000001     1.000000    0.00000406
   82      -16.4266543712      -0.0000000001     1.000000    0.00000382
   83      -16.4266543713      -0.0000000001     1.000000    0.00000359
   84      -16.4266543714      -0.0000000001     1.000000    0.00000338
   85      -16.4266543715      -0.0000000001     1.000000    0.00000318
   86      -16.4266543715      -0.0000000001     1.000000    0.00000299
   87      -16.4266543716      -0.0000000001     1.000000    0.00000281
   88      -16.4266543716      -0.0000000000     1.000000    0.00000264
   89      -16.4266543717      -0.0000000000     1.000000    0.00000249
   90      -16.4266543717      -0.0000000000     1.000000    0.00000234
   91      -16.4266543717      -0.0000000000     1.000000    0.00000220
   92      -16.4266543718      -0.0000000000     1.000000    0.00000207
   93      -16.4266543718      -0.0000000000     1.000000    0.00000195
   94      -16.4266543718      -0.0000000000     1.000000    0.00000183
   95      -16.4266543718      -0.0000000000     1.000000    0.00000172
   96      -16.4266543719      -0.0000000000     1.000000    0.00000162
   97      -16.4266543719      -0.0000000000     1.000000    0.00000152
   98      -16.4266543719      -0.0000000000     1.000000    0.00000143
   99      -16.4266543719      -0.0000000000     1.000000    0.00000135
  100      -16.4266543719      -0.0000000000     1.000000    0.00000127
  101      -16.4266543719      -0.0000000000     1.000000    0.00000119
  102      -16.4266543719      -0.0000000000     1.000000    0.00000112
  103      -16.4266543719      -0.0000000000     1.000000    0.00000106
  104      -16.4266543719      -0.0000000000     1.000000    0.00000099
  
--------------------------------------------------
 Final SA-REKS(2,2) energy:     -16.42665437
  
 State     Energy      FON(1)    FON(2)   Spin
  PPS  -16.49507916   2.000000  0.000000  0.00
  OSS  -16.35822958   1.000000  1.000000  0.00
 Trip  -16.37671424   1.000000  1.000000  1.00
--------------------------------------------------

 Lagrangian Wab:  -0.00192588 -0.00192586

--------------------------------------------------
 SSR: 2SI-2SA-REKS(2,2) Hamiltonian matrix
               PPS           OSS
   PPS   -16.49507916   -0.00272347
   OSS    -0.00272347  -16.35822958
--------------------------------------------------

----------------------------------------------------------------
 SSR: 2SI-2SA-REKS(2,2) states
                    E_n       C_{PPS}    C_{OSS}
 SSR state  1  -16.49513334  -0.999802  -0.019889
 SSR state  2  -16.35817540   0.019889  -0.999802
----------------------------------------------------------------

 unrelaxed SSR FONs for S0:  1.999604  0.000396

Total Energy:                      -16.4951333390 H         -448.8554 eV
Extrapolated to 0:                 -16.4951333390 H         -448.8554 eV

----------------------------------------------------------------------------------
 Solving CP-REKS equation for  1 state vector...
----------------------------------------------------------------------------------
  CG solver: Constructing Y initial guess
  CG solver: Iteration    1    eps =    0.000347026402
  CG solver: Iteration    2    eps =    0.000023373828
  CG solver: Iteration    3    eps =    0.000006649823
  CG solver: Iteration    4    eps =    0.000000756175
  CG solver: Iteration    5    eps =    0.000000542991
  CG solver: Iteration    6    eps =    0.000000376820
  CG solver: Iteration    7    eps =    0.000000072528
  CG solver: Iteration    8    eps =    0.000000013355
  CG solver: Iteration    9    eps =    0.000000003584
  Convergence reached in CG solver after    9 iterations
  CG solver: Calculating converged R, Z, Q2 matrix
----------------------------------------------------------------------------------

----------------------------------------------------------------------------------
 Solving CP-REKS equation for SI between  1 and  2 state vectors...
----------------------------------------------------------------------------------
  CG solver: Constructing Y initial guess
  CG solver: Iteration    1    eps =    0.007296140393
  CG solver: Iteration    2    eps =    0.001868603730
  CG solver: Iteration    3    eps =    0.000057045953
  CG solver: Iteration    4    eps =    0.000025735964
  CG solver: Iteration    5    eps =    0.000044136945
  CG solver: Iteration    6    eps =    0.000009955589
  CG solver: Iteration    7    eps =    0.000002179715
  CG solver: Iteration    8    eps =    0.000000187569
  CG solver: Iteration    9    eps =    0.000000020834
  CG solver: Iteration   10    eps =    0.000000008859
  Convergence reached in CG solver after   10 iterations
  CG solver: Calculating converged R, Z, Q2 matrix
----------------------------------------------------------------------------------

--------------------------------------------------
 Gradient Information
--------------------------------------------------
           1 st state (SSR)
    -0.00433986    -0.00929658    -0.02422920
    -0.01895981     0.06320542    -0.01700768
     0.00541582    -0.00836842     0.01000512
     0.00061353    -0.01076998    -0.00209900
     0.01290286    -0.02257311     0.00694738
    -0.04840736    -0.05177814     0.03768198
     0.01649199     0.02527453     0.00915111
    -0.00240601     0.01841846    -0.00324074
     0.01800999    -0.02070197     0.00516180
     0.02784705    -0.05384442     0.00673756
    -0.01855499     0.03793551     0.00397228
     0.03286201     0.02454950    -0.04487868
    -0.02024966     0.00518463     0.02632005
    -0.00122556     0.00276457    -0.01452201

           2 st state (SSR)
    -0.00169702    -0.00659193    -0.02138228
    -0.02524420     0.08389412    -0.02696111
     0.00566807    -0.00837113     0.01084883
     0.00012416    -0.01121365    -0.00147526
     0.01096933    -0.02626257     0.00411110
     0.01516458    -0.04800900     0.04188942
    -0.03473938     0.03845304     0.01607022
     0.00141372     0.00447735    -0.00510806
     0.01836378    -0.01346769     0.00085286
     0.01048503     0.05069215    -0.03681997
    -0.01184768     0.04124155     0.00169503
     0.02407995    -0.12463498     0.00252573
    -0.01040934     0.01181216     0.02486296
    -0.00233101     0.00798058    -0.01110948
--------------------------------------------------
 Coupling Information
--------------------------------------------------
 between  1 and  2 states
--------------------------------------------------
 g vector - difference gradient
    -0.00143145    -0.00125414    -0.00132319
     0.00304651    -0.01051408     0.00464415
    -0.00010571     0.00000328    -0.00043667
     0.00026513     0.00021729    -0.00031037
     0.00109841     0.00186561     0.00141591
    -0.03149131    -0.00160303    -0.00164619
     0.02546787    -0.00640305    -0.00371249
    -0.00194294     0.00673137     0.00093004
    -0.00023723    -0.00367258     0.00211073
     0.00867635    -0.05312335     0.02205976
    -0.00334463    -0.00164164     0.00117844
     0.00441587     0.07539263    -0.02391428
    -0.00490457    -0.00333413     0.00075961
     0.00048771    -0.00266419    -0.00175547

 h vector - derivative coupling
     0.00273826    -0.00249370    -0.00254760
     0.00246634     0.00405854     0.00845432
    -0.00051543    -0.00004847     0.00036381
    -0.00050883     0.00011851    -0.00004384
    -0.00328818    -0.00048785     0.00008413
    -0.00803535    -0.00711100    -0.01153686
     0.00422324    -0.00480937     0.00628586
     0.00079318     0.00614813     0.00010953
     0.00151233     0.00132082     0.00114198
     0.00028982     0.02044288    -0.00662659
    -0.00029344    -0.00031880    -0.00097786
    -0.00053680    -0.01862510     0.00485679
    -0.00048960     0.00044577    -0.00076588
     0.00164445     0.00135965     0.00120221

 G vector - GDV
    -0.00132142    -0.00135232    -0.00142346
     0.00314219    -0.01034435     0.00497672
    -0.00012613     0.00000135    -0.00042185
     0.00024469     0.00022183    -0.00031187
     0.00096677     0.00184473     0.00141814
    -0.03178597    -0.00188457    -0.00210372
     0.02561568    -0.00658925    -0.00345955
    -0.00190986     0.00697056     0.00093366
    -0.00017690    -0.00361714     0.00215447
     0.00868101    -0.05226829     0.02177877
    -0.00335365    -0.00165302     0.00113862
     0.00439103     0.07459224    -0.02370220
    -0.00492016    -0.00331376     0.00072855
     0.00055272    -0.00260800    -0.00170626

 H vector - DCV - non-adiabatic coupling
     0.02039329    -0.01782920    -0.01820238
     0.01710908     0.03266323     0.06033185
    -0.00372973    -0.00035461     0.00278103
    -0.00378932     0.00080155    -0.00022970
    -0.02430863    -0.00410098     0.00020259
    -0.04947909    -0.05141449    -0.08369183
     0.02341611    -0.03322851     0.04693804
     0.00635107     0.04290040     0.00052902
     0.01110244     0.01070280     0.00771868
    -0.00040503     0.16457220    -0.05475169
    -0.00116964    -0.00184920    -0.00747638
    -0.00519870    -0.15777692     0.04237825
    -0.00214775     0.00422042    -0.00580824
     0.01185588     0.01069332     0.00928077
--------------------------------------------------


--------------------------------------------------------------------------------
DFTB+ running times                          cpu [s]             wall clock [s]
--------------------------------------------------------------------------------
SCC                                    +     0.15  ( 34.2%)      0.15  ( 34.2%)
      Dense to sparse                        0.03  (  6.6%)      0.03  (  7.0%)
      Range separated Hamiltonian            0.01  (  2.9%)      0.01  (  3.0%)
  Density matrix creation                    0.02  (  3.7%)      0.02  (  4.2%)
Post-SCC processing                    +     0.28  ( 65.5%)      0.28  ( 65.1%)
  Force calculation                          0.28  ( 65.4%)      0.28  ( 64.9%)
--------------------------------------------------------------------------------
Missing                                +     0.00  (  0.3%)      0.00  (  0.7%)
Total                                  =     0.43  (100.0%)      0.43  (100.0%)
--------------------------------------------------------------------------------
