 Fermi distribution function

Calculation with static geometry


********************************************************************************
 iSCC Total electronic   Diff electronic      SCC error    
   10   -0.54086470E+01   -0.67501560E-13    0.38257836E-07
********************************************************************************

 Total charge:     1.00000000

 Atomic gross charges (e)
 Atom           Charge
    1       0.24343478
    2      -0.13136810
    3       0.15739468
    4       0.29549646
    5       0.27168363
    6       0.16335855

Nr. of electrons (up):     12.00000000
Atom populations (up)
 Atom       Population
    1       3.75656522
    2       5.13136810
    3       0.84260532
    4       0.70450354
    5       0.72831637
    6       0.83664145

l-shell populations (up)
 Atom Sh.   l       Population
    1   1   0       1.30827645
    1   2   1       2.44828877
    2   1   0       1.42390367
    2   2   1       3.70746443
    3   1   0       0.84260532
    4   1   0       0.70450354
    5   1   0       0.72831637
    6   1   0       0.83664145

Orbital populations (up)
 Atom Sh.   l   m       Population  Label
    1   1   0   0       1.30827645  s
    1   2   1  -1       0.58056601  p_y
    1   2   1   0       0.88556442  p_z
    1   2   1   1       0.98215834  p_x
    2   1   0   0       1.42390367  s
    2   2   1  -1       1.38986867  p_y
    2   2   1   0       1.08199802  p_z
    2   2   1   1       1.23559774  p_x
    3   1   0   0       0.84260532  s
    4   1   0   0       0.70450354  s
    5   1   0   0       0.72831637  s
    6   1   0   0       0.83664145  s

Fermi level:                        -0.4869138930 H          -13.2496 eV
Band energy:                        -8.8836012712 H         -241.7351 eV
TS:                                  0.0000000000 H            0.0000 eV
Band free energy (E-TS):            -8.8836012712 H         -241.7351 eV
Extrapolated E(0K):                 -8.8836012712 H         -241.7351 eV
Input / Output electrons (q):     12.0000000000     12.0000000000

Energy H0:                          -5.5410231455 H         -150.7789 eV
Energy SCC:                          0.1323761248 H            3.6021 eV
Total Electronic energy:            -5.4086470207 H         -147.1768 eV
Repulsive energy:                    0.1853282688 H            5.0430 eV
Total energy:                       -5.2233187519 H         -142.1337 eV
Extrapolated to 0:                  -5.2233187519 H         -142.1337 eV
Total Mermin free energy:           -5.2233187519 H         -142.1337 eV
Force related energy:               -5.2233187519 H         -142.1337 eV

SCC converged

Excitation Energy:                   0.1340385137 H            3.6474 eV

Total Forces
    1     -0.004521885035     -0.003081303981      0.035274917538
    2      0.017527986138      0.017255635463     -0.043203519982
    3     -0.005025975408     -0.011106967605     -0.000490149243
    4     -0.020652545168      0.001567187227     -0.003652094210
    5      0.002245496466     -0.013312185246      0.006820352909
    6      0.010426923006      0.008677634141      0.005250492988

Maximal derivative component:        0.432035E-01 au


