     6
  Step:     0            Position(A)                                  Velocity(au)
C        -0.03366706     0.00752262     0.02260663    -0.00003776     0.00000447    -0.00022820
N        -0.04112264    -0.05946567     1.29143994     0.00003133    -0.00003325     0.00017878
H         0.92686382     0.03877299    -0.54873637     0.00020089    -0.00003124    -0.00003237
H         0.78864930    -0.07512111     1.84931068     0.00029421     0.00025974    -0.00031291
H        -0.95205041    -0.01231922     1.86456027    -0.00088350     0.00003371     0.00021802
H        -1.00376728     0.11560573    -0.48877873     0.00040297     0.00014660     0.00036211
     6
  Step:     1            Position(A)                                  Velocity(au)
C        -0.03386878     0.00754144     0.02097267    -0.00003554     0.00000234    -0.00036823
N        -0.04100839    -0.05968427     1.29274679     0.00001009    -0.00004664     0.00029855
H         0.92797923     0.03874920    -0.54879486     0.00020418     0.00002236     0.00001077
H         0.79077318    -0.07355626     1.84783194     0.00048124     0.00031279    -0.00022682
H        -0.95656243    -0.01200981     1.86546827    -0.00075973     0.00007882     0.00011189
H        -1.00167850     0.11656887    -0.48683960     0.00035763     0.00020626     0.00034335
     6
  Step:     2            Position(A)                                  Velocity(au)
C        -0.03405580     0.00754827     0.01857928    -0.00003245     0.00000009    -0.00050549
N        -0.04101229    -0.05997579     1.29470513    -0.00001160    -0.00005988     0.00041667
H         0.92909696     0.03901757    -0.54861861     0.00020171     0.00007547     0.00005289
H         0.79391261    -0.07170014     1.84682993     0.00066340     0.00036612    -0.00013968
H        -0.96035948    -0.01145722     1.86578397    -0.00062385     0.00012259     0.00000292
H        -0.99985592     0.11786161    -0.48502353     0.00030654     0.00026690     0.00031716
     6
  Step:     3            Position(A)                                  Velocity(au)
C        -0.03422365     0.00754247     0.01544465    -0.00002858    -0.00000224    -0.00063833
N        -0.04113520    -0.06033916     1.29730344    -0.00003314    -0.00007281     0.00053178
H         0.93018516     0.03957458    -0.54821648     0.00019350     0.00012760     0.00009275
H         0.79802805    -0.06955244     1.84630447     0.00083544     0.00041879    -0.00005361
H        -0.96338477    -0.01066920     1.86550022    -0.00047889     0.00016464    -0.00010589
H        -0.99832618     0.11948761    -0.48337117     0.00025097     0.00032754     0.00028336
     6
  Step:     4            Position(A)                                  Velocity(au)
C        -0.03436840     0.00752371     0.01159621    -0.00002403    -0.00000461    -0.00076452
N        -0.04137482    -0.06077230     1.30052255    -0.00005391    -0.00008517     0.00064200
H         0.93121375     0.04041345    -0.54760397     0.00018019     0.00017795     0.00012907
H         0.80305191    -0.06711873     1.84624343     0.00099178     0.00046945     0.00002897
H        -0.96559826    -0.00965611     1.86462560    -0.00032827     0.00020435    -0.00021145
H        -0.99711042     0.12144470    -0.48192366     0.00019172     0.00038686     0.00024201
     6
  Step:     5            Position(A)                                  Velocity(au)
C        -0.03448673     0.00749196     0.00707379    -0.00001893    -0.00000696    -0.00088126
N        -0.04172543    -0.06127174     1.30433280    -0.00007321    -0.00009667     0.00074494
H         0.93215803     0.04152298    -0.54680329     0.00016305     0.00022559     0.00016058
H         0.80888720    -0.06441235     1.84662166     0.00112678     0.00051648     0.00010551
H        -0.96697903    -0.00843178     1.86318502    -0.00017609     0.00024099    -0.00031050
H        -0.99622705     0.12372338    -0.48072133     0.00012922     0.00044334     0.00019349
     6
  Step:     6            Position(A)                                  Velocity(au)
C        -0.03457601     0.00744738     0.00193251    -0.00001344    -0.00000926    -0.00098536
N        -0.04217764    -0.06183242     1.30869147    -0.00009034    -0.00010700     0.00083785
H         0.93300171     0.04288727    -0.54584311     0.00014384     0.00026962     0.00018608
H         0.81540795    -0.06145512     1.84740046     0.00123506     0.00055824     0.00017348
H        -0.96752920    -0.00701343     1.86122072    -0.00002719     0.00027396    -0.00039958
H        -0.99569339     0.12630627    -0.47980188     0.00006385     0.00049543     0.00013858
     6
  Step:     7            Position(A)                                  Velocity(au)
C        -0.03463448     0.00739020    -0.00375559    -0.00000775    -0.00001150    -0.00107359
N        -0.04271828    -0.06244769     1.31354098    -0.00010458    -0.00011585     0.00091783
H         0.93373890     0.04448619    -0.54475821     0.00012458     0.00030925     0.00020447
H         0.82246090    -0.05827712     1.84852828     0.00131194     0.00059325     0.00023063
H        -0.96727791    -0.00542092     1.85879347     0.00011292     0.00030280    -0.00047515
H        -0.99552529     0.12916830    -0.47919828    -0.00000378     0.00054170     0.00007850
     6
  Step:     8            Position(A)                                  Velocity(au)
C        -0.03466145     0.00732058    -0.00990140    -0.00000209    -0.00001370    -0.00114306
N        -0.04333042    -0.06310941     1.31880849    -0.00011529    -0.00012298     0.00098225
H         0.93437489     0.04629602    -0.54358927     0.00010727     0.00034386     0.00021483
H         0.82986907    -0.05491594     1.84994259     0.00135389     0.00062026     0.00027521
H        -0.96628449    -0.00367573     1.85598328     0.00023843     0.00032732    -0.00053377
H        -0.99573501     0.13227727    -0.47893665    -0.00007258     0.00058090     0.00001481
     6
  Step:     9            Position(A)                                  Velocity(au)
C        -0.03465755     0.00723860    -0.01640083     0.00000329    -0.00001587    -0.00119173
N        -0.04399373    -0.06380821     1.32440723    -0.00012197    -0.00012824     0.00102913
H         0.93492561     0.04829017    -0.54238168     0.00009373     0.00037307     0.00021657
H         0.83743846    -0.05141538     1.85157285     0.00135925     0.00063848     0.00030627
H        -0.96464021    -0.00179994     1.85288858     0.00034368     0.00034754    -0.00057256
H        -0.99632818     0.13559459    -0.47903442    -0.00014097     0.00061211    -0.00005064
     6
  Step:    10            Position(A)                                  Velocity(au)
C        -0.03462485     0.00714430    -0.02313962     0.00000813    -0.00001800    -0.00121900
N        -0.04468531    -0.06453396     1.33024042    -0.00012434    -0.00013160     0.00105769
H         0.93541605     0.05044017    -0.54118359     0.00008537     0.00039680     0.00020961
H         0.84496809    -0.04782343     1.85334472     0.00132874     0.00064769     0.00032377
H        -0.96246680     0.00018491     1.84962304     0.00042389     0.00036383    -0.00058969
H        -0.99730095     0.13907685    -0.47949915    -0.00020707     0.00063492    -0.00011598
     6
  Step:    11            Position(A)                                  Velocity(au)
C        -0.03456684     0.00703776    -0.03000120     0.00001219    -0.00002010    -0.00122609
N        -0.04538094    -0.06527643     1.33620779    -0.00012242    -0.00013320     0.00106872
H         0.93587807     0.05271720    -0.54004312     0.00008316     0.00041543     0.00019443
H         0.85226318    -0.04418915     1.85518509     0.00126581     0.00064845     0.00032871
H        -0.95991086     0.00225932     1.84630945     0.00047598     0.00037691    -0.00058480
H        -0.99863845     0.14267835    -0.48032838    -0.00026904     0.00064962    -0.00017956
     6
  Step:    12            Position(A)                                  Velocity(au)
C        -0.03448824     0.00691915    -0.03687629     0.00001532    -0.00002216    -0.00121611
N        -0.04605687    -0.06602623     1.34221400    -0.00011657    -0.00013337     0.00106471
H         0.93634774     0.05509452    -0.53900525     0.00008759     0.00042990     0.00017205
H         0.85914975    -0.04055838     1.85702748     0.00117627     0.00064222     0.00032303
H        -0.95713406     0.00440768     1.84307117     0.00049902     0.00038792    -0.00055918
H        -1.00031514     0.14635501    -0.48151087    -0.00032547     0.00065738    -0.00024025
     6
  Step:    13            Position(A)                                  Velocity(au)
C        -0.03439462     0.00678859    -0.04367315     0.00002717    -0.00003779    -0.00186160
N        -0.04669151    -0.06677578     1.34817764    -0.00016747    -0.00020677     0.00163672
H         0.93686274     0.05755031    -0.53810892     0.00015397     0.00068873     0.00022422
H         0.86548730    -0.03696906     1.85881674     0.00166464     0.00098426     0.00048233
H        -0.95430063     0.00662051     1.84002292     0.00077077     0.00062128    -0.00080387
H        -1.00229753     0.15006892    -0.48302939    -0.00058591     0.00102945    -0.00046418
     6
  Step:    14            Position(A)                                  Velocity(au)
C        -0.03423141     0.00656221    -0.05372105     0.00002964    -0.00004200    -0.00167239
N        -0.04759723    -0.06790345     1.35706878    -0.00014937    -0.00019006     0.00148934
H         0.93799736     0.06137063    -0.53728533     0.00024678     0.00065591     0.00006739
H         0.87448397    -0.03157548     1.86150549     0.00149175     0.00091383     0.00045845
H        -0.95008958     0.01000311     1.83574443     0.00069259     0.00057081    -0.00069074
H        -1.00599851     0.15584067    -0.48608637    -0.00070865     0.00100114    -0.00060324
     6
  Step:    15            Position(A)                                  Velocity(au)
C        -0.03405725     0.00631052    -0.06270926     0.00001766    -0.00002650    -0.00084807
N        -0.04839169    -0.06893918     1.36513019    -0.00007323    -0.00009930     0.00076597
H         0.93967173     0.06501626    -0.53734187     0.00019429     0.00035686    -0.00004776
H         0.88246724    -0.02656729     1.86403509     0.00074569     0.00048299     0.00024323
H        -0.94641721     0.01311775     1.83216051     0.00033241     0.00029989    -0.00031978
H        -1.01036378     0.16146444    -0.48989587    -0.00046512     0.00055595    -0.00041418
     6
  Step:    16            Position(A)                                  Velocity(au)
C        -0.03396195     0.00615448    -0.06742111     0.00001575    -0.00002878    -0.00082165
N        -0.04875424    -0.06949971     1.36939270    -0.00005483    -0.00009941     0.00074423
H         0.94083998     0.06707640    -0.53770486     0.00022036     0.00037336    -0.00008097
H         0.88625757    -0.02387534     1.86532410     0.00059755     0.00047103     0.00021326
H        -0.94478427     0.01487951     1.83061093     0.00024026     0.00032536    -0.00022690
H        -1.01305273     0.16459936    -0.49235905    -0.00048387     0.00055455    -0.00045660
     6
  Step:    17            Position(A)                                  Velocity(au)
C        -0.03387959     0.00598590    -0.07197826     0.00001326    -0.00003129    -0.00080254
N        -0.04901025    -0.07006058     1.37352578    -0.00003614    -0.00010056     0.00072853
H         0.94215764     0.06922815    -0.53825532     0.00024962     0.00039380    -0.00011524
H         0.88920821    -0.02125362     1.86644086     0.00045469     0.00046345     0.00018499
H        -0.94370685     0.01678812     1.82960080     0.00013918     0.00035584    -0.00013126
H        -1.01582226     0.16772029    -0.49504681    -0.00049932     0.00055730    -0.00049941
     6
  Step:    18            Position(A)                                  Velocity(au)
C        -0.03381321     0.00580350    -0.07642189     0.00001017    -0.00003397    -0.00078778
N        -0.04915956    -0.07062757     1.37756353    -0.00001719    -0.00010243     0.00071625
H         0.94363952     0.07149308    -0.53899731     0.00028075     0.00041712    -0.00015021
H         0.89135708    -0.01867760     1.86739880     0.00031567     0.00045858     0.00015858
H        -0.94322327     0.01887038     1.82913874     0.00003098     0.00039030    -0.00003300
H        -1.01865279     0.17084976    -0.49796018    -0.00050977     0.00056219    -0.00054143
     6
  Step:    19            Position(A)                                  Velocity(au)
C        -0.03376599     0.00560645    -0.08077683     0.00000648    -0.00003672    -0.00077503
N        -0.04920220    -0.07120455     1.38152545     0.00000180    -0.00010469     0.00070528
H         0.94529323     0.07388688    -0.53993301     0.00031233     0.00044227    -0.00018531
H         0.89273386    -0.01613179     1.86821202     0.00018056     0.00045515     0.00013448
H        -0.94336089     0.02114727     1.82923224    -0.00008140     0.00042759     0.00006676
H        -1.02151578     0.17399926    -0.50109393    -0.00051369     0.00056748    -0.00058137
     6
  Step:    20            Position(A)                                  Velocity(au)
C        -0.03374102     0.00539443    -0.08505494     0.00000224    -0.00003947    -0.00076272
N        -0.04913953    -0.07179375     1.38541955     0.00002043    -0.00010714     0.00069422
H         0.94711851     0.07641950    -0.54106142     0.00034296     0.00046840    -0.00021983
H         0.89336827    -0.01360776     1.86889681     0.00005061     0.00045229     0.00011339
H        -0.94413002     0.02363324     1.82988234    -0.00019408     0.00046660     0.00016612
H        -1.02437473     0.17717087    -0.50443603    -0.00051000     0.00057193    -0.00061816
     6
  Step:    21            Position(A)                                  Velocity(au)
C        -0.03374111     0.00516752    -0.08925937    -0.00000248    -0.00004214    -0.00074988
N        -0.04897503    -0.07239615     1.38924615     0.00003823    -0.00010962     0.00068225
H         0.94910745     0.07909614    -0.54237781     0.00037134     0.00049484    -0.00025307
H         0.89329671    -0.01110162     1.86947304    -0.00007219     0.00044957     0.00009612
H        -0.94551932     0.02633653     1.83107969    -0.00030269     0.00050632     0.00026280
H        -1.02718774     0.18035993    -0.50796875    -0.00049814     0.00057472    -0.00065100
     6
  Step:    22            Position(A)                                  Velocity(au)
C        -0.03376859     0.00492614    -0.09338799    -0.00000757    -0.00004470    -0.00073600
N        -0.04871472    -0.07301186     1.39300103     0.00005471    -0.00011200     0.00066895
H         0.95124505     0.08191838    -0.54387363     0.00039631     0.00052108    -0.00028436
H         0.89256609    -0.00861193     1.86996490    -0.00018554     0.00044678     0.00008354
H        -0.94749365     0.02925965     1.83280274    -0.00040284     0.00054580     0.00035446
H        -1.02991033     0.18355738    -0.51167027    -0.00047799     0.00057534    -0.00067938
     6
  Step:    23            Position(A)                                  Velocity(au)
C        -0.03382522     0.00467098    -0.09743575    -0.00001292    -0.00004710    -0.00072084
N        -0.04836724    -0.07364037     1.39667763     0.00006940    -0.00011422     0.00065415
H         0.95351008     0.08488495    -0.54553677     0.00041685     0.00054674    -0.00031310
H         0.89123555    -0.00613827     1.87040110    -0.00028711     0.00044391     0.00007647
H        -0.94999451     0.03239994     1.83501745    -0.00049044     0.00058423     0.00043887
H        -1.03249784     0.18675150    -0.51551611    -0.00044980     0.00057354    -0.00070302
     6
  Step:    24            Position(A)                                  Velocity(au)
C        -0.03391207     0.00440291    -0.10139623    -0.00001839    -0.00004932    -0.00070435
N        -0.04794372    -0.07428075     1.40026839     0.00008188    -0.00011621     0.00063786
H         0.95587601     0.08799237    -0.54735201     0.00043213     0.00057149    -0.00033879
H         0.88937644    -0.00368029     1.87081450    -0.00037475     0.00044106     0.00007562
H        -0.95294227     0.03575014     1.83767842    -0.00056204     0.00062085     0.00051414
H        -1.03490742     0.18992920    -0.51948048    -0.00041411     0.00056923    -0.00072183
     6
  Step:    25            Position(A)                                  Velocity(au)
C        -0.03402953     0.00412294    -0.10526268    -0.00002386    -0.00005134    -0.00068659
N        -0.04745735    -0.07493177     1.40376570     0.00009183    -0.00011796     0.00062016
H         0.95831210     0.09123550    -0.54930154     0.00044155     0.00059511    -0.00036105
H         0.88707115    -0.00123704     1.87124145    -0.00044666     0.00043841     0.00008154
H        -0.95624005     0.03929903     1.84073078    -0.00061496     0.00065507     0.00057881
H        -1.03709957     0.19307700    -0.52353728    -0.00037170     0.00056245    -0.00073590
     6
  Step:    26            Position(A)                                  Velocity(au)
C        -0.03417730     0.00383217    -0.10902868    -0.00002922    -0.00005316    -0.00066772
N        -0.04692292    -0.07559207     1.40716243     0.00009901    -0.00011945     0.00060125
H         0.96078451     0.09460793    -0.55136557     0.00044469     0.00061747    -0.00037959
H         0.88441116     0.00119333     1.87172090    -0.00050146     0.00043618     0.00009457
H        -0.95977848     0.04303220     1.84411270    -0.00064749     0.00068642     0.00063188
H        -1.03903938     0.19618168    -0.52766105    -0.00032350     0.00055335    -0.00074546
     6
  Step:    27            Position(A)                                  Velocity(au)
C        -0.03435445     0.00353175    -0.11268858    -0.00003435    -0.00005477    -0.00064796
N        -0.04635623    -0.07626024     1.41045237     0.00010331    -0.00012069     0.00058134
H         0.96325755     0.09810246    -0.55352308     0.00044134     0.00063847    -0.00039429
H         0.88149435     0.00361386     1.87229324    -0.00053831     0.00043461     0.00011489
H        -0.96344092     0.04693289     1.84775806    -0.00065883     0.00071461     0.00067288
H        -1.04069728     0.19923091    -0.53182774    -0.00027056     0.00054215    -0.00075088
     6
  Step:    28            Position(A)                                  Velocity(au)
C        -0.03455946     0.00322282    -0.11623787    -0.00003917    -0.00005618    -0.00062754
N        -0.04577348    -0.07693489     1.41363042     0.00010472    -0.00012170     0.00056067
H         0.96569486     0.10171147    -0.55575238     0.00043153     0.00065810    -0.00040509
H         0.87842198     0.00602874     1.87299911    -0.00055696     0.00043390     0.00014239
H        -0.96710860     0.05098291     1.85159917    -0.00064908     0.00073948     0.00070179
H        -1.04204967     0.20221357    -0.53601534    -0.00021400     0.00052911    -0.00075260
     6
  Step:    29            Position(A)                                  Velocity(au)
C        -0.03479037     0.00290646    -0.11967324    -0.00004359    -0.00005740    -0.00060670
N        -0.04519069    -0.07761476     1.41669277     0.00010332    -0.00012250     0.00053949
H         0.96806055     0.10542733    -0.55803185     0.00041543     0.00067644    -0.00041208
H         0.87529530     0.00844326     1.87387810    -0.00055772     0.00043425     0.00017680
H        -0.97066539     0.05516353     1.85556920    -0.00061915     0.00076106     0.00071901
H        -1.04307914     0.20512008    -0.54020438    -0.00015491     0.00051456    -0.00075113
     6
  Step:    30            Position(A)                                  Velocity(au)
C        -0.03504482     0.00258372    -0.12299272    -0.00004757    -0.00005845    -0.00058569
N        -0.04462312    -0.07829876     1.41963691     0.00009930    -0.00012313     0.00051802
H         0.97032016     0.10924274    -0.56034041     0.00039340     0.00069357    -0.00041542
H         0.87221244     0.01086359     1.87496755    -0.00054150     0.00043580     0.00021759
H        -0.97400203     0.05945637     1.85960444    -0.00057058     0.00077950     0.00072528
H        -1.04377445     0.20794249    -0.54437827    -0.00009439     0.00049877    -0.00074704
     6
  Step:    31            Position(A)                                  Velocity(au)
C        -0.03532017     0.00225550    -0.12619555    -0.00005107    -0.00005936    -0.00056470
N        -0.04408482    -0.07898598     1.42246159     0.00009292    -0.00012364     0.00049650
H         0.97244148     0.11315107    -0.56265803     0.00036588     0.00070967    -0.00041532
H         0.86926508     0.01329637     1.87630128    -0.00050971     0.00043858     0.00026405
H        -0.97701944     0.06384423     1.86364599    -0.00050540     0.00079510     0.00072156
H        -1.04413030     0.21067449    -0.54852355    -0.00003344     0.00048205    -0.00074089
     6
  Step:    32            Position(A)                                  Velocity(au)
C        -0.03561364     0.00192263    -0.12928200    -0.00005407    -0.00006013    -0.00054387
N        -0.04358822    -0.07967574     1.42516666     0.00008449    -0.00012404     0.00047508
H         0.97439514     0.11714664    -0.56496599     0.00033344     0.00072493    -0.00041204
H         0.86653553     0.01574830     1.87790842    -0.00046428     0.00044257     0.00031526
H        -0.97963088     0.06831172     1.86764084    -0.00042595     0.00080823     0.00070901
H        -1.04414694     0.21331128    -0.55262994     0.00002699     0.00046463    -0.00073327
     6
  Step:    33            Position(A)                                  Velocity(au)
C        -0.03592235     0.00158575    -0.13225298    -0.00005656    -0.00006081    -0.00052331
N        -0.04314384    -0.08036754     1.42775281     0.00007437    -0.00012439     0.00045389
H         0.97615518     0.12122500    -0.56724711     0.00029671     0.00073961    -0.00040586
H         0.86409412     0.01822549     1.87981248    -0.00040752     0.00044757     0.00037014
H        -0.98176346     0.07284592     1.87154263    -0.00033476     0.00081939     0.00068883
H        -1.04382968     0.21584932    -0.55669040     0.00008608     0.00044669    -0.00072474
     6
  Step:    34            Position(A)                                  Velocity(au)
C        -0.03624347     0.00124539    -0.13510985    -0.00005856    -0.00006142    -0.00050304
N        -0.04276004    -0.08106105     1.43022142     0.00006295    -0.00012471     0.00043303
H         0.97769943     0.12538332    -0.56948587     0.00025640     0.00075404    -0.00039708
H         0.86199714     0.02073270     1.88203046    -0.00034207     0.00045325     0.00042749
H        -0.98335892     0.07743694     1.87531203    -0.00023445     0.00082920     0.00066226
H        -1.04318836     0.21828589    -0.56070108     0.00014305     0.00042832    -0.00071589
     6
  Step:    35            Position(A)                                  Velocity(au)
C        -0.03657435     0.00090191    -0.13785412    -0.00006012    -0.00006197    -0.00048308
N        -0.04244288    -0.08175608     1.43257435     0.00005067    -0.00012500     0.00041257
H         0.97901003     0.12962090    -0.57166836     0.00021334     0.00076872    -0.00038595
H         0.86028536     0.02327223     1.88457242    -0.00027076     0.00045900     0.00048608
H        -0.98437393     0.08207870     1.87891663    -0.00012766     0.00083843     0.00063050
H        -1.04223684     0.22061842    -0.56466147     0.00019725     0.00040940    -0.00070734
     6
  Step:    36            Position(A)                                  Velocity(au)
C        -0.03691269     0.00055553    -0.14048742    -0.00006135    -0.00006251    -0.00046336
N        -0.04219595    -0.08245254     1.43481399     0.00003799    -0.00012528     0.00039253
H         0.98007422     0.13394048    -0.57378221     0.00016863     0.00078455    -0.00037275
H         0.85898315     0.02584214     1.88744142    -0.00019656     0.00046366     0.00054473
H        -0.98477996     0.08677017     1.88233058    -0.00001701     0.00084829     0.00059461
H        -1.04099258     0.22284321    -0.56857497     0.00024805     0.00038945    -0.00069998
     6
  Step:    37            Position(A)                                  Velocity(au)
C        -0.03725706     0.00020624    -0.14301048    -0.00006257    -0.00006312    -0.00044324
N        -0.04202012    -0.08315029     1.43694255     0.00002548    -0.00012551     0.00037257
H         0.98088664     0.13835164    -0.57581642     0.00012458     0.00080412    -0.00035778
H         0.85809798     0.02843192     1.89063428    -0.00012254     0.00046414     0.00060270
H        -0.98456317     0.09151868     1.88553360     0.00009480     0.00086145     0.00055530
H        -1.03947642     0.22495229    -0.57245103     0.00029468     0.00036660    -0.00069591
     6
  Step:    38            Position(A)                                  Velocity(au)
C        -0.03760879    -0.00014669    -0.14541818    -0.00006603    -0.00006513    -0.00041013
N        -0.04191246    -0.08384874     1.43895858     0.00001496    -0.00012451     0.00034403
H         0.98146009     0.14288583    -0.57776228     0.00010346     0.00084566    -0.00035230
H         0.85761995     0.03100539     1.89414613    -0.00005161     0.00043938     0.00066491
H        -0.98372539     0.09635330     1.88850791     0.00020172     0.00089000     0.00051185
H        -1.03771448     0.22692146    -0.57631649     0.00032533     0.00033138    -0.00071803
     6
  Step:    39            Position(A)                                  Velocity(au)
C        -0.03799132    -0.00051805    -0.14757121    -0.00007241    -0.00007598    -0.00036600
N        -0.04185374    -0.08453490     1.44076819     0.00000462    -0.00012855     0.00031227
H         0.98203716     0.14775555    -0.57973401     0.00013158     0.00094117    -0.00042723
H         0.85752405     0.03331786     1.89802816     0.00002150     0.00044965     0.00077667
H        -0.98232006     0.10141566     1.89122544     0.00031859     0.00094905     0.00051059
H        -1.03585870     0.22863729    -0.58043563     0.00032694     0.00035190    -0.00083812
     6
  Step:    40            Position(A)                                  Velocity(au)
C        -0.03838384    -0.00093971    -0.14956855    -0.00006930    -0.00007579    -0.00035274
N        -0.04186556    -0.08525081     1.44246405    -0.00000791    -0.00012909     0.00029822
H         0.98258999     0.15296016    -0.58205811     0.00006872     0.00093719    -0.00040681
H         0.85782379     0.03589335     1.90245189     0.00008112     0.00047077     0.00081340
H        -0.98024815     0.10665349     1.89395828     0.00042404     0.00094211     0.00047195
H        -1.03394167     0.23059254    -0.58503399     0.00036193     0.00034695    -0.00081954
     6
  Step:    41            Position(A)                                  Velocity(au)
C        -0.03876145    -0.00136027    -0.15149089    -0.00006662    -0.00007563    -0.00033943
N        -0.04194168    -0.08596934     1.44408211    -0.00001871    -0.00012959     0.00028461
H         0.98280079     0.15816973    -0.58425454     0.00000740     0.00093981    -0.00038288
H         0.85842551     0.03854909     1.90706676     0.00012985     0.00048287     0.00084462
H        -0.97760804     0.11188452     1.89646986     0.00052269     0.00094342     0.00043259
H        -1.03183691     0.23249262    -0.58954249     0.00039397     0.00033595    -0.00080470
     6
  Step:    42            Position(A)                                  Velocity(au)
C        -0.03912391    -0.00177980    -0.15333909    -0.00006381    -0.00007546    -0.00032634
N        -0.04207342    -0.08669040     1.44562561    -0.00002792    -0.00013009     0.00027162
H         0.98267214     0.16340002    -0.58631129    -0.00005353     0.00094439    -0.00035712
H         0.85926619     0.04125727     1.91183436     0.00016677     0.00049080     0.00086838
H        -0.97444187     0.11713345     1.89876372     0.00061304     0.00094845     0.00039443
H        -1.02956529     0.23432439    -0.59397303     0.00042208     0.00032340    -0.00079157
     6
  Step:    43            Position(A)                                  Velocity(au)
C        -0.03947003    -0.00219828    -0.15511486    -0.00006076    -0.00007529    -0.00031356
N        -0.04225175    -0.08741402     1.44709845    -0.00003546    -0.00013061     0.00025933
H         0.98220631     0.16865713    -0.58822033    -0.00011386     0.00094975    -0.00033011
H         0.86027749     0.04399943     1.91671008     0.00019111     0.00049565     0.00088381
H        -0.97080028     0.12241707     1.90085001     0.00069361     0.00095635     0.00035849
H        -1.02714976     0.23608393    -0.59833285     0.00044595     0.00031043    -0.00077958
     6
  Step:    44            Position(A)                                  Velocity(au)
C        -0.03979842    -0.00261569    -0.15682007    -0.00005746    -0.00007512    -0.00030109
N        -0.04246713    -0.08814035     1.44850459    -0.00004125    -0.00013115     0.00024773
H         0.98140812     0.17394385    -0.58997609    -0.00017304     0.00095549    -0.00030227
H         0.86138784     0.04675979     1.92164616     0.00020249     0.00049772     0.00089052
H        -0.96674164     0.12775055     1.90274360     0.00076311     0.00096700     0.00032555
H        -1.02461450     0.23777068    -0.60262764     0.00046540     0.00029749    -0.00076854
     6