     6
  Step:   300            Position(A)                                  Velocity(au)
C        -0.03521574     0.00556743     0.02245990    -0.00002537    -0.00003160     0.00014401
N        -0.04173864    -0.04951134     1.29210309     0.00007046     0.00002401    -0.00013947
H         0.13797294    -0.90450956    -0.56352887    -0.00197270     0.00012341    -0.00061827
H        -0.09613469     0.80185685     1.86891252    -0.00257447    -0.00046736     0.00052474
H        -0.06300137    -0.93245842     1.80520321     0.00180698     0.00036587     0.00065943
H        -0.19211025     0.98702284    -0.44168601     0.00206345     0.00002098    -0.00034379
