     6
  Step:     0            Position(A)                                  Velocity(au)
C        -0.03342168    -0.00325513     0.03811967    -0.00003820     0.00011495    -0.00002711
N        -0.04914484    -0.04249570     1.27661421    -0.00017452    -0.00008109     0.00001462
H         0.86297244     0.05785114    -0.49502483    -0.00012897    -0.00060574     0.00053673
H         0.81574290    -0.13688611     1.87881099     0.00106582     0.00037924     0.00083442
H        -0.84187895    -0.07531398     1.84413025     0.00182729     0.00011565    -0.00075503
H        -0.96858527     0.11389442    -0.53039100     0.00011634    -0.00013202    -0.00049618
     6
  Step:     1            Position(A)                                  Velocity(au)
C        -0.03366066    -0.00263030     0.03773199    -0.00004927     0.00011366    -0.00011405
N        -0.05004329    -0.04294174     1.27692942    -0.00015146    -0.00008209     0.00009936
H         0.86291383     0.05461800    -0.49262977     0.00011040    -0.00057729     0.00033708
H         0.82142548    -0.13481471     1.88321417     0.00100152     0.00037976     0.00076712
H        -0.83262150    -0.07472651     1.84049784     0.00153067     0.00009813    -0.00055286
H        -0.96813336     0.11322164    -0.53331714     0.00004939    -0.00011415    -0.00057294
     6
  Step:     2            Position(A)                                  Velocity(au)
C        -0.03396059    -0.00201188     0.03687213    -0.00006034     0.00011263    -0.00019940
N        -0.05080161    -0.04339367     1.27770102    -0.00012366    -0.00008323     0.00018113
H         0.86418007     0.05153652    -0.49133778     0.00035237    -0.00055058     0.00013547
H         0.82669787    -0.13273219     1.88720205     0.00091752     0.00038309     0.00068407
H        -0.82513597    -0.07424059     1.83808289     0.00118369     0.00007872    -0.00031280
H        -0.96804507     0.11264583    -0.53665802    -0.00001594    -0.00009665    -0.00064763
     6
  Step:     3            Position(A)                                  Velocity(au)
C        -0.03432067    -0.00139841     0.03555101    -0.00007113     0.00011187    -0.00028244
N        -0.05139587    -0.04385212     1.27891054    -0.00009197    -0.00008448     0.00025929
H         0.86676790     0.04859602    -0.49114809     0.00059069    -0.00052604    -0.00006400
H         0.83146089    -0.13062462     1.89069627     0.00081700     0.00038877     0.00058816
H        -0.81967485    -0.07386546     1.83707652     0.00079634     0.00005788    -0.00004198
H        -0.96830774     0.11216452    -0.54040066    -0.00007831    -0.00007968    -0.00071977
     6
  Step:     4            Position(A)                                  Velocity(au)
C        -0.03473847    -0.00078842     0.03378337    -0.00008132     0.00011137    -0.00036243
N        -0.05180740    -0.04431757     1.28053663    -0.00005741    -0.00008579     0.00033337
H         0.87063992     0.04578365    -0.49203769     0.00081916    -0.00050390    -0.00025739
H         0.83563263    -0.12848051     1.89363429     0.00070286     0.00039628     0.00048211
H        -0.81642705    -0.07360758     1.83762376     0.00038132     0.00003613     0.00025016
H        -0.96890153     0.11177442    -0.54452947    -0.00013644    -0.00006336    -0.00078871
     6
  Step:     5            Position(A)                                  Velocity(au)
C        -0.03520999    -0.00018056     0.03158764    -0.00009064     0.00011106    -0.00043861
N        -0.05202364    -0.04479030     1.28255612    -0.00002116    -0.00008711     0.00040301
H         0.87572578     0.04308571    -0.49396278     0.00103172    -0.00048413    -0.00044093
H         0.83914693    -0.12629111     1.89596831     0.00057783     0.00040503     0.00036850
H        -0.81550491    -0.07347031     1.83981208    -0.00004634     0.00001407     0.00055212
H        -0.96979975     0.11147162    -0.54902550    -0.00018903    -0.00004779    -0.00085362
     6
  Step:     6            Position(A)                                  Velocity(au)
C        -0.03572975     0.00042619     0.02898641    -0.00009879     0.00011084    -0.00051001
N        -0.05203883    -0.04527028     1.28494434     0.00001546    -0.00008836     0.00046781
H         0.88192364     0.04048880    -0.49686008     0.00122250    -0.00046653    -0.00061099
H         0.84195232    -0.12405077     1.89766455     0.00044463     0.00041434     0.00024995
H        -0.81693387    -0.07345366     1.84366221    -0.00046989    -0.00000767     0.00085090
H        -0.97096897     0.11125170    -0.55386536    -0.00023482    -0.00003307    -0.00091340
     6
  Step:     7            Position(A)                                  Velocity(au)
C        -0.03629089     0.00103225     0.02600719    -0.00010552     0.00011059    -0.00057552
N        -0.05185451    -0.04575709     1.28767486     0.00005106    -0.00008944     0.00052725
H         0.88910218     0.03798103    -0.50064814     0.00138600    -0.00045070    -0.00076411
H         0.84401206    -0.12175742     1.89870329     0.00030616     0.00042348     0.00012923
H        -0.82064635    -0.07355421     1.84912256    -0.00087176    -0.00002845     0.00113279
H        -0.97236916     0.11110980    -0.55901986    -0.00027254    -0.00001928    -0.00096672
     6
  Step:     8            Position(A)                                  Velocity(au)
C        -0.03688534     0.00163738     0.02268343    -0.00011061     0.00011016    -0.00063386
N        -0.05147962    -0.04624978     1.29071861     0.00008426    -0.00009024     0.00058062
H         0.89710282     0.03555284    -0.50522840     0.00151730    -0.00043614    -0.00089706
H         0.84530529    -0.11941297     1.89907980     0.00016569     0.00043162     0.00000935
H        -0.82648115    -0.07376523     1.85606832    -0.00123481    -0.00004766     0.00138440
H        -0.97395380     0.11104060    -0.56445265    -0.00030101    -0.00000652    -0.00101203
     6
  Step:     9            Position(A)                                  Velocity(au)
C        -0.03750398     0.00224044     0.01905539    -0.00011390     0.00010939    -0.00068365
N        -0.05093037    -0.04674676     1.29404276     0.00011375    -0.00009063     0.00062706
H         0.90574305     0.03319770    -0.51048663     0.00161237    -0.00042227    -0.00100705
H         0.84582926    -0.11702370     1.89880587     0.00002701     0.00043794    -0.00010631
H        -0.83418900    -0.07407692     1.86430587    -0.00154365    -0.00006476     0.00159377
H        -0.97567043     0.11103831    -0.57011926    -0.00031920     0.00000510    -0.00104776
     6
  Step:    10            Position(A)                                  Velocity(au)
C        -0.03813700     0.00283948     0.01517059    -0.00011529     0.00010813    -0.00072358
N        -0.05022954    -0.04724577     1.29760954     0.00013842    -0.00009051     0.00066558
H         0.91482172     0.03091236    -0.51629518     0.00166856    -0.00040854    -0.00109190
H         0.84560212    -0.11460033     1.89791158    -0.00010562     0.00044167    -0.00021414
H        -0.84344484    -0.07447685     1.87358276    -0.00178610    -0.00007930     0.00175156
H        -0.97746159     0.11109662    -0.57596680    -0.00032640     0.00001546    -0.00107245
     6
  Step:    11            Position(A)                                  Velocity(au)
C        -0.03877421     0.00343169     0.01108352    -0.00011479     0.00010626    -0.00075259
N        -0.04940539    -0.04774388     1.30137568     0.00015740    -0.00008976     0.00069528
H         0.92412603     0.02869675    -0.52251644     0.00168486    -0.00039446    -0.00115038
H         0.84466560    -0.11215774     1.89644667    -0.00022764     0.00044217    -0.00031047
H        -0.85386694    -0.07495062     1.88360328    -0.00195428    -0.00009101     0.00185194
H        -0.97926652     0.11120869    -0.58193476    -0.00032234     0.00002449    -0.00108505
     6
  Step:    12            Position(A)                                  Velocity(au)
C        -0.03940550     0.00401367     0.00685419    -0.00011249     0.00010372    -0.00077008
N        -0.04849016    -0.04823765     1.30529269     0.00017022    -0.00008834     0.00071548
H         0.93344014     0.02655339    -0.52900735     0.00166227    -0.00037974    -0.00118239
H         0.84308655    -0.10971420     1.89448080    -0.00033453     0.00043904    -0.00039187
H        -0.86504048    -0.07548259     1.89404755    -0.00204541    -0.00009977     0.00189319
H        -0.98102356     0.11136727    -0.58795712    -0.00030725     0.00003213    -0.00108514
     6
  Step:    13            Position(A)                                  Velocity(au)
C        -0.04002136     0.00458166     0.00254556    -0.00010858     0.00010052    -0.00077611
N        -0.04751818    -0.04872330     1.30930828     0.00017675    -0.00008624     0.00072597
H         0.94255591     0.02448654    -0.53562577     0.00160395    -0.00036428    -0.00118924
H         0.84095663    -0.10729003     1.89210199    -0.00042223     0.00043222    -0.00045554
H        -0.87654476    -0.07605679     1.90459335    -0.00206203    -0.00010564     0.00187779
H        -0.98267308     0.11156486    -0.59396583    -0.00028199     0.00003836    -0.00107311
     6
  Step:    14            Position(A)                                  Velocity(au)
C        -0.04061341     0.00513198    -0.00177997    -0.00010335     0.00009675    -0.00077153
N        -0.04652384    -0.04919711     1.31336902     0.00017729    -0.00008355     0.00072718
H         0.95128388     0.02250086    -0.54223751     0.00151495    -0.00034825    -0.00117361
H         0.83838927    -0.10490584     1.88941300    -0.00048769     0.00042200    -0.00049966
H        -0.88798026    -0.07665786     1.91493771    -0.00201146    -0.00010889     0.00181204
H        -0.98416067     0.11179404    -0.59989533    -0.00024792     0.00004327    -0.00105033
     6
  Step:    15            Position(A)                                  Velocity(au)
C        -0.04117481     0.00566140    -0.00606482    -0.00009717     0.00009255    -0.00075789
N        -0.04553953    -0.04965569     1.31742376     0.00017247    -0.00008037     0.00072019
H         0.95946302     0.02060006    -0.54872352     0.00140175    -0.00033204    -0.00113938
H         0.83551395    -0.10258048     1.88652568    -0.00052912     0.00040904    -0.00052360
H        -0.89899305    -0.07727200     1.92481606    -0.00190468    -0.00010991     0.00170503
H        -0.98543989     0.11204779    -0.60568770    -0.00020677     0.00004700    -0.00101901
     6
  Step:    16            Position(A)                                  Velocity(au)
C        -0.04170065     0.00616756    -0.01026020    -0.00009040     0.00008813    -0.00073731
N        -0.04459398    -0.05009644     1.32142744     0.00016313    -0.00007691     0.00070663
H         0.96696842     0.01878557    -0.55498633     0.00127141    -0.00031622    -0.00109115
H         0.83246877    -0.10032899     1.88355431    -0.00054614     0.00039428    -0.00052787
H        -0.90929224    -0.07788767     1.93401575    -0.00175452    -0.00010922     0.00156722
H        -0.98647423     0.11231992    -0.61129730    -0.00016039     0.00004975    -0.00098196
     6
  Step:    17            Position(A)                                  Velocity(au)
C        -0.04218804     0.00664921    -0.01432900    -0.00008339     0.00008370    -0.00071210
N        -0.04371110    -0.05051771     1.32534409     0.00015018    -0.00007334     0.00068840
H         0.97371370     0.01705569    -0.56095364     0.00113056    -0.00030139    -0.00103358
H         0.82939248    -0.09816121     1.88060903    -0.00053954     0.00037875    -0.00051389
H        -0.91865864    -0.07849617     1.94238224    -0.00157373    -0.00010736     0.00140884
H        -0.98723763     0.11260542    -0.61669403    -0.00011051     0.00005178    -0.00094215
     6
  Step:    18            Position(A)                                  Velocity(au)
C        -0.04263587     0.00710626    -0.01824679    -0.00007640     0.00007943    -0.00068435
N        -0.04290967    -0.05091893     1.32914821     0.00013446    -0.00006982     0.00066728
H         0.97964829     0.01540536    -0.56657850     0.00098456    -0.00028804    -0.00097077
H         0.82641756    -0.09608115     1.87779078    -0.00051089     0.00036341    -0.00048355
H        -0.92694252    -0.07909174     1.94981664    -0.00137325    -0.00010483     0.00123854
H        -0.98771362     0.11290067    -0.62186401    -0.00005850     0.00005334    -0.00090221
     6
  Step:    19            Position(A)                                  Velocity(au)
C        -0.04304448     0.00753959    -0.02200058    -0.00006961     0.00007544    -0.00065563
N        -0.04220377    -0.05130045     1.33282433     0.00011666    -0.00006649     0.00064467
H         0.98475065     0.01382673    -0.57183610     0.00083709    -0.00027652    -0.00090579
H         0.82366531    -0.09408738     1.87518837    -0.00046203     0.00034899    -0.00043878
H        -0.93405290    -0.07967134     1.95626643    -0.00116136    -0.00010205     0.00106273
H        -0.98789342     0.11320335    -0.62680792    -0.00000535     0.00005466    -0.00086410
     6
  Step:    20            Position(A)                                  Velocity(au)
C        -0.04341510     0.00795076    -0.02558607    -0.00006309     0.00007179    -0.00062691
N        -0.04160373    -0.05166328     1.33636475     0.00009727    -0.00006340     0.00062142
H         0.98901882     0.01230995    -0.57671811     0.00069023    -0.00026696    -0.00084055
H         0.82124554    -0.09217446     1.87287899    -0.00039472     0.00033595    -0.00038129
H        -0.93994299    -0.08023409     1.96171307    -0.00094364    -0.00009930     0.00088554
H        -0.98777355     0.11351259    -0.63153690     0.00004827     0.00005597    -0.00082892
     6
  Step:    21            Position(A)                                  Velocity(au)
C        -0.04374929     0.00834159    -0.02900407    -0.00005387     0.00007097    -0.00064844
N        -0.04111712    -0.05200877     1.33976655     0.00007547    -0.00006255     0.00063766
H         0.99246154     0.01084439    -0.58122625     0.00050486    -0.00030386    -0.00074285
H         0.81925566    -0.09033435     1.87092875    -0.00032344     0.00037459    -0.00032846
H        -0.94459478    -0.08078068     1.96615929    -0.00070729    -0.00013988     0.00068981
H        -0.98735414     0.11382861    -0.63606824     0.00011916     0.00009268    -0.00075276
     6
  Step:    22            Position(A)                                  Velocity(au)
C        -0.04401560     0.00874182    -0.03281419    -0.00004170     0.00007296    -0.00072084
N        -0.04076251    -0.05236047     1.34347269     0.00005143    -0.00006394     0.00069417
H         0.99464641     0.00892280    -0.58499858     0.00028119    -0.00037427    -0.00061211
H         0.81764013    -0.08799894     1.86921765    -0.00025068     0.00045070    -0.00028456
H        -0.94782713    -0.08179327     1.96940230    -0.00045333    -0.00021022     0.00047575
H        -0.98644530     0.11454571    -0.63992790     0.00020506     0.00015296    -0.00063593
     6
  Step:    23            Position(A)                                  Velocity(au)
C        -0.04421321     0.00915331    -0.03702393    -0.00002936     0.00007508    -0.00079190
N        -0.04054494    -0.05272016     1.34748969     0.00002653    -0.00006549     0.00074933
H         0.99559001     0.00668039    -0.58803634     0.00006093    -0.00042682    -0.00048230
H         0.81646671    -0.08531996     1.86776288    -0.00016486     0.00050688    -0.00023521
H        -0.94963834    -0.08311957     1.97145237    -0.00020040    -0.00026060     0.00026497
H        -0.98507272     0.11553043    -0.64314342     0.00028563     0.00019596    -0.00052410
     6
  Step:    24            Position(A)                                  Velocity(au)
C        -0.04434182     0.00957597    -0.04161265    -0.00001693     0.00007704    -0.00085787
N        -0.04046779    -0.05308808     1.35179820     0.00000114    -0.00006698     0.00079974
H         0.99532332     0.00418062    -0.59035717    -0.00015322    -0.00046971    -0.00035575
H         0.81580842    -0.08236718     1.86660432    -0.00006635     0.00055260    -0.00017834
H        -0.95005367    -0.08468867     1.97234631     0.00004667    -0.00030051     0.00006165
H        -0.98327176     0.11672294    -0.64575100     0.00035892     0.00023037    -0.00041860
     6
  Step:    25            Position(A)                                  Velocity(au)
C        -0.04440123     0.01000868    -0.04654826    -0.00000448     0.00007870    -0.00091685
N        -0.04053229    -0.05346381     1.35636866    -0.00002423    -0.00006831     0.00084374
H         0.99388887     0.00146550    -0.59198603    -0.00035857    -0.00050568    -0.00023401
H         0.81573009    -0.07918482     1.86578287     0.00004257     0.00059112    -0.00011450
H        -0.94912023    -0.08645588     1.97213679     0.00028325    -0.00033336    -0.00013088
H        -0.98108787     0.11808805    -0.64779079     0.00042296     0.00025941    -0.00032033
     6
  Step:    26            Position(A)                                  Velocity(au)
C        -0.04439157     0.01044957    -0.05179025     0.00000790     0.00007991    -0.00096736
N        -0.04073679    -0.05384634     1.36116430    -0.00004897    -0.00006938     0.00088012
H         0.99134299    -0.00143281    -0.59295488    -0.00055199    -0.00053600    -0.00011868
H         0.81628101    -0.07580539     1.86533326     0.00015845     0.00062399    -0.00004529
H        -0.94690944    -0.08838922     1.97089349     0.00050421    -0.00036093    -0.00030901
H        -0.97857662     0.11960260    -0.64930692     0.00047578     0.00028478    -0.00023034
     6
  Step:    27            Position(A)                                  Velocity(au)
C        -0.04431354     0.01089613    -0.05729104     0.00002006     0.00008059    -0.00100826
N        -0.04107611    -0.05423424     1.36614262    -0.00007235    -0.00007011     0.00090798
H         0.98775894    -0.00448690    -0.59330400    -0.00072997    -0.00056129    -0.00001154
H         0.81748972    -0.07225530     1.86527991     0.00027698     0.00065204     0.00002706
H        -0.94352082    -0.09046406     1.96870513     0.00070393    -0.00038427    -0.00046893
H        -0.97580419     0.12125057    -0.65034876     0.00051551     0.00030749    -0.00014974
     6
  Step:    28            Position(A)                                  Velocity(au)
C        -0.04416861     0.01134537    -0.06299730     0.00003182     0.00008067    -0.00103870
N        -0.04154100    -0.05462565     1.37125674    -0.00009360    -0.00007046     0.00092673
H         0.98322917    -0.00767173    -0.59308312    -0.00088881    -0.00058194     0.00008550
H         0.81935974    -0.06855783     1.86563407     0.00039332     0.00067571     0.00009994
H        -0.93908504    -0.09266043     1.96568116     0.00087653    -0.00040411    -0.00060673
H        -0.97284665     0.12302042    -0.65097134     0.00054051     0.00032821    -0.00007966
     6
  Step:    29            Position(A)                                  Velocity(au)
C        -0.04395937     0.01179395    -0.06885152     0.00004297     0.00008011    -0.00105823
N        -0.04211785    -0.05501841     1.37645691    -0.00011193    -0.00007037     0.00093612
H         0.97786667    -0.01096375    -0.59235239    -0.00102485    -0.00059825     0.00017051
H         0.82186727    -0.06473484     1.86639218     0.00050247     0.00069526     0.00017059
H        -0.93376529    -0.09496176     1.96195237     0.00101623    -0.00042109    -0.00071868
H        -0.96978849     0.12490350    -0.65123541     0.00054959     0.00034742    -0.00002110
     6
  Step:    30            Position(A)                                  Velocity(au)
C        -0.04368962     0.01223837    -0.07479402     0.00005327     0.00007892    -0.00106689
N        -0.04278874    -0.05541011     1.38169220    -0.00012663    -0.00006983     0.00093631
H         0.97180456    -0.01434080    -0.59118233    -0.00113485    -0.00061063     0.00024174
H         0.82496109    -0.06080738     1.86753575     0.00059977     0.00071093     0.00023644
H        -0.92775653    -0.09735453     1.95766964     0.00111791    -0.00043579    -0.00080163
H        -0.96672008     0.12689333    -0.65120653     0.00054216     0.00036550     0.00002525
     6
  Step:    31            Position(A)                                  Velocity(au)
C        -0.04336454     0.01267523    -0.08076554     0.00006248     0.00007714    -0.00106517
N        -0.04353192    -0.05579820     1.38691275    -0.00013712    -0.00006883     0.00092786
H         0.96519373    -0.01778274    -0.58965284    -0.00121626    -0.00061961     0.00029776
H         0.82856502    -0.05679581     1.86903259     0.00068128     0.00072302     0.00029530
H        -0.92128144    -0.09982829     1.95300053     0.00117756    -0.00044890    -0.00085330
H        -0.96373411     0.12898503    -0.65095343     0.00051834     0.00038279     0.00005908
     6
  Step:    32            Position(A)                                  Velocity(au)
C        -0.04299063     0.01310134    -0.08670981     0.00007041     0.00007486    -0.00105409
N        -0.04432264    -0.05618011     1.39207188    -0.00014301    -0.00006740     0.00091172
H         0.95819862    -0.02127225    -0.58785137    -0.00126745    -0.00062590     0.00033757
H         0.83258239    -0.05271915     1.87083923     0.00074411     0.00073195     0.00034556
H        -0.91458353    -0.10237630     1.94812396     0.00119271    -0.00046118    -0.00087262
H        -0.96092155     0.13117546    -0.65054566     0.00047895     0.00039967     0.00008054
     6
  Step:    33            Position(A)                                  Velocity(au)
C        -0.04257563     0.01351401    -0.09257619     0.00007686     0.00007218    -0.00103499
N        -0.04513426    -0.05655335     1.39712818    -0.00014413    -0.00006556     0.00088912
H         0.95099241    -0.02479576    -0.58587050    -0.00128777    -0.00063040     0.00036067
H         0.83690246    -0.04859460     1.87290445     0.00078666     0.00073828     0.00038631
H        -0.90791764    -0.10499564     1.94322318     0.00116263    -0.00047346    -0.00085974
H        -0.95836763     0.13346316    -0.65005097     0.00042543     0.00041653     0.00009026
     6
  Step:    34            Position(A)                                  Velocity(au)
C        -0.04212828     0.01391115    -0.09832161     0.00008171     0.00006923    -0.00100945
N        -0.04593962    -0.05691564     1.40204712    -0.00014053    -0.00006337     0.00086146
H         0.94375093    -0.02834485    -0.58380490    -0.00127745    -0.00063412     0.00036707
H         0.84140804    -0.04443629     1.87517332     0.00080856     0.00074267     0.00041733
H        -0.90153976    -0.10768816     1.93847836     0.00108837    -0.00048663    -0.00081608
H        -0.95614853     0.13584859    -0.64953304     0.00035966     0.00043377     0.00008920
     6
  Step:    35            Position(A)                                  Velocity(au)
C        -0.04165806     0.01429141    -0.10391163     0.00008486     0.00006613    -0.00097905
N        -0.04671227    -0.05726496     1.40680180    -0.00013245    -0.00006088     0.00083013
H         0.93664757    -0.03191652    -0.58174858    -0.00123747    -0.00063807     0.00035716
H         0.84598206    -0.04025492     1.87759078     0.00081046     0.00074580     0.00043896
H        -0.89569602    -0.11046016     1.93405921     0.00097269    -0.00050147    -0.00074414
H        -0.95432894     0.13833412    -0.64904935     0.00028377     0.00045176     0.00007864
     6
  Step:    36            Position(A)                                  Velocity(au)
C        -0.04117494     0.01465410    -0.10932060     0.00008625     0.00006300    -0.00094522
N        -0.04742765    -0.05759961     1.41137312    -0.00012032    -0.00005814     0.00079639
H         0.92984880    -0.03551314    -0.57979243    -0.00116933    -0.00064315     0.00033170
H         0.85051307    -0.03605767     1.88010473     0.00079371     0.00074827     0.00045193
H        -0.89061222    -0.11332190     1.93011837     0.00081984    -0.00051863    -0.00064736
H        -0.95296050     0.14092387    -0.64864955     0.00020007     0.00047079     0.00006006
     6
  Step:    37            Position(A)                                  Velocity(au)
C        -0.04068912     0.01499918    -0.11453078     0.00008585     0.00005993    -0.00090915
N        -0.04806398    -0.05791818     1.41574895    -0.00010465    -0.00005520     0.00076131
H         0.92351054    -0.03914201    -0.57802202    -0.00107498    -0.00065012     0.00029171
H         0.85489912    -0.03184839     1.88266806     0.00076014     0.00075058     0.00045723
H        -0.88648543    -0.11628679     1.92678638     0.00063538    -0.00053854    -0.00052985
H        -0.95208124     0.14362331    -0.64837458     0.00011083     0.00049106     0.00003501
     6
  Step:    38            Position(A)                                  Velocity(au)
C        -0.04021080     0.01532713    -0.11953102     0.00008367     0.00005699    -0.00087177
N        -0.04860299    -0.05821953     1.41992315    -0.00008611    -0.00005209     0.00072573
H         0.91777601    -0.04281449    -0.57651630    -0.00095667    -0.00065957     0.00023842
H         0.85904996    -0.02762815     1.88523980     0.00071180     0.00075308     0.00045596
H        -0.88347638    -0.11937011     1.92416774     0.00042607    -0.00056138    -0.00039633
H        -0.95171575     0.14643880    -0.64825640     0.00001833     0.00051262     0.00000504
     6
  Step:    39            Position(A)                                  Velocity(au)
C        -0.03974997     0.01563880    -0.12431529     0.00007978     0.00005423    -0.00083374
N        -0.04903042    -0.05850279     1.42389434    -0.00006539    -0.00004885     0.00069030
H         0.91277309    -0.04654485    -0.57534606    -0.00081717    -0.00067185     0.00017332
H         0.86288815    -0.02339603     1.88778565     0.00065087     0.00075600     0.00044923
H        -0.88170335    -0.12258758     1.92233802     0.00019962    -0.00058706    -0.00025195
H        -0.95187553     0.14937687    -0.64831805    -0.00007525     0.00053544    -0.00002832
     6
  Step:    40            Position(A)                                  Velocity(au)
C        -0.03931609     0.01593536    -0.12888127     0.00007427     0.00005170    -0.00079554
N        -0.04933634    -0.05876734     1.42766472    -0.00004328    -0.00004552     0.00065550
H         0.90861163    -0.05034913    -0.57457253    -0.00065973    -0.00068711     0.00009816
H         0.86634928    -0.01914976     1.89027782     0.00057954     0.00075946     0.00043813
H        -0.88123768    -0.12595381     1.92134220    -0.00003548    -0.00061521    -0.00010210
H        -0.95255967     0.15244364    -0.64857403    -0.00016776     0.00055934    -0.00006361
     6
  Step:    41            Position(A)                                  Velocity(au)
C        -0.03891783     0.01621810    -0.13322922     0.00006729     0.00004940    -0.00075749
N        -0.04951541    -0.05901282     1.43123919    -0.00002059    -0.00004215     0.00062171
H         0.90538085    -0.05424387    -0.57424620    -0.00048820    -0.00070532     0.00001493
H         0.86938182    -0.01488634     1.89269485     0.00050002     0.00076350     0.00042370
H        -0.88210090    -0.12948095     1.92119396    -0.00027032    -0.00064526     0.00004770
H        -0.95375532     0.15564421    -0.64903081    -0.00025715     0.00058407    -0.00009946
     6
  Step:    42            Position(A)                                  Velocity(au)
C        -0.03856281     0.01648841    -0.13736128     0.00005906     0.00004734    -0.00071984
N        -0.04956684    -0.05923915     1.43462463     0.00000189    -0.00003878     0.00058917
H         0.90314629    -0.05824505    -0.57440540    -0.00030701    -0.00072623    -0.00007411
H         0.87194688    -0.01060247     1.89502111     0.00041447     0.00076810     0.00040692
H        -0.88426392    -0.13317745     1.92187621    -0.00049599    -0.00067644     0.00019213
H        -0.95543846     0.15898221    -0.64968745    -0.00034145     0.00060930    -0.00013459
     6
  Step:    43            Position(A)                                  Velocity(au)
C        -0.03825722     0.01674765    -0.14128086     0.00004985     0.00004551    -0.00068276
N        -0.04949429    -0.05944655     1.43782924     0.00002338    -0.00003547     0.00055807
H         0.90194684    -0.06236702    -0.57507514    -0.00012112    -0.00074945    -0.00016649
H         0.87401779    -0.00629483     1.89724645     0.00032504     0.00077322     0.00038872
H        -0.88764875    -0.13704720     1.92334300    -0.00070404    -0.00070785     0.00032626
H        -0.95757461     0.16245943    -0.65053629    -0.00041884     0.00063465    -0.00016787
     6
  Step:    44            Position(A)                                  Velocity(au)
C        -0.03800561     0.01699709    -0.14499236     0.00003998     0.00004389    -0.00064641
N        -0.04930550    -0.05963557     1.44086212     0.00004320    -0.00003228     0.00052854
H         0.90179258    -0.06662162    -0.57626624     0.00006417    -0.00077446    -0.00025962
H         0.87557977    -0.00196025     1.89936576     0.00023381     0.00077882     0.00036994
H        -0.89213294    -0.14108905     1.92552277    -0.00088701    -0.00073856     0.00044583
H        -0.96011981     0.16607562    -0.65156370    -0.00048768     0.00065973    -0.00019828
     6