     6
  Step:     0            Position(A)                                  Velocity(au)
C        -0.04006817     0.01888853     0.00811738    -0.00000357    -0.00006354    -0.00020973
N        -0.04888676    -0.05697544     1.31803661    -0.00019806    -0.00008989     0.00013410
H         0.94329970    -0.00716767    -0.52741876     0.00033308     0.00063550    -0.00047139
H         0.92141949    -0.11876749     1.81807828     0.00153407     0.00030703     0.00072802
H        -0.91583330    -0.02011492     1.79236977     0.00058195     0.00078274    -0.00038590
H        -1.00502096     0.04294600    -0.60361637     0.00034574     0.00028103     0.00076497
     6
  Step:     1            Position(A)                                  Velocity(au)
C        -0.04009053     0.01854744     0.00688955    -0.00000396    -0.00006126    -0.00023827
N        -0.04989829    -0.05747656     1.31882512    -0.00017017    -0.00009348     0.00015346
H         0.94506070    -0.00368090    -0.53013536     0.00030777     0.00063979    -0.00051972
H         0.92917892    -0.11705545     1.82190156     0.00129133     0.00031964     0.00066374
H        -0.91310598    -0.01580249     1.79073840     0.00040459     0.00079577    -0.00020384
H        -1.00294577     0.04446303    -0.59941786     0.00040823     0.00027374     0.00076646
     6
  Step:     2            Position(A)                                  Velocity(au)
C        -0.04011145     0.01821847     0.00551112    -0.00000305    -0.00005911    -0.00026470
N        -0.05074818    -0.05799793     1.31971528    -0.00013941    -0.00009728     0.00017127
H         0.94666621    -0.00016938    -0.53310374     0.00027652     0.00064458    -0.00056353
H         0.93554464    -0.11527114     1.82533857     0.00102722     0.00033326     0.00058827
H        -0.91140774    -0.01141042     1.79014008     0.00020940     0.00081190    -0.00001048
H        -1.00055553     0.04594026    -0.59523248     0.00046047     0.00026652     0.00075996
     6
  Step:     3            Position(A)                                  Velocity(au)
C        -0.04012393     0.01790086     0.00399422    -0.00000088    -0.00005712    -0.00028886
N        -0.05142312    -0.05854063     1.32069848    -0.00010668    -0.00010127     0.00018756
H         0.94808523     0.00336948    -0.53629927     0.00023994     0.00064991    -0.00060298
H         0.94041471    -0.11341024     1.82833605     0.00074706     0.00034753     0.00050445
H        -0.91081558    -0.00692191     1.79062374     0.00000431     0.00083109     0.00018926
H        -0.99790910     0.04737826    -0.59110541     0.00050157     0.00025948     0.00074507
     6
  Step:     4            Position(A)                                  Velocity(au)
C        -0.04012109     0.01759376     0.00235189     0.00000252    -0.00005529    -0.00031058
N        -0.05191487    -0.05910554     1.32176654    -0.00007289    -0.00010541     0.00020242
H         0.94929036     0.00693849    -0.53969834     0.00019869     0.00065577    -0.00063824
H         0.94371509    -0.11147029     1.83085563     0.00045559     0.00036212     0.00041482
H        -0.91136057    -0.00232095     1.79220996    -0.00020214     0.00085305     0.00039013
H        -0.99507001     0.04877807    -0.58708388     0.00053070     0.00025265     0.00072139
     6
  Step:     5            Position(A)                                  Velocity(au)
C        -0.04009632     0.01729627     0.00059795     0.00000711    -0.00005362    -0.00032970
N        -0.05222021    -0.05969325     1.32291195    -0.00003895    -0.00010961     0.00021597
H         0.95025794     0.01054040    -0.54327847     0.00015345     0.00066209    -0.00066948
H         0.94539664    -0.10945045     1.83287219     0.00015716     0.00037670     0.00032168
H        -0.91302598     0.00240632     1.79488989    -0.00040127     0.00087722     0.00058676
H        -0.99210587     0.05014104    -0.58321693     0.00054715     0.00024608     0.00068858
     6
  Step:     6            Position(A)                                  Velocity(au)
C        -0.04004331     0.01700753    -0.00125297     0.00001282    -0.00005210    -0.00034606
N        -0.05234074    -0.06030399     1.32412793    -0.00000571    -0.00011381     0.00022833
H         0.95096811     0.01417761    -0.54701824     0.00010491     0.00066875    -0.00069684
H         0.94543339    -0.10735151     1.83437282    -0.00014403     0.00039098     0.00022721
H        -0.91574798     0.00727032     1.79862543    -0.00058474     0.00090282     0.00077388
H        -0.98908762     0.05146868    -0.57955508     0.00055038     0.00023978     0.00064641
     6
  Step:     7            Position(A)                                  Velocity(au)
C        -0.03995616     0.01672668    -0.00318548     0.00001956    -0.00005072    -0.00035948
N        -0.05228260    -0.06093751     1.32540832     0.00002603    -0.00011790     0.00023957
H         0.95140497     0.01785187    -0.55089706     0.00005383     0.00067558    -0.00072042
H         0.94382198    -0.10517584     1.83535630    -0.00044368     0.00040464     0.00013357
H        -0.91941895     0.01227687     1.80335075    -0.00074497     0.00092890     0.00094658
H        -0.98608859     0.05276253    -0.57614973     0.00054001     0.00023371     0.00059474
     6
  Step:     8            Position(A)                                  Velocity(au)
C        -0.03982951     0.01645293    -0.00518335     0.00002721    -0.00004948    -0.00036982
N        -0.05205611    -0.06159304     1.32674728     0.00005553    -0.00012178     0.00024971
H         0.95155665     0.02156403    -0.55489495     0.00000096     0.00068237    -0.00074029
H         0.94058246    -0.10292745     1.83583317    -0.00073724     0.00041734     0.00004298
H        -0.92389303     0.01742634     1.80897486    -0.00087556     0.00095437     0.00110052
H        -0.98318343     0.05402398    -0.57305248     0.00051593     0.00022785     0.00053365
     6
  Step:     9            Position(A)                                  Velocity(au)
C        -0.03965861     0.01618559    -0.00722958     0.00003565    -0.00004835    -0.00037692
N        -0.05167539    -0.06226922     1.32813893     0.00008211    -0.00012534     0.00025867
H         0.95141547     0.02531377    -0.55899237    -0.00005289     0.00068886    -0.00075648
H         0.93576003    -0.10061212     1.83582627    -0.00101972     0.00042875    -0.00004218
H        -0.92899350     0.02271321     1.81538527    -0.00097163     0.00097812     0.00123208
H        -0.98044668     0.05525417    -0.57031407     0.00047835     0.00022213     0.00046344
     6
  Step:    10            Position(A)                                  Velocity(au)
C        -0.03943953     0.01592403    -0.00930648     0.00004471    -0.00004731    -0.00038067
N        -0.05115790    -0.06296408     1.32957689     0.00010519    -0.00012846     0.00026634
H         0.95097809     0.02909948    -0.56317000    -0.00010688     0.00069482    -0.00076901
H         0.92942776    -0.09823734     1.83537178    -0.00128562     0.00043856    -0.00011931
H        -0.93452163     0.02812596     1.82245247    -0.00102994     0.00099906     0.00133852
H        -0.97795076     0.05645386    -0.56798292     0.00042789     0.00021647     0.00038473
     6
  Step:    11            Position(A)                                  Velocity(au)
C        -0.03916933     0.01566775    -0.01139578     0.00005418    -0.00004636    -0.00038099
N        -0.05052410    -0.06367511     1.33105389     0.00012426    -0.00013104     0.00027251
H         0.95024571     0.03291814    -0.56740872    -0.00016016     0.00069998    -0.00077793
H         0.92168965    -0.09581234     1.83452044    -0.00152889     0.00044645    -0.00018562
H        -0.94026562     0.03364737     1.83003462    -0.00104899     0.00101621     0.00141806
H        -0.97576362     0.05762330    -0.56610342     0.00036566     0.00021077     0.00029848
     6
  Step:    12            Position(A)                                  Velocity(au)
C        -0.03884620     0.01541636    -0.01347894     0.00006384    -0.00004545    -0.00037786
N        -0.04979703    -0.06439923     1.33256136     0.00013888    -0.00013301     0.00027692
H         0.94922408     0.03676545    -0.57168965    -0.00021187     0.00070412    -0.00078330
H         0.91268370    -0.09334795     1.83333892    -0.00174311     0.00045216    -0.00023810
H        -0.94600989     0.03925521     1.83798267    -0.00102897     0.00102874     0.00146987
H        -0.97394613     0.05876216    -0.56471405     0.00029324     0.00020492     0.00020599
     6
  Step:    13            Position(A)                                  Velocity(au)
C        -0.03846959     0.01516956    -0.01553745     0.00007345    -0.00004459    -0.00037136
N        -0.04900184    -0.06513297     1.33408918     0.00014872    -0.00013429     0.00027929
H         0.94792349     0.04063585    -0.57599431    -0.00026118     0.00070707    -0.00078526
H         0.90258378    -0.09085633     1.83191066    -0.00192169     0.00045550    -0.00027368
H        -0.95154396     0.04492318     1.84614550    -0.00097162     0.00103607     0.00149408
H        -0.97254951     0.05986943    -0.56384557     0.00021266     0.00019881     0.00010889
     6
  Step:    14            Position(A)                                  Velocity(au)
C        -0.03804038     0.01492716    -0.01755318     0.00008274    -0.00004375    -0.00036159
N        -0.04816543    -0.06587253     1.33562551     0.00015351    -0.00013485     0.00027931
H         0.94635858     0.04452288    -0.58030488    -0.00030733     0.00070869    -0.00078398
H         0.89160032    -0.08835056     1.83033633    -0.00205826     0.00045634    -0.00028933
H        -0.95666982     0.05062215     1.85437460    -0.00087993     0.00103784     0.00149167
H        -0.97161296     0.06094336    -0.56351939     0.00012635     0.00019232     0.00000903
     6
  Step:    15            Position(A)                                  Velocity(au)
C        -0.03756088     0.01468908    -0.01950877     0.00009146    -0.00004292    -0.00034879
N        -0.04731589    -0.06661396     1.33715682     0.00015311    -0.00013468     0.00027672
H         0.94454814     0.04841924    -0.58460458    -0.00034965     0.00070893    -0.00077973
H         0.87997830    -0.08584438     1.82873303    -0.00214699     0.00045470    -0.00028224
H        -0.96120801     0.05632159     1.86252819    -0.00075791     0.00103398     0.00146437
H        -0.97116180     0.06198160    -0.56374639     0.00003701     0.00018532    -0.00009155
     6
  Step:    16            Position(A)                                  Velocity(au)
C        -0.03703476     0.01445529    -0.02138814     0.00009938    -0.00004208    -0.00033324
N        -0.04648201    -0.06735331     1.33866805     0.00014747    -0.00013381     0.00027129
H         0.94251421     0.05231761    -0.58887799    -0.00038762     0.00070786    -0.00077284
H         0.86799421    -0.08335111     1.82723314    -0.00218306     0.00045073    -0.00025001
H        -0.96500303     0.06199077     1.87047537    -0.00061031     0.00102465     0.00141456
H        -0.97120605     0.06298092    -0.56452597    -0.00005254     0.00017768    -0.00019074
     6
  Step:    17            Position(A)                                  Velocity(au)
C        -0.03646695     0.01422585    -0.02317684     0.00010630    -0.00004124    -0.00031529
N        -0.04569267    -0.06808682     1.34014302     0.00013667    -0.00013229     0.00026289
H         0.94028153     0.05621088    -0.59311148    -0.00042087     0.00070558    -0.00076372
H         0.85594866    -0.08088310     1.82598105    -0.00216335     0.00044468    -0.00019101
H        -0.96792591     0.06760023     1.87809875    -0.00044221     0.00101026     0.00134505
H        -0.97174013     0.06393736    -0.56584595    -0.00013951     0.00016929    -0.00028651
     6
  Step:    18            Position(A)                                  Velocity(au)
C        -0.03586344     0.01400085    -0.02486234     0.00011198    -0.00003799    -0.00033450
N        -0.04497598    -0.06881106     1.34156488     0.00012083    -0.00013259     0.00028095
H         0.93787658     0.06009259    -0.59729355    -0.00047504     0.00076438    -0.00071340
H         0.84415581    -0.07845113     1.82512835    -0.00210196     0.00037517    -0.00010944
H        -0.96987588     0.07312302     1.88529672    -0.00023902     0.00105936     0.00125049
H        -0.97274336     0.06484639    -0.56768313    -0.00019742     0.00009630    -0.00034587
     6
  Step:    19            Position(A)                                  Velocity(au)
C        -0.03523177     0.01380684    -0.02686655     0.00011658    -0.00003211    -0.00039775
N        -0.04435985    -0.06954940     1.34324204     0.00010011    -0.00013488     0.00033139
H         0.93504156     0.06464247    -0.60098076    -0.00055227     0.00086853    -0.00061989
H         0.83276261    -0.07674468     1.82477389    -0.00200256     0.00025886    -0.00001190
H        -0.97056245     0.07928565     1.89189248    -0.00000335     0.00115433     0.00112936
H        -0.97391780     0.06499962    -0.56966110    -0.00022229    -0.00002470    -0.00036305
     6
  Step:    20            Position(A)                                  Velocity(au)
C        -0.03457607     0.01364628    -0.02925454     0.00012014    -0.00002603    -0.00046632
N        -0.04387047    -0.07030051     1.34522431     0.00007504    -0.00013676     0.00038523
H         0.93177815     0.06968339    -0.60413870    -0.00062507     0.00094958    -0.00052365
H         0.82204246    -0.07559271     1.82499696    -0.00185170     0.00016396     0.00010327
H        -0.96991282     0.08586969     1.89776770     0.00023980     0.00122045     0.00099211
H        -0.97519802     0.06457364    -0.57169209    -0.00023746    -0.00012335    -0.00036836
     6
  Step:    21            Position(A)                                  Velocity(au)
C        -0.03390355     0.01351906    -0.03202187     0.00012229    -0.00002005    -0.00053234
N        -0.04353025    -0.07106132     1.34750094     0.00004636    -0.00013804     0.00043569
H         0.92813116     0.07514051    -0.60676996    -0.00068799     0.00101856    -0.00042941
H         0.81229129    -0.07493209     1.82591556    -0.00164947     0.00007888     0.00023885
H        -0.96791134     0.09277819     1.90286067     0.00048183     0.00127108     0.00084637
H        -0.97654303     0.06363596    -0.57373348    -0.00024575    -0.00021140    -0.00036688
     6
  Step:    22            Position(A)                                  Velocity(au)
C        -0.03322243     0.01342435    -0.03514726     0.00012287    -0.00001428    -0.00059341
N        -0.04335732    -0.07182850     1.35004716     0.00001496    -0.00013868     0.00048085
H         0.92416249     0.08095830    -0.60889203    -0.00073834     0.00107805    -0.00033957
H         0.80378370    -0.07471950     1.82764089    -0.00140183     0.00000103     0.00039222
H        -0.96457928     0.09993981     1.90713652     0.00071628     0.00130976     0.00069671
H        -0.97791830     0.06223357    -0.57575326    -0.00024818    -0.00029153    -0.00036020
     6
  Step:    23            Position(A)                                  Velocity(au)
C        -0.03254158     0.01336080    -0.03859968     0.00012180    -0.00000880    -0.00064805
N        -0.04336439    -0.07259857     1.35283099    -0.00001806    -0.00013869     0.00051971
H         0.91994684     0.08709044    -0.61053396    -0.00077411     0.00112944    -0.00025608
H         0.79675241    -0.07492072     1.83026324    -0.00111807    -0.00007088     0.00055858
H        -0.95997155     0.10729657     1.91058350     0.00093725     0.00133867     0.00054725
H        -0.97929403     0.06040448    -0.57772623    -0.00024560    -0.00036498    -0.00034948
     6
  Step:    24            Position(A)                                  Velocity(au)
C        -0.03187027     0.01332663    -0.04234140     0.00011905    -0.00000370    -0.00069528
N        -0.04355776    -0.07336816     1.35581648    -0.00005146    -0.00013810     0.00055179
H         0.91556899     0.09349637    -0.61173478    -0.00079376     0.00117366    -0.00018063
H         0.79137181    -0.07550638     1.83384177    -0.00081011    -0.00013763     0.00073157
H        -0.95417471     0.11480061     1.91321160     0.00113922     0.00135963     0.00040189
H        -0.98064478     0.05818188    -0.57963286    -0.00023885    -0.00043247    -0.00033570
     6
  Step:    25            Position(A)                                  Velocity(au)
C        -0.03121791     0.01331971    -0.04633009     0.00011463     0.00000098    -0.00073448
N        -0.04393657    -0.07413408     1.35896604    -0.00008394    -0.00013697     0.00057701
H         0.91112149     0.10013968    -0.61254232    -0.00079627     0.00121151    -0.00011464
H         0.78774528    -0.07645093     1.83839716    -0.00049161    -0.00019981     0.00090385
H        -0.94730523     0.12241358     1.91505187     0.00131717     0.00137446     0.00026437
H        -0.98194970     0.05559613    -0.58145867    -0.00022878    -0.00049445    -0.00031979
     6
  Step:    26            Position(A)                                  Velocity(au)
C        -0.03059379     0.01333758    -0.05052068     0.00010859     0.00000519    -0.00076544
N        -0.04449248    -0.07489351     1.36224217    -0.00011416    -0.00013541     0.00059562
H         0.90670159     0.10698788    -0.61301144    -0.00078126     0.00124392    -0.00005918
H         0.78589722    -0.07773149     1.84390713    -0.00017686    -0.00025785     0.00106782
H        -0.93950653     0.13010676     1.91615563     0.00146684     0.00138514     0.00013820
H        -0.98319245     0.05267566    -0.58319412    -0.00021623    -0.00055133    -0.00030268
     6
  Step:    27            Position(A)                                  Velocity(au)
C        -0.03000681     0.01337756    -0.05486727     0.00010106     0.00000888    -0.00078833
N        -0.04520985    -0.07564433     1.36560912    -0.00014095    -0.00013357     0.00060814
H         0.90240792     0.11401345    -0.61320233    -0.00074899     0.00127201    -0.00001492
H         0.78577267    -0.07932681     1.85030680     0.00012055    -0.00031211     0.00121645
H        -0.93094518     0.13786237     1.91659325     0.00158491     0.00139392     0.00002654
H        -0.98436136     0.04944706    -0.58483448    -0.00020208    -0.00060355    -0.00028522
     6
  Step:    28            Position(A)                                  Velocity(au)
C        -0.02946510     0.01343677    -0.05932529     0.00009221     0.00001205    -0.00080371
N        -0.04606666    -0.07638528     1.36903432    -0.00016332    -0.00013164     0.00061536
H         0.89833639     0.12119457    -0.61317806    -0.00070042     0.00129714     0.00001791
H         0.78724357    -0.08121730     1.85749333     0.00038899    -0.00036300     0.00134405
H        -0.92180512     0.14567507     1.91645200     0.00166929     0.00140339    -0.00006799
H        -0.98544937     0.04593476    -0.58637962    -0.00018715    -0.00065172    -0.00026824
     6
  Step:    29            Position(A)                                  Velocity(au)
C        -0.02897575     0.01351227    -0.06385356     0.00008227     0.00001469    -0.00081247
N        -0.04703594    -0.07711625     1.37248954    -0.00018061    -0.00012987     0.00061823
H         0.89457648     0.12851687    -0.61300208    -0.00063713     0.00132086     0.00003955
H         0.79012194    -0.08338548     1.86533475     0.00061967    -0.00041096     0.00144672
H        -0.91228074     0.15355376     1.91583300     0.00171915     0.00141632    -0.00014339
H        -0.98645385     0.04216018    -0.58783373    -0.00017221    -0.00069657    -0.00025251
     6
  Step:    30            Position(A)                                  Velocity(au)
C        -0.02854458     0.01360114    -0.06841605     0.00007146     0.00001683    -0.00081573
N        -0.04808751    -0.07783837     1.37595168    -0.00019245    -0.00012848     0.00061773
H         0.89120756     0.13597365    -0.61273552    -0.00056108     0.00134476     0.00005065
H         0.79417704    -0.08581550     1.87368065     0.00080708    -0.00045645     0.00152247
H        -0.90256955     0.16152220     1.91484760     0.00173480     0.00143552    -0.00019835
H        -0.98737617     0.03814082    -0.58920496    -0.00015792    -0.00073901    -0.00023867
     6
  Step:    31            Position(A)                                  Velocity(au)
C        -0.02817600     0.01370062    -0.07298294     0.00006001     0.00001850    -0.00081462
N        -0.04918982    -0.07855410     1.37940297    -0.00019877    -0.00012769     0.00061480
H         0.88829710     0.14356691    -0.61243522    -0.00047441     0.00137038     0.00005217
H         0.79915451    -0.08849393     1.88237369     0.00094882    -0.00049999     0.00157104
H        -0.89286546     0.16961956     1.91361314     0.00171742     0.00146367    -0.00023229
H        -0.98822123     0.03388942    -0.59050479    -0.00014483    -0.00077998    -0.00022722
     6
  Step:    32            Position(A)                                  Velocity(au)
C        -0.02787310     0.01380812    -0.07753085     0.00004814     0.00001974    -0.00081016
N        -0.05031151    -0.07926714     1.38283061    -0.00019967    -0.00012771     0.00061016
H         0.88589945     0.15130674    -0.61215182    -0.00037932     0.00139892     0.00004530
H         0.80479341    -0.09140992     1.89125893     0.00104498    -0.00054204     0.00159331
H        -0.88335340     0.17789918     1.91224857     0.00166872     0.00150299    -0.00024525
H        -0.98899667     0.02941361    -0.59174731    -0.00013333    -0.00082035    -0.00021853
     6
  Step:    33            Position(A)                                  Velocity(au)
C        -0.02763768     0.01392132    -0.08204199     0.00003605     0.00002059    -0.00080307
N        -0.05142253    -0.07998216     1.38622574    -0.00019544    -0.00012866     0.00060432
H         0.88405564     0.15920949    -0.61192863    -0.00027802     0.00143110     0.00003142
H         0.81083931    -0.09455492     1.90018987     0.00109736    -0.00058290     0.00159084
H        -0.87420609     0.18642585     1.91087078     0.00159075     0.00155501    -0.00023788
H        -0.98971215     0.02471643    -0.59294840    -0.00012369    -0.00086074    -0.00021282
     6
  Step:    34            Position(A)                                  Velocity(au)
C        -0.02747039     0.01403818    -0.08650273     0.00002391     0.00002110    -0.00079382
N        -0.05249498    -0.08070448     1.38958210    -0.00018645    -0.00013059     0.00059752
H         0.88279340     0.16729499    -0.61180080    -0.00017278     0.00146704     0.00001198
H         0.81705306    -0.09792205     1.90903171     0.00110887    -0.00062271     0.00156545
H        -0.86558154     0.19527173     1.90959100     0.00148602     0.00162038    -0.00021141
H        -0.99037850     0.01979746    -0.59412491    -0.00011602    -0.00090152    -0.00021015
     6
  Step:    35            Position(A)                                  Velocity(au)
C        -0.02737078     0.01415688    -0.09090195     0.00001194     0.00002132    -0.00078260
N        -0.05350359    -0.08143965     1.39289476    -0.00017318    -0.00013349     0.00058981
H         0.88212721     0.17558339    -0.61179493    -0.00006596     0.00150630    -0.00001148
H         0.82321566    -0.10150509     1.91766223     0.00108306    -0.00066140     0.00151910
H        -0.85762034     0.20451128     1.90851117     0.00135763     0.00169884    -0.00016775
H        -0.99100708     0.01465438    -0.59529391    -0.00011036    -0.00094275    -0.00021049
     6
  Step:    36            Position(A)                                  Velocity(au)
C        -0.02733729     0.01427588    -0.09522970     0.00000032     0.00002127    -0.00076946
N        -0.05442617    -0.08219303     1.39615917    -0.00015619    -0.00013728     0.00058114
H         0.88205783     0.18409217    -0.61192885     0.00003989     0.00154807    -0.00003738
H         0.82913051    -0.10529750     1.92597163     0.00102389    -0.00069877     0.00145384
H        -0.85044230     0.21421589     1.90772033     0.00120959     0.00178920    -0.00010952
H        -0.99160919     0.00928457    -0.59647212    -0.00010665    -0.00098428    -0.00021372
     6
  Step:    37            Position(A)                                  Velocity(au)
C        -0.02736726     0.01439391    -0.09947622    -0.00001073     0.00002101    -0.00075436
N        -0.05524406    -0.08296939     1.39937054    -0.00013616    -0.00014182     0.00057144
H         0.88257169     0.19283395    -0.61221149     0.00014210     0.00159123    -0.00006413
H         0.83462508    -0.10929165     1.93386275     0.00093568    -0.00073451     0.00137188
H        -0.84414155     0.22444876     1.90729073     0.00104698     0.00188943    -0.00004007
H        -0.99219554     0.00368634    -0.59767544    -0.00010475    -0.00102576    -0.00021966
     6
  Step:    38            Position(A)                                  Velocity(au)
C        -0.02745683     0.01450994    -0.10363161    -0.00002099     0.00002059    -0.00073727
N        -0.05594269    -0.08377260     1.40252380    -0.00011386    -0.00014691     0.00056068
H         0.88364048     0.20181501    -0.61264309     0.00023794     0.00163454    -0.00009017
H         0.83955191    -0.11347836     1.94125136     0.00082300    -0.00076831     0.00127562
H        -0.83878120     0.23525998     1.90727401     0.00087589     0.00199675     0.00003659
H        -0.99277591    -0.00214019    -0.59891861    -0.00010446    -0.00106682    -0.00022806
     6
  Step:    39            Position(A)                                  Velocity(au)
C        -0.02760100     0.01462323    -0.10768577    -0.00003025     0.00002006    -0.00071820
N        -0.05651189    -0.08460527     1.40561374    -0.00009013    -0.00015232     0.00054887
H         0.88522112     0.21103456    -0.61321556     0.00032476     0.00167671    -0.00011408
H         0.84378915    -0.11784677     1.94806676     0.00069057    -0.00079985     0.00116762
H        -0.83438851     0.24668253     1.90769814     0.00070314     0.00210775     0.00011600
H        -0.99335869    -0.00819269    -0.60021487    -0.00010549    -0.00110702    -0.00023863
     6
  Step:    40            Position(A)                                  Velocity(au)
C        -0.02779370     0.01473334    -0.11162860    -0.00003834     0.00001947    -0.00069720
N        -0.05694625    -0.08546860     1.40863529    -0.00006584    -0.00015776     0.00053607
H         0.88725660     0.22048465    -0.61391330     0.00040015     0.00171649    -0.00013457
H         0.84724124    -0.12238447     1.95425242     0.00054324    -0.00082889     0.00105057
H        -0.83095198     0.25872910     1.90856564     0.00053586     0.00221859     0.00019354
H        -0.99395055    -0.01446649    -0.60157574    -0.00010752    -0.00114594    -0.00025106
     6
  Step:    41            Position(A)                                  Velocity(au)
C        -0.02802794     0.01484010    -0.11545019    -0.00004509     0.00001888    -0.00067436
N        -0.05724511    -0.08636218     1.41158371    -0.00004184    -0.00016295     0.00052239
H         0.88967743     0.23015042    -0.61471417     0.00046204     0.00175275    -0.00015059
H         0.84983900    -0.12707779     1.95976655     0.00038581    -0.00085525     0.00092726
H        -0.82842082     0.27139004     1.90985348     0.00038103     0.00232522     0.00026472
H        -0.99455608    -0.02095456    -0.60301078    -0.00011014    -0.00118321    -0.00026496
     6
  Step:    42            Position(A)                                  Velocity(au)
C        -0.02829601     0.01494365    -0.11914112    -0.00005040     0.00001833    -0.00064982
N        -0.05741239    -0.08728396     1.41445481    -0.00001894    -0.00016761     0.00050795
H         0.89240390     0.24001076    -0.61559092     0.00050884     0.00178447    -0.00016136
H         0.85153931    -0.13191218     1.96458232     0.00022298    -0.00087882     0.00080043
H        -0.82670724     0.28463278     1.91151469     0.00024490     0.00242364     0.00032553
H        -0.99517750    -0.02764775    -0.60452745    -0.00011290    -0.00121848    -0.00027995
     6
  Step:    43            Position(A)                                  Velocity(au)
C        -0.02858973     0.01504437    -0.12269272    -0.00005423     0.00001786    -0.00062377
N        -0.05745621    -0.08823029     1.41724503     0.00000216    -0.00017147     0.00049289
H         0.89534874     0.25003914    -0.61651260     0.00053950     0.00181086    -0.00016637
H         0.85232426    -0.13687269     1.96868777     0.00005926    -0.00089962     0.00067283
H        -0.82569125     0.29840263     1.91348167     0.00013268     0.00251015     0.00037269
H        -0.99581441    -0.03453504    -0.60613095    -0.00011533    -0.00125148    -0.00029563
     6
  Step:    44            Position(A)                                  Velocity(au)
C        -0.02890072     0.01514285    -0.12609724    -0.00005655     0.00001752    -0.00059643
N        -0.05738828    -0.08919609     1.41995138     0.00002089    -0.00017429     0.00047733
H         0.89842022     0.26020485    -0.61744619     0.00055353     0.00183135    -0.00016539
H         0.85220011    -0.14194450     1.97208554    -0.00010113    -0.00091776     0.00054708
H        -0.82522763     0.31262520     1.91567085     0.00004814     0.00258166     0.00040385
H        -0.99646364    -0.04160387    -0.60782417    -0.00011693    -0.00128203    -0.00031158
     6