     6
  Step:     0            Position(A)                                  Velocity(au)
C        -0.04163268     0.01408837     0.04138078    -0.00001211    -0.00012888     0.00013910
N        -0.04144332    -0.04196647     1.27779588    -0.00025785     0.00008779    -0.00009201
H         0.90425560    -0.03863334    -0.52345960     0.00017789     0.00056730    -0.00002174
H         0.83613385    -0.17698435     1.83072538     0.00158027    -0.00058180     0.00025853
H        -0.95428827    -0.10624075     1.84563929     0.00151229     0.00007001    -0.00080232
H        -0.92703043     0.06738272    -0.51066030     0.00045704     0.00026023     0.00018662
     6
  Step:     1            Position(A)                                  Velocity(au)
C        -0.04162201     0.01271418     0.04191878     0.00001604    -0.00012299    -0.00004154
N        -0.04432003    -0.04104301     1.27789968    -0.00025929     0.00008105     0.00011105
H         0.90688464    -0.03247286    -0.52451237     0.00029375     0.00056126    -0.00016493
H         0.85278114    -0.18337280     1.83356666     0.00140275    -0.00057744     0.00022228
H        -0.93613493    -0.10552530     1.83615671     0.00173815     0.00005511    -0.00088456
H        -0.92461134     0.07043699    -0.51081953    -0.00002265     0.00030031    -0.00022095
     6
  Step:     2            Position(A)                                  Velocity(au)
C        -0.04128168     0.01139782     0.04047196     0.00004643    -0.00011840    -0.00021968
N        -0.04711577    -0.04019344     1.28022531    -0.00024283     0.00007475     0.00030747
H         0.91068205    -0.02635477    -0.52706777     0.00038823     0.00055958    -0.00029536
H         0.86682168    -0.18961706     1.83558812     0.00112113    -0.00055746     0.00012078
H        -0.91626295    -0.10503514     1.82628785     0.00180483     0.00002707    -0.00085857
H        -0.92752586     0.07395249    -0.51549390    -0.00049291     0.00034288    -0.00062177
     6
  Step:     3            Position(A)                                  Velocity(au)
C        -0.04060632     0.01012403     0.03711280     0.00007566    -0.00011521    -0.00038744
N        -0.04963248    -0.03940778     1.28462613    -0.00020829     0.00006977     0.00048461
H         0.91537788    -0.02023104    -0.53097398     0.00045587     0.00056216    -0.00041139
H         0.87730791    -0.19556824     1.83620887     0.00076948    -0.00052602    -0.00002236
H        -0.89665077    -0.10493308     1.81737393     0.00167453    -0.00001741    -0.00069992
H        -0.93539464     0.07793806    -0.52442196    -0.00090687     0.00038444    -0.00098386
     6
  Step:     4            Position(A)                                  Velocity(au)
C        -0.03962656     0.00887745     0.03199592     0.00010083    -0.00011337    -0.00053801
N        -0.05167260    -0.03866700     1.29082708    -0.00015654     0.00006683     0.00063254
H         0.92065505    -0.01405647    -0.53606775     0.00049354     0.00056863    -0.00051249
H         0.88365550    -0.20112483     1.83509892     0.00037954    -0.00048754    -0.00018542
H        -0.87962945    -0.10541598     1.81097582     0.00132934    -0.00008057    -0.00039865
H        -0.94736538     0.08236284    -0.53701776    -0.00122857     0.00042160    -0.00128245
     6
  Step:     5            Position(A)                                  Velocity(au)
C        -0.03840042     0.00764395     0.02534274     0.00011998    -0.00011272    -0.00066623
N        -0.05305717    -0.03794573     1.29846416    -0.00009078     0.00006633     0.00074554
H         0.92617511    -0.00779118    -0.54218576     0.00050046     0.00057845    -0.00059907
H         0.88561108    -0.20623404     1.83215236    -0.00001913    -0.00044667    -0.00034881
H        -0.86756881    -0.10669563     1.80865265     0.00078819    -0.00016206     0.00002999
H        -0.96227186     0.08716138    -0.55247809    -0.00143772     0.00045167    -0.00150344
     6
  Step:     6            Position(A)                                  Velocity(au)
C        -0.03700167     0.00641143     0.01742076     0.00013215    -0.00011308    -0.00076890
N        -0.05365863    -0.03721587     1.30713708    -0.00001741     0.00006834     0.00082263
H         0.93160363    -0.00140169    -0.54917347     0.00047800     0.00059105    -0.00067217
H         0.88323699    -0.21089651     1.82746793    -0.00039734    -0.00040873    -0.00049420
H        -0.86238625    -0.10896134     1.81163188     0.00011618    -0.00025764     0.00054042
H        -0.97881829     0.09224406    -0.56990842    -0.00152957     0.00047298    -0.00164332
     6
  Step:     7            Position(A)                                  Velocity(au)
C        -0.03550940     0.00517014     0.00852162     0.00013719    -0.00011422    -0.00084474
N        -0.05343810    -0.03645055     1.31646069     0.00005435     0.00007264     0.00086685
H         0.93663222     0.00513912    -0.55689067     0.00042930     0.00060588    -0.00073320
H         0.87691859    -0.21517572     1.82134068    -0.00072451    -0.00038008    -0.00060371
H        -0.86502721    -0.11233195     1.82047527    -0.00058369    -0.00035904     0.00106340
H        -0.99573420     0.09750867    -0.58842895    -0.00151111     0.00048480    -0.00170663
     6
  Step:     8            Position(A)                                  Velocity(au)
C        -0.03400046     0.00391265    -0.00105948     0.00013665    -0.00010987    -0.00099133
N        -0.05246960    -0.03562670     1.32610111     0.00011585     0.00007818     0.00095667
H         0.94099550     0.01185315    -0.56521360     0.00031121     0.00079655    -0.00069031
H         0.86738697    -0.21921142     1.81426061    -0.00102540    -0.00058883    -0.00069620
H        -0.87515561    -0.11681607     1.83489571    -0.00117692    -0.00026076     0.00153329
H        -1.01187674     0.10284991    -0.60724427    -0.00134715     0.00027577    -0.00162834
     6
  Step:     9            Position(A)                                  Velocity(au)
C        -0.03251990     0.00276662    -0.01316558     0.00012767    -0.00009869    -0.00123127
N        -0.05090364    -0.03474026     1.33738974     0.00016048     0.00008258     0.00111669
H         0.94344057     0.02256526    -0.57199249     0.00012807     0.00101901    -0.00054375
H         0.85448607    -0.22805739     1.80611003    -0.00127518    -0.00087578    -0.00074935
H        -0.89077452    -0.11803657     1.85401903    -0.00156897    -0.00009792     0.00185121
H        -1.02520574     0.10354167    -0.62405208    -0.00103531    -0.00001690    -0.00140403
     6
  Step:    10            Position(A)                                  Velocity(au)
C        -0.03120755     0.00175352    -0.02799598     0.00010902    -0.00008671    -0.00145948
N        -0.04895875    -0.03382004     1.35053074     0.00018150     0.00008682     0.00126929
H         0.94379734     0.03414584    -0.57710919    -0.00005139     0.00108653    -0.00040015
H         0.83948998    -0.23837086     1.79786710    -0.00137591    -0.00101909    -0.00070653
H        -0.90947989    -0.11895824     1.87539446    -0.00174512    -0.00007071     0.00198872
H        -1.03452621     0.10248014    -0.63796011    -0.00064877    -0.00017004    -0.00112922
     6
  Step:    11            Position(A)                                  Velocity(au)
C        -0.03013495     0.00086960    -0.04509460     0.00008434    -0.00007509    -0.00164501
N        -0.04693308    -0.03284081     1.36515784     0.00017500     0.00009386     0.00138782
H         0.94231636     0.04633522    -0.58074655    -0.00019906     0.00113699    -0.00027922
H         0.82438541    -0.25035195     1.79065329    -0.00128353    -0.00119436    -0.00055864
H        -0.92895229    -0.11958353     1.89752609    -0.00171923    -0.00003837     0.00199891
H        -1.03939880     0.09982178    -0.64875583    -0.00023500    -0.00031384    -0.00084464
     6
  Step:    12            Position(A)                                  Velocity(au)
C        -0.02936252     0.00011076    -0.06398382     0.00005464    -0.00006388    -0.00178797
N        -0.04513031    -0.03176664     1.38089200     0.00014243     0.00010446     0.00147312
H         0.93944248     0.05901962    -0.58321767    -0.00029849     0.00117975    -0.00019156
H         0.81141033    -0.26449970     1.78564586    -0.00099288    -0.00142035    -0.00030970
H        -0.94709142    -0.11979759     1.91912450    -0.00151992     0.00000421     0.00190425
H        -1.03966723     0.09561420    -0.65643814     0.00018102    -0.00045409    -0.00056834
     6
  Step:    13            Position(A)                                  Velocity(au)
C        -0.02893969    -0.00052786    -0.08420995     0.00002110    -0.00005316    -0.00189145
N        -0.04381722    -0.03055555     1.39738508     0.00008906     0.00011872     0.00152932
H         0.93578629     0.07214457    -0.58493736    -0.00033645     0.00121940    -0.00014485
H         0.80266429    -0.28142485     1.78387791    -0.00053942    -0.00169947     0.00001662
H        -0.96220347    -0.11949136     1.93918512    -0.00118773     0.00005505     0.00173173
H        -1.03543868     0.08988775    -0.66118927     0.00057459    -0.00059134    -0.00031680
     6
  Step:    14            Position(A)                                  Velocity(au)
C        -0.02890089    -0.00105230    -0.10536289    -0.00001452    -0.00004309    -0.00195964
N        -0.04318203    -0.02916934     1.41434870     0.00002352     0.00013573     0.00156253
H         0.93208209     0.08569628    -0.58638652    -0.00030483     0.00125930    -0.00014295
H         0.79960951    -0.30167878     1.78600938    -0.00000117    -0.00201752     0.00037875
H        -0.97307523    -0.11859336     1.95700933    -0.00076665     0.00011029     0.00150839
H        -1.02709706     0.08267742    -0.66336869     0.00091880    -0.00072478    -0.00010643
     6
  Step:    15            Position(A)                                  Velocity(au)
C        -0.02925729    -0.00147054    -0.12708088    -0.00004958    -0.00003383    -0.00199673
N        -0.04330266    -0.02758624     1.43156839    -0.00004362     0.00015351     0.00157930
H         0.92911751     0.09969417    -0.58806457    -0.00020306     0.00130198    -0.00018512
H         0.80263864    -0.32556199     1.79216368     0.00051713    -0.00234483     0.00072679
H        -0.97897550    -0.11707855     1.97218394    -0.00030003     0.00016572     0.00125917
H        -1.01533812     0.07403190    -0.66351762     0.00118299    -0.00085311     0.00004571
     6
  Step:    16            Position(A)                                  Velocity(au)
C        -0.02998561    -0.00179232    -0.14904514    -0.00008040    -0.00002549    -0.00200616
N        -0.04413636    -0.02581094     1.44889899    -0.00010210     0.00016959     0.00158499
H         0.92763985     0.11417964    -0.59043636    -0.00003995     0.00134874    -0.00026573
H         0.81092269    -0.35297651     1.80190927     0.00091374    -0.00264351     0.00101659
H        -0.97963898    -0.11496795     1.98455617     0.00017032     0.00021708     0.00100694
H        -1.00121693     0.06401402    -0.66236864     0.00133268    -0.00097524     0.00012220
     6
  Step:    17            Position(A)                                  Velocity(au)
C        -0.03101617    -0.00202818    -0.17096956    -0.00010242    -0.00001804    -0.00199045
N        -0.04553620    -0.02387622     1.46624305    -0.00014390     0.00018171     0.00158257
H         0.92824360     0.12920036    -0.59387795     0.00016588     0.00139917    -0.00037483
H         0.82262852    -0.38339390     1.81440350     0.00111815    -0.00287847     0.00122079
H        -0.97524939    -0.11232948     1.99421263     0.00060336     0.00026005     0.00077326
H        -0.98618318     0.05269661    -0.66084435     0.00133272    -0.00109089     0.00010711
     6
  Step:    18            Position(A)                                  Velocity(au)
C        -0.03222627    -0.00218704    -0.19259002    -0.00011110    -0.00001118    -0.00195166
N        -0.04728437    -0.02183572     1.48352075    -0.00016415     0.00018853     0.00157271
H         0.93126869     0.14478919    -0.59863658     0.00038829     0.00145097    -0.00049994
H         0.83538432    -0.41594857     1.82861642     0.00110379    -0.00302646     0.00133173
H        -0.96643943    -0.10927892     2.00147273     0.00095780     0.00029019     0.00057936
H        -0.97206114     0.04014874    -0.66002536     0.00115509    -0.00120144    -0.00000993
     6
  Step:    19            Position(A)                                  Velocity(au)
C        -0.03344659    -0.00227284    -0.21366588    -0.00010328    -0.00000431    -0.00189243
N        -0.04912738    -0.01975167     1.50064901    -0.00016083     0.00018981     0.00155465
H         0.93673812     0.16094320    -0.60481505     0.00059815     0.00150017    -0.00062836
H         0.84677601    -0.44960343     1.84353762     0.00088309    -0.00307922     0.00135713
H        -0.95429575    -0.10598102     2.00688714     0.00119287     0.00030311     0.00044578
H        -0.96091329     0.02641291    -0.66106167     0.00079155    -0.00131039    -0.00022816
     6
  Step:    20            Position(A)                                  Velocity(au)
C        -0.03448570    -0.00228141    -0.23399057    -0.00007880     0.00000336    -0.00181645
N        -0.05080286    -0.01768325     1.51753162    -0.00013395     0.00018617     0.00152715
H         0.94435431     0.17760830    -0.61238311     0.00076869     0.00154192    -0.00074941
H         0.85470369    -0.48331237     1.85830618     0.00049266    -0.00304119     0.00131291
H        -0.94034311    -0.10264775     2.01122507     0.00127221     0.00029490     0.00039029
H        -0.95474454     0.01148153    -0.66501687     0.00026678    -0.00142281    -0.00053063
     6
  Step:    21            Position(A)                                  Velocity(au)
C        -0.03517047    -0.00219931    -0.25340421    -0.00004128     0.00001258    -0.00172844
N        -0.05205771    -0.01567885     1.53405824    -0.00008508     0.00017873     0.00148923
H         0.95355469     0.19467572    -0.62120979     0.00087999     0.00157154    -0.00085575
H         0.85755392    -0.51613523     1.87226000    -0.00002156    -0.00292482     0.00121704
H        -0.92646374    -0.09952955     2.01542548     0.00117172     0.00026296     0.00042352
H        -0.95507686    -0.00471381    -0.67267021    -0.00035603    -0.00154335    -0.00088357
     6
  Step:    22            Position(A)                                  Velocity(au)
C        -0.03538875    -0.00200617    -0.27180350     0.00000251     0.00002373    -0.00163362
N        -0.05266405    -0.01377317     1.55011147    -0.00001743     0.00016871     0.00144089
H         0.96360588     0.21198875    -0.63110427     0.00092124     0.00158535    -0.00094367
H         0.85423208    -0.54729851     1.88493134    -0.00061389    -0.00274647     0.00108606
H        -0.91470947    -0.09689501     2.02049042     0.00089012     0.00020719     0.00054347
H        -0.96253344    -0.02228216    -0.68434658    -0.00098514    -0.00167338    -0.00124261
     6
  Step:    23            Position(A)                                  Velocity(au)
C        -0.03511561    -0.00168021    -0.28914284     0.00004469     0.00003664    -0.00153683
N        -0.05243901    -0.01198790     1.56558042     0.00006378     0.00015721     0.00138342
H         0.97370852     0.22935818    -0.64185444     0.00089042     0.00158117    -0.00101252
H         0.84412398    -0.57621957     1.89601958    -0.00124272    -0.00252417     0.00093397
H        -0.90699072    -0.09499687     2.02731488     0.00045782     0.00013099     0.00073112
H        -0.97662875    -0.04132209    -0.69985468    -0.00152429    -0.00180921    -0.00156417
     6
  Step:    24            Position(A)                                  Velocity(au)
C        -0.03441113    -0.00120467    -0.30542449     0.00007870     0.00005065    -0.00144163
N        -0.05126882    -0.01033397     1.58037644     0.00015127     0.00014512     0.00131941
H         0.98308557     0.24657991    -0.65325518     0.00079232     0.00155838    -0.00106370
H         0.82704523    -0.60251956     1.90536370    -0.00187045    -0.00227738     0.00077272
H        -0.90469370    -0.09402929     2.03648501    -0.00006237     0.00004151     0.00095088
H        -0.99588017    -0.06186212    -0.71856590    -0.00189941    -0.00194275    -0.00181640
     6
  Step:    25            Position(A)                                  Velocity(au)
C        -0.03339379    -0.00057220    -0.32068121     0.00010080     0.00006486    -0.00135000
N        -0.04912978    -0.00881307     1.59444507     0.00023641     0.00013334     0.00125212
H         0.99104213     0.26345083    -0.66512494     0.00063617     0.00151771    -0.00109976
H         0.80320422    -0.62604155     1.91292432    -0.00246179    -0.00202799     0.00061321
H        -0.90835526    -0.09408881     2.04811725    -0.00058686    -0.00005138     0.00115757
H        -1.01818190    -0.08382357    -0.73959190    -0.00207395    -0.00206423    -0.00198428
     6
  Step:    26            Position(A)                                  Velocity(au)
C        -0.03220594     0.00021421    -0.33495833     0.00011007     0.00007840    -0.00126248
N        -0.04609682    -0.00741682     1.60776899     0.00031064     0.00012297     0.00118458
H         0.99700292     0.27978267    -0.67731453     0.00043363     0.00146090    -0.00112377
H         0.77318880    -0.64688564     1.91877892    -0.00298222    -0.00180182     0.00046631
H        -0.91753242    -0.09515323     2.06180913    -0.00103194    -0.00013698     0.00130790
H        -1.04125185    -0.10702112    -0.76197583    -0.00204787    -0.00216515    -0.00206799
     6
  Step:    27            Position(A)                                  Velocity(au)
C        -0.03098572     0.00114293    -0.34830048     0.00010760     0.00009061    -0.00117870
N        -0.04233397    -0.00612293     1.62036007     0.00036692     0.00011552     0.00111878
H         1.00052861     0.29541084    -0.68970950     0.00019738     0.00139047    -0.00113886
H         0.73796240    -0.66545979     1.92312575    -0.00339815    -0.00162948     0.00034325
H        -0.93093100    -0.09708547     2.07673010    -0.00133462    -0.00020595     0.00137127
H        -1.06298288    -0.13119042    -0.78483305    -0.00184568    -0.00224004    -0.00207728
     6
  Step:    28            Position(A)                                  Velocity(au)
C        -0.02985195     0.00219640    -0.36074457     0.00009532     0.00010105    -0.00109783
N        -0.03806970    -0.00488966     1.63224453     0.00040086     0.00011295     0.00105535
H         1.00132094     0.31020197    -0.70222918    -0.00005970     0.00130955    -0.00114803
H         0.69884766    -0.68253354     1.92628817    -0.00367991    -0.00154500     0.00025497
H        -0.94672979    -0.09965874     2.09180835    -0.00146416    -0.00025160     0.00133504
H        -1.08162971    -0.15602632    -0.80742031    -0.00150266    -0.00228664    -0.00202570
     6
  Step:    29            Position(A)                                  Velocity(au)
C        -0.02890036     0.00335359    -0.37231767     0.00007524     0.00010949    -0.00101902
N        -0.03356432    -0.00365203     1.64344792     0.00041110     0.00011726     0.00099381
H         0.99922257     0.32405965    -0.71482488    -0.00032490     0.00122169    -0.00115411
H         0.65745723    -0.69925967     1.92870362    -0.00380818    -0.00158058     0.00020988
H        -0.96296220    -0.10258975     2.10593674    -0.00142146    -0.00027008     0.00120322
H        -1.09585649    -0.18121506    -0.82914914    -0.00105484    -0.00230517    -0.00192667
     6
  Step:    30            Position(A)                                  Velocity(au)
C        -0.02820602     0.00459161    -0.38303757     0.00004902     0.00011579    -0.00094148
N        -0.02907603    -0.00232443     1.65398606     0.00039929     0.00012973     0.00093324
H         0.99421321     0.33692881    -0.72747755    -0.00058595     0.00113084    -0.00115970
H         0.61553648    -0.71711178     1.93087980    -0.00378243    -0.00175640     0.00021042
H        -0.97782696    -0.10556728     2.11813104    -0.00123020    -0.00025966     0.00099106
H        -1.10470646    -0.20645622    -0.84956995    -0.00053424    -0.00229742    -0.00179173
     6
  Step:    31            Position(A)                                  Velocity(au)
C        -0.02782798     0.00588679    -0.39291426     0.00001798     0.00011994    -0.00086455
N        -0.02482906    -0.00081392     1.66386433     0.00036976     0.00014992     0.00087296
H         0.98640372     0.34879900    -0.74019559    -0.00083124     0.00104119    -0.00116722
H         0.57470923    -0.73768434     1.93330690    -0.00362735    -0.00206773     0.00024945
H        -0.98987516    -0.10827024     2.12761806    -0.00092606    -0.00021982     0.00071923
H        -1.10754391    -0.23147553    -0.86834674     0.00003204    -0.00226623    -0.00163035
     6
  Step:    32            Position(A)                                  Velocity(au)
C        -0.02781271     0.00721556    -0.40195122    -0.00001683     0.00012197    -0.00078768
N        -0.02098675     0.00095530     1.67308363     0.00032884     0.00017492     0.00081291
H         0.97602821     0.35970690    -0.75301282    -0.00105000     0.00095710    -0.00117888
H         0.53618124    -0.76234736     1.93633706    -0.00339133    -0.00247552     0.00030928
H        -0.99808621    -0.11037620     2.13386557    -0.00054852    -0.00015062     0.00040961
H        -1.10400559    -0.25603435    -0.88523690     0.00062069    -0.00221522    -0.00145039
     6
  Step:    33            Position(A)                                  Velocity(au)
C        -0.02819618     0.00855521    -0.41014630    -0.00005445     0.00012202    -0.00071038
N        -0.01763501     0.00301280     1.68164822     0.00028363     0.00019956     0.00075359
H         0.96343299     0.36973735    -0.76598591    -0.00123272     0.00088290    -0.00119657
H         0.50051730    -0.79184115     1.94007292    -0.00313443    -0.00290881     0.00036498
H        -1.00187518    -0.11156534     2.13657900    -0.00013636    -0.00005247     0.00008319
H        -1.09396506    -0.27993765    -0.90007686     0.00121097    -0.00214880    -0.00125877
     6
  Step:    34            Position(A)                                  Velocity(au)
C        -0.02900389     0.00988506    -0.41749213    -0.00009382     0.00012034    -0.00063217
N        -0.01478191     0.00532095     1.68956975     0.00024055     0.00021759     0.00069553
H         0.94906000     0.37902210    -0.77919014    -0.00137176     0.00082270    -0.00122168
H         0.46760955    -0.82598321     1.94432179    -0.00290994    -0.00328181     0.00039181
H        -1.00106939    -0.11152413     2.13568545     0.00027385     0.00007378    -0.00024043
H        -1.07751339    -0.30304351    -0.91277496     0.00178312    -0.00207245    -0.00106207
     6
  Step:    35            Position(A)                                  Velocity(au)
C        -0.03024877     0.01118793    -0.42397632    -0.00013363     0.00011736    -0.00055260
N        -0.01237257     0.00777302     1.69686435     0.00020433     0.00022355     0.00063878
H         0.93342309     0.38773557    -0.79271241    -0.00146195     0.00078004    -0.00125476
H         0.43685682    -0.86363709     1.94864446    -0.00274948    -0.00351864     0.00037277
H        -0.99588411    -0.10995128     2.13131917     0.00064728     0.00022670    -0.00054272
H        -1.05495600    -0.32527650    -0.92331162     0.00231707    -0.00199314    -0.00086720
     6
  Step:    36            Position(A)                                  Velocity(au)
C        -0.03192739     0.01245251    -0.42958136    -0.00017211     0.00011377    -0.00047120
N        -0.01031175     0.01021153     1.70354433     0.00017775     0.00021409     0.00058254
H         0.91707699     0.39608699    -0.80664044    -0.00150148     0.00075749    -0.00129512
H         0.40745931    -0.90296020     1.95247683    -0.00265889    -0.00357265     0.00030268
H        -0.98690885    -0.10656469     2.12381252     0.00094992     0.00040432    -0.00080580
H        -1.02682310    -0.34664717    -0.93174665     0.00279125    -0.00191999    -0.00068209
     6
  Step:    37            Position(A)                                  Velocity(au)
C        -0.03401403     0.01367681    -0.43428469    -0.00020692     0.00011062    -0.00038751
N        -0.00848394     0.01245672     1.70960849     0.00016205     0.00018838     0.00052527
H         0.90057530     0.40430710    -0.82104565    -0.00149261     0.00075618    -0.00134022
H         0.37868843    -0.94179564     1.95526615    -0.00262430    -0.00343196     0.00018725
H        -0.97510269    -0.10110594     2.11369085     0.00114874     0.00060470    -0.00101251
H        -0.99389207    -0.36727994    -0.93823375     0.00318194    -0.00186501    -0.00051616
     6
  Step:    38            Position(A)                                  Velocity(au)
C        -0.03645425     0.01487264    -0.43805897    -0.00023519     0.00010945    -0.00030115
N        -0.00676653     0.01433274     1.71503552     0.00015751     0.00014746     0.00046504
H         0.88442330     0.41262996    -0.83596036    -0.00144178     0.00077564    -0.00138530
H         0.35004780    -0.97804086     1.95657336    -0.00262207    -0.00311221     0.00003921
H        -0.96177798    -0.09333577     2.10166187     0.00121399     0.00082685    -0.00114742
H        -0.95721206    -0.38744779    -0.94303863     0.00346362    -0.00184373    -0.00038039
     6
  Step:    39            Position(A)                                  Velocity(au)
C        -0.03915937     0.01607118    -0.44087289    -0.00025375     0.00011219    -0.00021184
N        -0.00503806     0.01568279     1.71978220     0.00016362     0.00009328     0.00040002
H         0.86903356     0.42127573    -0.85135174    -0.00135904     0.00081380    -0.00142320
H         0.32132555    -1.00988113     1.95612384    -0.00262708    -0.00264426    -0.00012595
H        -0.94854440    -0.08301706     2.08858881     0.00112469     0.00107219    -0.00119896
H        -0.91811877    -0.40761515    -0.94655553     0.00361138    -0.00187491    -0.00028638
     6
  Step:    40            Position(A)                                  Velocity(au)
C        -0.04200555     0.01732693    -0.44269338    -0.00025973     0.00012096    -0.00011965
N        -0.00318697     0.01637352     1.72378665     0.00017884     0.00002786     0.00032881
H         0.85469173     0.43043332    -0.86709550    -0.00125674     0.00086729    -0.00144468
H         0.29257531    -1.03588903     1.95381801    -0.00261702    -0.00206374    -0.00029280
H        -0.93717313    -0.06987962     2.07543238     0.00087687     0.00134566    -0.00116262
H        -0.87820618    -0.42846494    -0.94930369     0.00360661    -0.00197779    -0.00024341
     6
  Step:    41            Position(A)                                  Velocity(au)
C        -0.04484144     0.01871749    -0.44349044    -0.00025147     0.00013749    -0.00002519
N        -0.00112559     0.01629223     1.72697552     0.00020012    -0.00004705     0.00025083
H         0.84153988     0.44024942    -0.88295681    -0.00114782     0.00093212    -0.00143960
H         0.26407327    -1.05502939     1.94971838    -0.00257371    -0.00140530    -0.00044775
H        -0.92936118    -0.05357813     2.06315428     0.00049179     0.00165511    -0.00104439
H        -0.83921731    -0.45088303    -0.95188053     0.00344537    -0.00216650    -0.00025380
     6
  Step:    42            Position(A)                                  Velocity(au)
C        -0.04750694     0.02033476    -0.44324440    -0.00022944     0.00016221     0.00007020
N         0.00119099     0.01534427     1.72927411     0.00022275    -0.00012958     0.00016649
H         0.82958095     0.45082514    -0.89858949    -0.00104402     0.00100424    -0.00139898
H         0.23627039    -1.06663273     1.94402268    -0.00248368    -0.00070221    -0.00058014
H        -0.92641425    -0.03367087     2.05258437     0.00001984     0.00200768    -0.00086285
H        -0.80283221    -0.47586135    -0.95485605     0.00314650    -0.00244191    -0.00030807
     6
  Step:    43            Position(A)                                  Velocity(au)
C        -0.04986091     0.02226608    -0.44195474    -0.00019663     0.00019357     0.00016436
N         0.00374744     0.01345738     1.73061774     0.00024086    -0.00021711     0.00007711
H         0.81870001     0.46221909    -0.91356209    -0.00095469     0.00108005    -0.00131716
H         0.20973809    -1.07039149     1.93702681    -0.00233876     0.00001062    -0.00068275
H        -0.92892704    -0.00965631     2.04427769    -0.00046470     0.00240417    -0.00064761
H        -0.77038158    -0.50430443    -0.95862025     0.00275417    -0.00278454    -0.00038258
     6
  Step:    44            Position(A)                                  Velocity(au)
C        -0.05180865     0.02456957    -0.43964861    -0.00015793     0.00022798     0.00025455
N         0.00646022     0.01059465     1.73096101     0.00024846    -0.00030562    -0.00001542
H         0.80869534     0.47445330    -0.92740492    -0.00088615     0.00115650    -0.00119275
H         0.18510554    -1.06640030     1.92908620    -0.00213599     0.00069284    -0.00075115
H        -0.93658048     0.01892496     2.03841667    -0.00087853     0.00283486    -0.00043287
H        -0.74257941    -0.53677848    -0.96322578     0.00232984    -0.00315375    -0.00044215
     6