     6
  Step:     0            Position(A)                                  Velocity(au)
C        -0.03995018     0.02458890     0.02249003    -0.00003109    -0.00012969     0.00034918
N        -0.03669397    -0.06703238     1.29863093    -0.00001143     0.00005528    -0.00032637
H         0.91713525     0.00934735    -0.48446093    -0.00067589     0.00037384     0.00016747
H         0.82296008    -0.09395008     1.78975513     0.00034277     0.00001054     0.00039951
H        -0.97357604     0.01155712     1.88037408     0.00018581    -0.00007462    -0.00047064
H        -0.99349633     0.04177079    -0.60785201     0.00067657     0.00046742     0.00027813
     6
  Step:     1            Position(A)                                  Velocity(au)
C        -0.04015789     0.02389603     0.02425035    -0.00004482    -0.00012363     0.00029311
N        -0.03683943    -0.06674066     1.29698686    -0.00004084     0.00005128    -0.00027300
H         0.91372053     0.01140000    -0.48388406    -0.00056848     0.00037707     0.00004144
H         0.82530709    -0.09390347     1.79237373     0.00050491     0.00000682     0.00055160
H        -0.97190763     0.01113398     1.87748892     0.00042152    -0.00007991    -0.00058247
H        -0.98960084     0.04429705    -0.60629194     0.00074370     0.00045658     0.00029033
     6
  Step:     2            Position(A)                                  Velocity(au)
C        -0.04044042     0.02323677     0.02569589    -0.00005831    -0.00011748     0.00023443
N        -0.03714069    -0.06647157     1.29564507    -0.00006813     0.00004703    -0.00021615
H         0.91091761     0.01347153    -0.48400772    -0.00045364     0.00038093    -0.00008792
H         0.82848240    -0.09387553     1.79578815     0.00064367     0.00000380     0.00068923
H        -0.96896578     0.01068317     1.87400347     0.00064971    -0.00008462    -0.00068909
H        -0.98536224     0.04676457    -0.60467655     0.00080175     0.00044617     0.00029801
     6
  Step:     3            Position(A)                                  Velocity(au)
C        -0.04079547     0.02261139     0.02681380    -0.00007121    -0.00011131     0.00017363
N        -0.03758443    -0.06622637     1.29462325    -0.00009272     0.00004256    -0.00015632
H         0.90875997     0.01556552    -0.48484550    -0.00033396     0.00038546    -0.00021897
H         0.83234559    -0.09386192     1.79991049     0.00075519     0.00000163     0.00080964
H        -0.96480299     0.01020869     1.86995375     0.00086627    -0.00008843    -0.00078774
H        -0.98083365     0.04917597    -0.60303316     0.00084949     0.00043628     0.00030022
     6
  Step:     4            Position(A)                                  Velocity(au)
C        -0.04121892     0.02201988     0.02759420    -0.00008318    -0.00010515     0.00011130
N        -0.03815443    -0.06600631     1.29393609    -0.00011412     0.00003785    -0.00009410
H         0.90726646     0.01768571    -0.48640168    -0.00021214     0.00039063    -0.00034994
H         0.83673879    -0.09385769     1.80463991     0.00083683     0.00000041     0.00091078
H        -0.95949492     0.00971636     1.86539117     0.00106671    -0.00009100    -0.00087545
H        -0.97607487     0.05153435    -0.60139433     0.00088563     0.00042695     0.00029596
     6
  Step:     5            Position(A)                                  Velocity(au)
C        -0.04170474     0.02146191     0.02803044    -0.00009388    -0.00009907     0.00004804
N        -0.03883195    -0.06581258     1.29359462    -0.00013188     0.00003293    -0.00003024
H         0.90644098     0.01983567    -0.48867083    -0.00009093     0.00039639    -0.00047900
H         0.84149332    -0.09385748     1.80986661     0.00088715     0.00000018     0.00099130
H        -0.95314241     0.00921392     1.86038387     0.00124612    -0.00009195    -0.00094897
H        -0.97115250     0.05384311    -0.59979788     0.00090892     0.00041823     0.00028430
     6
  Step:     6            Position(A)                                  Velocity(au)
C        -0.04224509     0.02093695     0.02811935    -0.00010298    -0.00009310    -0.00001544
N        -0.03959597    -0.06564631     1.29360559    -0.00014558     0.00002782     0.00003441
H         0.90627257     0.02201853    -0.49163748     0.00002697     0.00040260    -0.00060424
H         0.84643608    -0.09385578     1.81547563     0.00090584     0.00000094     0.00105055
H        -0.94587386     0.00871124     1.85501813     0.00139915    -0.00009088    -0.00100483
H        -0.96613970     0.05610590    -0.59828669     0.00091816     0.00041014     0.00026434
     6
  Step:     7            Position(A)                                  Velocity(au)
C        -0.04283041     0.02044422     0.02786162    -0.00011017    -0.00008728    -0.00007842
N        -0.04042340    -0.06550852     1.29397077    -0.00015489     0.00002251     0.00009886
H         0.90673578     0.02423668    -0.49527604     0.00013894     0.00040913    -0.00072381
H         0.85139542    -0.09384718     1.82135054     0.00089362     0.00000267     0.00108852
H        -0.93784771     0.00822047     1.84939963     0.00152016    -0.00008735    -0.00103942
H        -0.96111568     0.05832654    -0.59690829     0.00091235     0.00040272     0.00023531
     6
  Step:     8            Position(A)                                  Velocity(au)
C        -0.04344959     0.01998271     0.02726202    -0.00011519    -0.00008165    -0.00014008
N        -0.04128938    -0.06540019     1.29468643    -0.00015948     0.00001704     0.00016204
H         0.90779163     0.02649165    -0.49955108     0.00024259     0.00041579    -0.00083591
H         0.85620632    -0.09382658     1.82737675     0.00085210     0.00000529     0.00110581
H        -0.92925353     0.00775617     1.84365378     0.00160341    -0.00008093    -0.00104918
H        -0.95616465     0.06050897    -0.59571397     0.00089070     0.00039598     0.00019663
     6
  Step:     9            Position(A)                                  Velocity(au)
C        -0.04409023     0.01955122     0.02632961    -0.00011785    -0.00007626    -0.00019964
N        -0.04216754    -0.06532213     1.29574298    -0.00015913     0.00001143     0.00022288
H         0.90938885     0.02878393    -0.50441799     0.00033579     0.00042238    -0.00093893
H         0.86071437    -0.09378934     1.83344420     0.00078358     0.00000870     0.00110349
H        -0.92031200     0.00733535     1.83792527     0.00164346    -0.00007119    -0.00103080
H        -0.95137449     0.06265723    -0.59475787     0.00085274     0.00038995     0.00014792
     6
  Step:    10            Position(A)                                  Velocity(au)
C        -0.04473900     0.01914832     0.02507778    -0.00011801    -0.00007115    -0.00025630
N        -0.04303037    -0.06527508     1.29712491    -0.00015368     0.00000571     0.00028028
H         0.91146551     0.03111291    -0.50982387     0.00041679     0.00042873    -0.00103148
H         0.86477939    -0.09373142     1.83944995     0.00069099     0.00001278     0.00108311
H        -0.91127255     0.00697731     1.83237592     0.00163563    -0.00005774    -0.00098156
H        -0.94683488     0.06477542    -0.59409558     0.00079842     0.00038465     0.00008912
     6
  Step:    11            Position(A)                                  Velocity(au)
C        -0.04538203     0.01877239     0.02352402    -0.00011563    -0.00006635    -0.00030935
N        -0.04384980    -0.06525960     1.29881105    -0.00014312    -0.00000009     0.00033327
H         0.91395113     0.03347696    -0.51570895     0.00048422     0.00043466    -0.00111247
H         0.86827822    -0.09364948     1.84530030     0.00057770     0.00001739     0.00104656
H        -0.90240786     0.00670333     1.82718073     0.00157651    -0.00004028    -0.00089967
H        -0.94263469     0.06686770    -0.59378230     0.00072822     0.00038007     0.00002052
     6
  Step:    12            Position(A)                                  Velocity(au)
C        -0.04600541     0.01842166     0.02168958    -0.00011074    -0.00006188    -0.00035816
N        -0.04459791    -0.06527609     1.30077510    -0.00012757    -0.00000595     0.00038101
H         0.91676898     0.03587349    -0.52200822     0.00053722     0.00044000    -0.00118113
H         0.87110664    -0.09354093     1.85091245     0.00044732     0.00002240     0.00099600
H        -0.89400579     0.00653611     1.82252221     0.00146455    -0.00001865    -0.00078458
H        -0.93885902     0.06893819    -0.59387079     0.00064317     0.00037623    -0.00005720
     6
  Step:    13            Position(A)                                  Velocity(au)
C        -0.04659566     0.01809421     0.01959888    -0.00010349    -0.00005778    -0.00040221
N        -0.04524782    -0.06532476     1.30298666    -0.00010732    -0.00001181     0.00042286
H         0.91983858     0.03829905    -0.52865319     0.00057533     0.00044465    -0.00123704
H         0.87318055    -0.09340399     1.85621567     0.00030367     0.00002766     0.00093376
H        -0.88635751     0.00649897     1.81858240     0.00130056     0.00000717    -0.00063726
H        -0.93558610     0.07099087    -0.59440915     0.00054484     0.00037308    -0.00014298
     6
  Step:    14            Position(A)                                  Velocity(au)
C        -0.04714024     0.01778804     0.01727884    -0.00009407    -0.00005405    -0.00044114
N        -0.04577474    -0.06540557     1.30541228    -0.00008287    -0.00001763     0.00045841
H         0.92307810     0.04074955    -0.53557377     0.00059853     0.00044848    -0.00128007
H         0.87443674    -0.09323764     1.86115222     0.00015061     0.00003302     0.00086230
H        -0.87974371     0.00661475     1.81553394     0.00108800     0.00003697    -0.00046045
H        -0.93288427     0.07302944    -0.59543868     0.00043532     0.00037056    -0.00023537
     6
  Step:    15            Position(A)                                  Velocity(au)
C        -0.04762791     0.01750111     0.01475814    -0.00008277    -0.00005069    -0.00047470
N        -0.04615714    -0.06551821     1.30801686    -0.00005493    -0.00002336     0.00048746
H         0.92640636     0.04322031    -0.54269964     0.00060711     0.00045141    -0.00131031
H         0.87483323    -0.09304166     1.86567783    -0.00000797     0.00003835     0.00078409
H        -0.87441871     0.00690461     1.81352979     0.00083323     0.00007030    -0.00025870
H        -0.93080922     0.07505709    -0.59699187     0.00031717     0.00036855    -0.00033257
     6
  Step:    16            Position(A)                                  Velocity(au)
C        -0.04804907     0.01723140     0.01206646    -0.00006991    -0.00004770    -0.00050275
N        -0.04637789    -0.06566202     1.31076485    -0.00002440    -0.00002892     0.00051006
H         0.92974443     0.04570618    -0.54996151     0.00060166     0.00045331    -0.00132803
H         0.87434922    -0.09281653     1.86976185    -0.00016824     0.00004351     0.00070160
H        -0.87059446     0.00738662     1.81269333     0.00054538     0.00010647    -0.00003826
H        -0.92940159     0.07707626    -0.59909049     0.00019332     0.00036690    -0.00043250
     6
  Step:    17            Position(A)                                  Velocity(au)
C        -0.04839613     0.01697700     0.00923396    -0.00005588    -0.00004504    -0.00052525
N        -0.04642523    -0.06583593     1.31362134     0.00000765    -0.00003423     0.00052638
H         0.93301730     0.04820127    -0.55729194     0.00058296     0.00045409    -0.00133360
H         0.87298459    -0.09256361     1.87338693    -0.00032634     0.00004836     0.00061727
H        -0.86842609     0.00807450     1.81310945     0.00023591     0.00014456     0.00019317
H        -0.92868505     0.07908858    -0.60174413     0.00006699     0.00036538    -0.00053276
     6
  Step:    18            Position(A)                                  Velocity(au)
C        -0.04866351     0.01673613     0.00629079    -0.00004105    -0.00004269    -0.00054221
N        -0.04629378    -0.06603843     1.31655296     0.00004000    -0.00003921     0.00053675
H         0.93615463     0.05069942    -0.56462580     0.00055196     0.00045366    -0.00132742
H         0.87076078    -0.09228480     1.87654936    -0.00047833     0.00005278     0.00053354
H        -0.86800038     0.00897619     1.81481743    -0.00008198     0.00018341     0.00042682
H        -0.92866498     0.08109401    -0.60494871    -0.00005841     0.00036367    -0.00063076
     6
  Step:    19            Position(A)                                  Velocity(au)
C        -0.04884788     0.01650722     0.00326680    -0.00002583    -0.00004059    -0.00055370
N        -0.04598502    -0.06626745     1.31952833     0.00007138    -0.00004375     0.00054153
H         0.93909172     0.05319393    -0.57190051     0.00050975     0.00045190    -0.00130995
H         0.86772045    -0.09198272     1.87925864    -0.00062030     0.00005666     0.00045280
H        -0.86932826     0.01009293     1.81780673    -0.00039420     0.00022172     0.00065348
H        -0.92932787     0.08309080    -0.60868577    -0.00017941     0.00036141    -0.00072382
     6
  Step:    20            Position(A)                                  Velocity(au)
C        -0.04894806     0.01628895     0.00019137    -0.00001063    -0.00003872    -0.00055980
N        -0.04550748    -0.06652039     1.32251836     0.00010052    -0.00004775     0.00054115
H         0.94176990     0.05567743    -0.57905595     0.00045750     0.00044866    -0.00128164
H         0.86392770    -0.09166060     1.88153732    -0.00074831     0.00005988     0.00037741
H        -0.87234278     0.01141865     1.82201604    -0.00068683     0.00025815     0.00086408
H        -0.93064134     0.08507523    -0.61292213    -0.00029262     0.00035824    -0.00080923
     6
  Step:    21            Position(A)                                  Velocity(au)
C        -0.04896505     0.01608025    -0.00290680     0.00000418    -0.00003700    -0.00056067
N        -0.04487650    -0.06679409     1.32549620     0.00012624    -0.00005112     0.00053599
H         0.94413712     0.05814183    -0.58603468     0.00039653     0.00044383    -0.00124305
H         0.85946792    -0.09132231     1.88342076    -0.00085854     0.00006233     0.00030965
H        -0.87690275     0.01293986     1.82733603    -0.00094718     0.00029137     0.00105044
H        -0.93255495     0.08704151    -0.61761016    -0.00039488     0.00035378    -0.00088447
     6
  Step:    22            Position(A)                                  Velocity(au)
C        -0.04890189     0.01588034    -0.00599984     0.00001823    -0.00003541    -0.00055650
N        -0.04411352    -0.06708491     1.32843708     0.00014753    -0.00005377     0.00052646
H         0.94614857     0.06057845    -0.59278238     0.00032827     0.00043734    -0.00119490
H         0.85444715    -0.09097227     1.88495671    -0.00094746     0.00006393     0.00025173
H        -0.88280206     0.01463612     1.83361556    -0.00116478     0.00032022     0.00120583
H        -0.93500186     0.08898189    -0.62268893    -0.00048345     0.00034772    -0.00094730
     6
  Step:    23            Position(A)                                  Velocity(au)
C        -0.04876345     0.01568865    -0.00906103     0.00003121    -0.00003390    -0.00054762
N        -0.04324500    -0.06738877     1.33131822     0.00016364    -0.00005566     0.00051297
H         0.94776741     0.06297825    -0.59924871     0.00025431     0.00042918    -0.00113813
H         0.84899022    -0.09061533     1.88620453    -0.00101203     0.00006461     0.00020560
H        -0.88978369     0.01648107     1.84067099    -0.00133212     0.00034379     0.00132554
H        -0.93790132     0.09088685    -0.62808606    -0.00055618     0.00033981    -0.00099599
     6
  Step:    24            Position(A)                                  Velocity(au)
C        -0.04855617     0.01550484    -0.01206533     0.00004288    -0.00003244    -0.00053443
N        -0.04230099    -0.06770138     1.33411879     0.00017410    -0.00005675     0.00049593
H         0.94896541     0.06533216    -0.60538852     0.00017630     0.00041945    -0.00107396
H         0.84323777    -0.09025666     1.88723393    -0.00104999     0.00006434     0.00017292
H        -0.89755684     0.01844401     1.84829749    -0.00144512     0.00036152     0.00140711
H        -0.94116218     0.09274565    -0.63372072    -0.00061164     0.00032992    -0.00102947
     6
  Step:    25            Position(A)                                  Velocity(au)
C        -0.04828772     0.01532871    -0.01498998     0.00005307    -0.00003102    -0.00051749
N        -0.04131348    -0.06801837     1.33682008     0.00017878    -0.00005707     0.00047583
H         0.94972334     0.06763167    -0.61116327     0.00009591     0.00040835    -0.00100385
H         0.83734158    -0.08990150     1.88812292    -0.00106015     0.00006315     0.00015490
H        -0.90581591     0.02049176     1.85628160    -0.00150321     0.00037321     0.00145046
H        -0.94468689     0.09454697    -0.63950710    -0.00064925     0.00031805    -0.00104741
     6
  Step:    26            Position(A)                                  Velocity(au)
C        -0.04796656     0.01516014    -0.01781520     0.00006168    -0.00002963    -0.00049747
N        -0.04031460    -0.06833552     1.33940577     0.00017782    -0.00005668     0.00045319
H         0.95003102     0.06986940    -0.61654243     0.00001469     0.00039619    -0.00092947
H         0.83145834    -0.08955498     1.88895508    -0.00104251     0.00006109     0.00015218
H        -0.91425922     0.02259079     1.86441379    -0.00150897     0.00037906     0.00145762
H        -0.94837608     0.09627960    -0.64535858    -0.00066926     0.00030436    -0.00105023
     6
  Step:    27            Position(A)                                  Velocity(au)
C        -0.04760150     0.01499903    -0.02052480     0.00006872    -0.00002827    -0.00047511
N        -0.03933505    -0.06864897     1.34186229     0.00017167    -0.00005566     0.00042860
H         0.94988680     0.07203971    -0.62150460    -0.00006595     0.00038338    -0.00085260
H         0.82574267    -0.08922185     1.88981613    -0.00099829     0.00005825     0.00016481
H        -0.92260474     0.02470922     1.87249909    -0.00146746     0.00037961     0.00143231
H        -0.95213312     0.09793323    -0.65119194    -0.00067272     0.00028907    -0.00103908
     6
  Step:    28            Position(A)                                  Velocity(au)
C        -0.04720124     0.01484525    -0.02310655     0.00007640    -0.00002405    -0.00049837
N        -0.03840272    -0.06895537     1.34417912     0.00015995    -0.00005715     0.00043836
H         0.94929652     0.07413915    -0.62603799    -0.00017860     0.00042105    -0.00072798
H         0.82034022    -0.08890628     1.89079057    -0.00094236     0.00000457     0.00018007
H        -0.93060256     0.02681852     1.88036568    -0.00136315     0.00043656     0.00136912
H        -0.95586827     0.09949903    -0.65693104    -0.00064897     0.00021860    -0.00097422
     6
  Step:    29            Position(A)                                  Velocity(au)
C        -0.04675011     0.01473102    -0.02607872     0.00008503    -0.00001688    -0.00056972
N        -0.03755259    -0.06928589     1.34674744     0.00014308    -0.00006116     0.00048489
H         0.94789648     0.07673199    -0.62961735    -0.00032220     0.00049533    -0.00055777
H         0.81524093    -0.08917096     1.89182283    -0.00087707    -0.00008549     0.00019355
H        -0.93779583     0.02957426     1.88775671    -0.00120234     0.00053422     0.00127072
H        -0.95936531     0.10036932    -0.66204878    -0.00060001     0.00010704    -0.00085589
     6
  Step:    30            Position(A)                                  Velocity(au)
C        -0.04625335     0.01465706    -0.02945757     0.00009259    -0.00000977    -0.00064103
N        -0.03680769    -0.06963720     1.34958446     0.00012261    -0.00006458     0.00053193
H         0.94570477     0.07966092    -0.63225571    -0.00046004     0.00054868    -0.00039230
H         0.81056303    -0.08985923     1.89294817    -0.00079100    -0.00015459     0.00021546
H        -0.94400570     0.03277377     1.89453113    -0.00101495     0.00060412     0.00115209
H        -0.96255696     0.10069228    -0.66647210    -0.00054120     0.00001554    -0.00072865
     6
  Step:    31            Position(A)                                  Velocity(au)
C        -0.04571787     0.01462213    -0.03322500     0.00009892    -0.00000293    -0.00070841
N        -0.03618575    -0.07000580     1.35267748     0.00009935    -0.00006740     0.00057611
H         0.94276793     0.08284867    -0.63399077    -0.00058834     0.00059069    -0.00023483
H         0.80642279    -0.09089429     1.89422482    -0.00068540    -0.00021225     0.00024793
H        -0.94911059     0.03630905     1.90060032    -0.00080971     0.00065771     0.00102071
H        -0.96539865     0.10054261    -0.67017182    -0.00047595    -0.00006460    -0.00059821
     6
  Step:    32            Position(A)                                  Velocity(au)
C        -0.04515079     0.01462435    -0.03735359     0.00010399     0.00000353    -0.00077065
N        -0.03570027    -0.07038844     1.35600584     0.00007403    -0.00006968     0.00061641
H         0.93914697     0.08624486    -0.63487321    -0.00070486     0.00062519    -0.00008728
H         0.80292340    -0.09222497     1.89571166    -0.00056290    -0.00026205     0.00029050
H        -0.95303085     0.04010476     1.90590817    -0.00059333     0.00069968     0.00088165
H        -0.96786203     0.09997229    -0.67313984    -0.00040688    -0.00013656    -0.00046767
     6
  Step:    33            Position(A)                                  Velocity(au)
C        -0.04455914     0.01466149    -0.04181191     0.00010782     0.00000959    -0.00082721
N        -0.03536088    -0.07078224     1.35954580     0.00004730    -0.00007148     0.00065246
H         0.93491410     0.08981474    -0.63496326    -0.00080765     0.00065444     0.00004886
H         0.80015071    -0.09381417     1.89746164    -0.00042677    -0.00030613     0.00034174
H        -0.95572166     0.04410518     1.91042401    -0.00037147     0.00073299     0.00073893
H        -0.96993232     0.09902099    -0.67538279    -0.00033621    -0.00020218    -0.00033930
     6
  Step:    34            Position(A)                                  Velocity(au)
C        -0.04394994     0.01473113    -0.04656661     0.00011039     0.00001521    -0.00087773
N        -0.03517351    -0.07118460     1.36327258     0.00001979    -0.00007286     0.00068408
H         0.93015183     0.09353365    -0.63432908    -0.00089479     0.00068003     0.00017224
H         0.79817030    -0.09563454     1.89951784    -0.00028077    -0.00034591     0.00039964
H        -0.95716805     0.04826845     1.91413798    -0.00014905     0.00075978     0.00059588
H        -0.97160654     0.09772049    -0.67691873    -0.00026587    -0.00026267    -0.00021489
     6
  Step:    35            Position(A)                                  Velocity(au)
C        -0.04333026     0.01483075    -0.05158305     0.00011166     0.00002036    -0.00092193
N        -0.03514054    -0.07159329     1.36716114    -0.00000785    -0.00007385     0.00071119
H         0.92495306     0.09738500    -0.63304588    -0.00096429     0.00070317     0.00028160
H         0.79702515    -0.09766493     1.90191056    -0.00012910    -0.00038232     0.00046168
H        -0.95738097     0.05256325     1.91705757     0.00006947     0.00078166     0.00045538
H        -0.97289206     0.09609690    -0.67777498    -0.00019762    -0.00031885    -0.00009598
     6
  Step:    36            Position(A)                                  Velocity(au)
C        -0.04270742     0.01495768    -0.05682548     0.00011158     0.00002502    -0.00095951
N        -0.03526083    -0.07200640     1.37118651    -0.00003498    -0.00007452     0.00073377
H         0.91942151     0.10135833    -0.63119556    -0.00101409     0.00072476     0.00037569
H         0.79673374    -0.09988884     1.90465528     0.00002369    -0.00041596     0.00052504
H        -0.95639498     0.05696654     1.91920531     0.00027996     0.00079989     0.00032000
H        -0.97380554     0.09417248    -0.67798681    -0.00013303    -0.00037127     0.00001607
     6
  Step:    37            Position(A)                                  Velocity(au)
C        -0.04208902     0.01510909    -0.06225694     0.00011008     0.00002916    -0.00099020
N        -0.03552971    -0.07242229     1.37532386    -0.00006097    -0.00007491     0.00075179
H         0.91367207     0.10544741    -0.62886662    -0.00104208     0.00074543     0.00045327
H         0.79728864    -0.10229223     1.90775123     0.00017285    -0.00044716     0.00058672
H        -0.95426657     0.06146148     1.92061729     0.00047837     0.00081546     0.00019215
H        -0.97437196     0.09196684    -0.67759627    -0.00007361    -0.00042026     0.00012001
     6
  Step:    38            Position(A)                                  Velocity(au)
C        -0.04148305     0.01528203    -0.06783914     0.00010709     0.00003275    -0.00101370
N        -0.03593897    -0.07283960     1.37954839    -0.00008515    -0.00007507     0.00076520
H         0.90783076     0.10964952    -0.62615394    -0.00104632     0.00076573     0.00051322
H         0.79865628    -0.10486246     1.91118113     0.00031368    -0.00047605     0.00064374
H        -0.95107423     0.06603665     1.92134258     0.00066062     0.00082926     0.00007423
H        -0.97462431     0.08949805    -0.67665196    -0.00002079    -0.00046601     0.00021465
     6
  Step:    39            Position(A)                                  Velocity(au)
C        -0.04089780     0.01547336    -0.07353248     0.00010258     0.00003575    -0.00102980
N        -0.03647689    -0.07325729     1.38383526    -0.00010691    -0.00007506     0.00077400
H         0.90203367     0.11396477    -0.62315804    -0.00102515     0.00078611     0.00055456
H         0.80077770    -0.10758736     1.91491165     0.00044170    -0.00050262     0.00069334
H        -0.94691844     0.07068547     1.92144295     0.00082265     0.00084213    -0.00003145
H        -0.97460316     0.08678335    -0.67520870     0.00002410    -0.00050858     0.00029884
     6
  Step:    40            Position(A)                                  Velocity(au)
C        -0.04034178     0.01567976    -0.07929639     0.00009653     0.00003813    -0.00103837
N        -0.03712842    -0.07367468     1.38815971    -0.00012565    -0.00007495     0.00077823
H         0.89642517     0.11839558    -0.61998401    -0.00097748     0.00080695     0.00057671
H         0.80357056    -0.11045446     1.91889505     0.00055298    -0.00052679     0.00073313
H        -0.94192164     0.07540597     1.92099268     0.00096055     0.00085492    -0.00012264
H        -0.97435622     0.08383969    -0.67332709     0.00005980    -0.00054800     0.00037159
     6
  Step:    41            Position(A)                                  Velocity(au)
C        -0.03982341     0.01589778    -0.08508984     0.00008900     0.00003988    -0.00103948
N        -0.03787543    -0.07409146     1.39249711    -0.00014088    -0.00007481     0.00077796
H         0.89115403     0.12294634    -0.61673912    -0.00090305     0.00082860     0.00057955
H         0.80693246    -0.11345062     1.92307161     0.00064428    -0.00054843     0.00076128
H        -0.93622729     0.08020091     1.92007799     0.00107071     0.00086851    -0.00019726
H        -0.97393760     0.08068399    -0.67107285     0.00008524    -0.00058426     0.00043203
     6
  Step:    42            Position(A)                                  Velocity(au)
C        -0.03935069     0.01612386    -0.09087232     0.00008010     0.00004098    -0.00103335
N        -0.03869727    -0.07450781     1.39682334    -0.00015219    -0.00007475     0.00077339
H         0.88636852     0.12762306    -0.61352993    -0.00080256     0.00085133     0.00056359
H         0.81074546    -0.11656189     1.92737285     0.00071336    -0.00056744     0.00077658
H        -0.92999790     0.08507798     1.91879591     0.00115004     0.00088386    -0.00025354
H        -0.97340696     0.07733315    -0.66851589     0.00009956    -0.00061743     0.00047956
     6
  Step:    43            Position(A)                                  Velocity(au)
C        -0.03893085     0.01635448    -0.09660477     0.00007003     0.00004146    -0.00102043
N        -0.03957132    -0.07492439     1.40111517    -0.00015932    -0.00007484     0.00076474
H         0.88221084     0.13243298    -0.61045886    -0.00067782     0.00087541     0.00052999
H         0.81488161    -0.11977371     1.93172531     0.00075897    -0.00058376     0.00077856
H        -0.92341205     0.09005001     1.91725270     0.00119623     0.00090195    -0.00029012
H        -0.97282818     0.07380381    -0.66572893     0.00010218    -0.00064761     0.00051389
     6
  Step:    44            Position(A)                                  Velocity(au)
C        -0.03856983     0.01658616    -0.10225078     0.00005905     0.00004133    -0.00100136
N        -0.04047383    -0.07534235     1.40535073    -0.00016217    -0.00007519     0.00075238
H         0.87881034     0.13738445    -0.60762016    -0.00053181     0.00090102     0.00048064
H         0.81920844    -0.12307121     1.93605428     0.00078089    -0.00059740     0.00076737
H        -0.91665919     0.09513529     1.91556094     0.00120801     0.00092377    -0.00030621
H        -0.97226764     0.07011193    -0.66278569     0.00009284    -0.00067498     0.00053506
     6