 Fermi distribution function

Calculation with static geometry


********************************************************************************
 iSCC Total electronic   Diff electronic      SCC error    
   12   -0.52888342E+01   -0.18595622E-07    0.40867674E-06
********************************************************************************

 Total charge:     1.00000000

 Atomic gross charges (e)
 Atom           Charge
    1       0.29698476
    2      -0.18799196
    3       0.16746162
    4       0.26078222
    5       0.27694380
    6       0.18581956

Nr. of electrons (up):     12.00000000
Atom populations (up)
 Atom       Population
    1       3.70301524
    2       5.18799196
    3       0.83253838
    4       0.73921778
    5       0.72305620
    6       0.81418044

l-shell populations (up)
 Atom Sh.   l       Population
    1   1   0       1.38394509
    1   2   1       2.31907015
    2   1   0       1.50574836
    2   2   1       3.68224360
    3   1   0       0.83253838
    4   1   0       0.73921778
    5   1   0       0.72305620
    6   1   0       0.81418044

Orbital populations (up)
 Atom Sh.   l   m       Population  Label
    1   1   0   0       1.38394509  s
    1   2   1  -1       0.47842254  p_y
    1   2   1   0       0.87873985  p_z
    1   2   1   1       0.96190776  p_x
    2   1   0   0       1.50574836  s
    2   2   1  -1       1.33850240  p_y
    2   2   1   0       1.12877602  p_z
    2   2   1   1       1.21496518  p_x
    3   1   0   0       0.83253838  s
    4   1   0   0       0.73921778  s
    5   1   0   0       0.72305620  s
    6   1   0   0       0.81418044  s

Fermi level:                        -0.5124429955 H          -13.9443 eV
Band energy:                        -8.7173905882 H         -237.2123 eV
TS:                                  0.0000000000 H            0.0000 eV
Band free energy (E-TS):            -8.7173905882 H         -237.2123 eV
Extrapolated E(0K):                 -8.7173905882 H         -237.2123 eV
Input / Output electrons (q):     12.0000000000     12.0000000000

Energy H0:                          -5.4251783563 H         -147.6266 eV
Energy SCC:                          0.1363441182 H            3.7101 eV
Total Electronic energy:            -5.2888342381 H         -143.9165 eV
Repulsive energy:                    0.1393651039 H            3.7923 eV
Total energy:                       -5.1494691342 H         -140.1242 eV
Extrapolated to 0:                  -5.1494691342 H         -140.1242 eV
Total Mermin free energy:           -5.1494691342 H         -140.1242 eV
Force related energy:               -5.1494691342 H         -140.1242 eV

SCC converged

Excitation Energy:                   0.1005586268 H            2.7363 eV

Total Forces
    1      0.001468883976     -0.006736499871      0.065652001476
    2      0.007781923417     -0.006746451852     -0.067251632219
    3     -0.006431531521     -0.007045531873     -0.002961401403
    4     -0.017010043543      0.016766944935     -0.003091835120
    5      0.007204788523     -0.008453574069      0.004351546728
    6      0.006985979149      0.012215112729      0.003301320538

Maximal derivative component:        0.672516E-01 au


