|===============================================================================
|
|  DFTB+ release 20.1
|
|  Copyright (C) 2006 - 2020  DFTB+ developers group
|
|===============================================================================
|
|  When publishing results obtained with DFTB+, please cite the following
|  reference:
|
|  * DFTB+, a software package for efficient approximate density functional
|    theory based atomistic simulations, J. Chem. Phys. 152, 124101 (2020).
|    [doi: 10.1063/1.5143190]
|
|  You should also cite additional publications crediting the parametrization
|  data you use. Please consult the documentation of the SK-files for the
|  references.
|
|===============================================================================

Reading input file 'dftb_in.hsd'
Parser version: 8

--------------------------------------------------------------------------------
Reading SK-files:
Done.


Processed input in HSD format written to 'dftb_pin.hsd'

Starting initialization...
--------------------------------------------------------------------------------
OpenMP threads:              1
Chosen random seed:          510724689
Mode:                        Static calculation
Self consistent charges:     Yes
SCC-tolerance:                 0.100000E-05
Max. scc iterations:                   1000
Shell resolved Hubbard:      No
Spin polarisation:           No
Nr. of up electrons:             6.000000
Nr. of down electrons:           6.000000
Periodic boundaries:         No
Electronic solver:           Relatively robust
Maximal SCC-cycles:                    1000
Initial charges:             Set automatically (system chrg:   0.100E+01)
Included shells:             C:  s, p
                             N:  s, p
                             H:  s
Spin coupling constants:     C   1(s)-1(s):  -0.455900E-01
                             C   1(s)-2(p):  -0.293000E-01
                             C   2(p)-1(s):  -0.293000E-01
                             C   2(p)-2(p):  -0.275500E-01
                             N   1(s)-1(s):  -0.468700E-01
                             N   1(s)-2(p):  -0.317000E-01
                             N   2(p)-1(s):  -0.317000E-01
                             N   2(p)-2(p):  -0.307200E-01
                             H   1(s)-1(s):  -0.792500E-01
Range separated hybrid:      Yes
  Screening parameter omega:   0.300000E+00
  Range separated algorithm:   MatrixBased
Extra options:
                             Mulliken analysis
                             Force calculation
Force type                   original
                             Eigenvector printing


REKS Calcuation:             Yes
SSR(2,2) Calcuation:         Yes
Energy Functional:           (PPS+OSS)/2
Number of Core Orbitals:                  5
Number of Active Orbitals:                2
Number of Basis:                         12
Number of States:                         2
State-Averaging Weight:          0.500000
                                 0.500000
State of Interest:                        1
Initial Guess:               Diagonalize H0 matrix
Newton-Raphson for FON opt:  Yes
NR max. Iterations:                      50
Level Shifting:              Yes
Shift Value:                     0.300000
W Scale Factor:              C  =    3.000000
                             N  =    3.000000
                             H  =    3.000000
Transition Dipole:           No
Gradient of Microstate:      No
CP-REKS Solver:              Preconditioned Conjugate-Gradient
CG max. Iterations:                     100
CG Tolerance:                  0.100000E-07
Memory for A and Hxc:        Direct Updating Without Saving
Non-Adiabatic Coupling:      Yes

--------------------------------------------------------------------------------

***  Geometry step: 0

  iSCC       reks energy        Diff energy         x_a       SCC error   
    1       -6.2657953441       0.0000000000     0.999711    1.19700235
    2       -6.2770163276      -0.0112209835     0.999867    0.07882245
    3       -6.2811939194      -0.0041775918     0.999924    0.03067523
    4       -6.2834837409      -0.0022898214     0.999949    0.01332499
    5       -6.2847821798      -0.0012984389     0.999961    0.01012827
    6       -6.2855073776      -0.0007251978     0.999967    0.00860589
    7       -6.2859040339      -0.0003966564     0.999970    0.00690564
    8       -6.2861173713      -0.0002133374     0.999972    0.00533888
    9       -6.2862308367      -0.0001134654     0.999973    0.00402657
   10       -6.2862908113      -0.0000599746     0.999973    0.00298657
   11       -6.2863224427      -0.0000316315     0.999974    0.00219023
   12       -6.2863391427      -0.0000167000     0.999974    0.00159387
   13       -6.2863479919      -0.0000088492     0.999974    0.00115380
   14       -6.2863527085      -0.0000047167     0.999974    0.00083228
   15       -6.2863552421      -0.0000025335     0.999974    0.00059897
   16       -6.2863566156      -0.0000013735     0.999974    0.00043045
   17       -6.2863573680      -0.0000007525     0.999974    0.00032590
   18       -6.2863577849      -0.0000004169     0.999974    0.00025664
   19       -6.2863580186      -0.0000002337     0.999974    0.00020228
   20       -6.2863581512      -0.0000001326     0.999974    0.00015954
   21       -6.2863582273      -0.0000000761     0.999974    0.00012772
   22       -6.2863582714      -0.0000000441     0.999974    0.00010209
   23       -6.2863582973      -0.0000000259     0.999974    0.00008148
   24       -6.2863583126      -0.0000000153     0.999974    0.00006496
   25       -6.2863583218      -0.0000000091     0.999974    0.00005173
   26       -6.2863583272      -0.0000000055     0.999974    0.00004115
   27       -6.2863583306      -0.0000000033     0.999974    0.00003270
   28       -6.2863583326      -0.0000000020     0.999974    0.00002597
   29       -6.2863583338      -0.0000000012     0.999974    0.00002061
   30       -6.2863583346      -0.0000000008     0.999974    0.00001635
   31       -6.2863583350      -0.0000000005     0.999974    0.00001296
   32       -6.2863583353      -0.0000000003     0.999974    0.00001027
   33       -6.2863583355      -0.0000000002     0.999974    0.00000813
   34       -6.2863583356      -0.0000000001     0.999974    0.00000643
   35       -6.2863583357      -0.0000000001     0.999974    0.00000509
   36       -6.2863583357      -0.0000000000     0.999974    0.00000403
   37       -6.2863583357      -0.0000000000     0.999974    0.00000319
   38       -6.2863583357      -0.0000000000     0.999974    0.00000252
   39       -6.2863583357      -0.0000000000     0.999974    0.00000199
   40       -6.2863583358      -0.0000000000     0.999974    0.00000157
   41       -6.2863583358      -0.0000000000     0.999974    0.00000124
   42       -6.2863583358      -0.0000000000     0.999974    0.00000098
  
--------------------------------------------------
 Final SA-REKS(2,2) energy:      -6.28635834
  
 State     Energy      FON(1)    FON(2)   Spin
  PPS   -6.41771424   1.999948  0.000052  0.00
  OSS   -6.15500243   1.000000  1.000000  0.00
 Trip   -6.23329906   1.000000  1.000000  1.00
--------------------------------------------------

 Lagrangian Wab:  -0.00144070 -0.00144064

--------------------------------------------------
 SSR: 2SI-2SA-REKS(2,2) Hamiltonian matrix
               PPS           OSS
   PPS    -6.41771424   -0.00202704
   OSS    -0.00202704   -6.15500243
--------------------------------------------------

----------------------------------------------------------------
 SSR: 2SI-2SA-REKS(2,2) states
                    E_n       C_{PPS}    C_{OSS}
 SSR state  1   -6.41772988  -0.999970  -0.007715
 SSR state  2   -6.15498679   0.007715  -0.999970
----------------------------------------------------------------

 unrelaxed SSR FONs for S0:  1.999888  0.000112

Total Energy:                       -6.4177298794 H         -174.6353 eV
Extrapolated to 0:                  -6.4177298794 H         -174.6353 eV

----------------------------------------------------------------------------------
 Solving CP-REKS equation for  1 state vector...
----------------------------------------------------------------------------------
  CG solver: Constructing Y initial guess
  CG solver: Iteration    1    eps =    0.000038616659
  CG solver: Iteration    2    eps =    0.000003203917
  CG solver: Iteration    3    eps =    0.000000270256
  CG solver: Iteration    4    eps =    0.000000004141
  Convergence reached in CG solver after    4 iterations
  CG solver: Calculating converged R, Z, Q2 matrix
----------------------------------------------------------------------------------

----------------------------------------------------------------------------------
 Solving CP-REKS equation for SI between  1 and  2 state vectors...
----------------------------------------------------------------------------------
  CG solver: Constructing Y initial guess
  CG solver: Iteration    1    eps =    0.000412942861
  CG solver: Iteration    2    eps =    0.000175844423
  CG solver: Iteration    3    eps =    0.000069026640
  CG solver: Iteration    4    eps =    0.000001029294
  CG solver: Iteration    5    eps =    0.000000100881
  CG solver: Iteration    6    eps =    0.000000003963
  Convergence reached in CG solver after    6 iterations
  CG solver: Calculating converged R, Z, Q2 matrix
----------------------------------------------------------------------------------

--------------------------------------------------
 Gradient Information
--------------------------------------------------
           1 st state (SSR)
     0.00084075     0.00036295     0.02074295
     0.00311330    -0.00660429    -0.01921352
    -0.00413534     0.00411937    -0.00384772
    -0.00265220    -0.00137698     0.00222527
    -0.00041551     0.00667181     0.00663865
     0.00324900    -0.00317286    -0.00654563

           2 st state (SSR)
     0.00216230    -0.00906829     0.12318075
     0.00528842     0.01209301    -0.14453595
    -0.01814729    -0.00350557     0.01663671
    -0.00992975     0.00243395    -0.00702360
     0.00469425    -0.00468959    -0.00320131
     0.01593207     0.00273650     0.01494340
--------------------------------------------------
 Coupling Information
--------------------------------------------------
 between  1 and  2 states
--------------------------------------------------
 g vector - difference gradient
    -0.00064890     0.00471600    -0.05123125
    -0.00111985    -0.00935658     0.06266633
     0.00701293     0.00390471    -0.01023977
     0.00364014    -0.00199996     0.00462957
    -0.00253162     0.00577885     0.00492490
    -0.00635271    -0.00304302    -0.01074978

 h vector - derivative coupling
    -0.00077497     0.00001199     0.00040518
     0.00208384     0.00044174     0.00015175
    -0.00039697    -0.00594785    -0.00023712
    -0.00005985     0.00610883    -0.00029709
    -0.00152722    -0.00631629    -0.00028072
     0.00067516     0.00570158     0.00025798

 G vector - GDV
    -0.00066078     0.00471562    -0.05121890
    -0.00108756    -0.00934865     0.06266122
     0.00700597     0.00381247    -0.01024221
     0.00363878    -0.00190547     0.00462443
    -0.00255488     0.00568070     0.00491998
    -0.00634153    -0.00295468    -0.01074452

 H vector - DCV - non-adiabatic coupling
    -0.00291106    -0.00023130     0.00455055
     0.00799593     0.00223052    -0.00310263
    -0.00192253    -0.02286414    -0.00030102
    -0.00044152     0.02336489    -0.00140245
    -0.00566322    -0.02437630    -0.00135751
     0.00294241     0.02187632     0.00161306
--------------------------------------------------


--------------------------------------------------------------------------------
DFTB+ running times                          cpu [s]             wall clock [s]
--------------------------------------------------------------------------------
SCC                                    +     0.02  ( 65.2%)      0.02  ( 60.0%)
Post-SCC processing                    +     0.01  ( 30.3%)      0.01  ( 28.6%)
--------------------------------------------------------------------------------
Missing                                +     0.00  (  4.4%)      0.00  ( 11.4%)
Total                                  =     0.03  (100.0%)      0.04  (100.0%)
--------------------------------------------------------------------------------
