 Fermi distribution function

Calculation with static geometry


********************************************************************************
 iSCC Total electronic   Diff electronic      SCC error    
   10   -0.54352495E+01   -0.40856207E-13    0.82241495E-07
********************************************************************************

 Total charge:     1.00000000

 Atomic gross charges (e)
 Atom           Charge
    1       0.18756280
    2      -0.06549475
    3       0.16914317
    4       0.26855073
    5       0.28485463
    6       0.15538343

Nr. of electrons (up):     12.00000000
Atom populations (up)
 Atom       Population
    1       3.81243720
    2       5.06549475
    3       0.83085683
    4       0.73144927
    5       0.71514537
    6       0.84461657

l-shell populations (up)
 Atom Sh.   l       Population
    1   1   0       1.29787464
    1   2   1       2.51456257
    2   1   0       1.41508748
    2   2   1       3.65040727
    3   1   0       0.83085683
    4   1   0       0.73144927
    5   1   0       0.71514537
    6   1   0       0.84461657

Orbital populations (up)
 Atom Sh.   l   m       Population  Label
    1   1   0   0       1.29787464  s
    1   2   1  -1       0.60679454  p_y
    1   2   1   0       0.88465778  p_z
    1   2   1   1       1.02311025  p_x
    2   1   0   0       1.41508748  s
    2   2   1  -1       1.35761441  p_y
    2   2   1   0       1.11165394  p_z
    2   2   1   1       1.18113892  p_x
    3   1   0   0       0.83085683  s
    4   1   0   0       0.73144927  s
    5   1   0   0       0.71514537  s
    6   1   0   0       0.84461657  s

Fermi level:                        -0.4871779993 H          -13.2568 eV
Band energy:                        -8.9561081759 H         -243.7081 eV
TS:                                  0.0000000000 H            0.0000 eV
Band free energy (E-TS):            -8.9561081759 H         -243.7081 eV
Extrapolated E(0K):                 -8.9561081759 H         -243.7081 eV
Input / Output electrons (q):     12.0000000000     12.0000000000

Energy H0:                          -5.5688540746 H         -151.5362 eV
Energy SCC:                          0.1336045404 H            3.6356 eV
Total Electronic energy:            -5.4352495342 H         -147.9007 eV
Repulsive energy:                    0.1985709020 H            5.4034 eV
Total energy:                       -5.2366786322 H         -142.4973 eV
Extrapolated to 0:                  -5.2366786322 H         -142.4973 eV
Total Mermin free energy:           -5.2366786322 H         -142.4973 eV
Force related energy:               -5.2366786322 H         -142.4973 eV

SCC converged

Excitation Energy:                   0.1563685540 H            4.2550 eV

Total Forces
    1      0.007732406803      0.003667908055     -0.005237172964
    2      0.005525853797     -0.004492770101     -0.016017046172
    3     -0.010152756392     -0.007501791920      0.005701520800
    4     -0.010345598022      0.010202679715      0.003665677596
    5      0.003204226169     -0.009610633438      0.006643131391
    6      0.004035867644      0.007734607689      0.005243889349

Maximal derivative component:        0.160170E-01 au


