|===============================================================================
|
|  DFTB+ release 20.1
|
|  Copyright (C) 2006 - 2020  DFTB+ developers group
|
|===============================================================================
|
|  When publishing results obtained with DFTB+, please cite the following
|  reference:
|
|  * DFTB+, a software package for efficient approximate density functional
|    theory based atomistic simulations, J. Chem. Phys. 152, 124101 (2020).
|    [doi: 10.1063/1.5143190]
|
|  You should also cite additional publications crediting the parametrization
|  data you use. Please consult the documentation of the SK-files for the
|  references.
|
|===============================================================================

Reading input file 'dftb_in.hsd'
Parser version: 8

--------------------------------------------------------------------------------
Reading SK-files:
Done.


Processed input in HSD format written to 'dftb_pin.hsd'

Starting initialization...
--------------------------------------------------------------------------------
WARNING!
-> Excited state forces are not implemented yet for fractional occupations, kT=  0.3158E-02K
OpenMP threads:              1
Chosen random seed:          508345463
Mode:                        Static calculation
Self consistent charges:     Yes
SCC-tolerance:                 0.100000E-05
Max. scc iterations:                    100
Shell resolved Hubbard:      No
Spin polarisation:           No
Nr. of up electrons:             6.000000
Nr. of down electrons:           6.000000
Periodic boundaries:         No
Electronic solver:           Relatively robust
Mixer:                       Broyden mixer
Mixing parameter:                  0.200000
Maximal SCC-cycles:                     100
Nr. of chrg. vec. in memory:              0
Electronic temperature:        0.100000E-07 H      0.272114E-06 eV
Initial charges:             Set automatically (system chrg:   0.100E+01)
Included shells:             C:  s, p
                             N:  s, p
                             H:  s
Extra options:
                             Mulliken analysis
                             Force calculation
Force type                   original
                             Eigenvector printing

--------------------------------------------------------------------------------

***  Geometry step: 0

 iSCC Total electronic   Diff electronic      SCC error    
    1   -0.52715119E+01    0.00000000E+00    0.10389639E+01
    2   -0.52893904E+01   -0.17878517E-01    0.66853732E+00
    3   -0.52980518E+01   -0.86613760E-02    0.22849101E+00
    4   -0.51100437E+01    0.18800802E+00    0.14369287E+01
    5   -0.53002385E+01   -0.19019476E+00    0.73105954E-01
    6   -0.53007004E+01   -0.46189765E-03    0.36678169E-02
    7   -0.53006989E+01    0.15183007E-05    0.67037236E-02
    8   -0.53006998E+01   -0.91585265E-06    0.33063777E-02
    9   -0.53007001E+01   -0.25802838E-06    0.27182793E-02
   10   -0.53007006E+01   -0.51713925E-06    0.74061806E-03
   11   -0.53007006E+01   -0.33542497E-07    0.33264495E-03
   12   -0.53007006E+01   -0.83054950E-08    0.11584776E-04
   13   -0.53007006E+01   -0.10504486E-10    0.67918766E-07
>> Charges saved for restart in charges.bin

Total Energy:                       -5.0566886107 H         -137.5995 eV
Extrapolated to 0:                  -5.1551557146 H         -140.2789 eV
Total Mermin free energy:           -5.0566886107 H         -137.5995 eV
Force related energy:               -5.1551557146 H         -140.2789 eV

--------------------------------------------------------------------------------
DFTB+ running times                          cpu [s]             wall clock [s]
--------------------------------------------------------------------------------
SCC                                    +     0.02  ( 62.6%)      0.04  ( 66.2%)
Post-SCC processing                    +     0.01  ( 32.4%)      0.02  ( 27.7%)
--------------------------------------------------------------------------------
Missing                                +     0.00  (  5.0%)      0.00  (  6.2%)
Total                                  =     0.04  (100.0%)      0.06  (100.0%)
--------------------------------------------------------------------------------
