 Fermi distribution function

Calculation with static geometry


********************************************************************************
 iSCC Total electronic   Diff electronic      SCC error    
   10   -0.53914799E+01   -0.97255537E-12    0.39599387E-06
********************************************************************************

 Total charge:     1.00000000

 Atomic gross charges (e)
 Atom           Charge
    1       0.18284816
    2      -0.08542357
    3       0.13431644
    4       0.27871377
    5       0.28401783
    6       0.20552736

Nr. of electrons (up):     12.00000000
Atom populations (up)
 Atom       Population
    1       3.81715184
    2       5.08542357
    3       0.86568356
    4       0.72128623
    5       0.71598217
    6       0.79447264

l-shell populations (up)
 Atom Sh.   l       Population
    1   1   0       1.31858804
    1   2   1       2.49856381
    2   1   0       1.42447371
    2   2   1       3.66094985
    3   1   0       0.86568356
    4   1   0       0.72128623
    5   1   0       0.71598217
    6   1   0       0.79447264

Orbital populations (up)
 Atom Sh.   l   m       Population  Label
    1   1   0   0       1.31858804  s
    1   2   1  -1       0.59274439  p_y
    1   2   1   0       0.88175876  p_z
    1   2   1   1       1.02406065  p_x
    2   1   0   0       1.42447371  s
    2   2   1  -1       1.32661722  p_y
    2   2   1   0       1.09489846  p_z
    2   2   1   1       1.23943417  p_x
    3   1   0   0       0.86568356  s
    4   1   0   0       0.72128623  s
    5   1   0   0       0.71598217  s
    6   1   0   0       0.79447264  s

Fermi level:                        -0.4928830873 H          -13.4120 eV
Band energy:                        -8.8979192036 H         -242.1247 eV
TS:                                  0.0000000000 H            0.0000 eV
Band free energy (E-TS):            -8.8979192036 H         -242.1247 eV
Extrapolated E(0K):                 -8.8979192036 H         -242.1247 eV
Input / Output electrons (q):     12.0000000000     12.0000000000

Energy H0:                          -5.5244762324 H         -150.3286 eV
Energy SCC:                          0.1329963439 H            3.6190 eV
Total Electronic energy:            -5.3914798884 H         -146.7096 eV
Repulsive energy:                    0.1900400370 H            5.1713 eV
Total energy:                       -5.2014398514 H         -141.5384 eV
Extrapolated to 0:                  -5.2014398514 H         -141.5384 eV
Total Mermin free energy:           -5.2014398514 H         -141.5384 eV
Force related energy:               -5.2014398514 H         -141.5384 eV

SCC converged

Excitation Energy:                   0.1091216430 H            2.9694 eV

Total Forces
    1     -0.001666037192      0.017426283908      0.031684762430
    2      0.007366683796     -0.005211247453     -0.038455156593
    3     -0.003973531667     -0.009768554447      0.001347829221
    4     -0.013126896075      0.004956778516     -0.002722998530
    5      0.004161721754     -0.008394133981      0.009428784294
    6      0.007238059384      0.000990873458     -0.001283220823

Maximal derivative component:        0.384552E-01 au


