|===============================================================================
|
|  DFTB+ release 20.1
|
|  Copyright (C) 2006 - 2020  DFTB+ developers group
|
|===============================================================================
|
|  When publishing results obtained with DFTB+, please cite the following
|  reference:
|
|  * DFTB+, a software package for efficient approximate density functional
|    theory based atomistic simulations, J. Chem. Phys. 152, 124101 (2020).
|    [doi: 10.1063/1.5143190]
|
|  You should also cite additional publications crediting the parametrization
|  data you use. Please consult the documentation of the SK-files for the
|  references.
|
|===============================================================================

Reading input file 'dftb_in.hsd'
Parser version: 8

--------------------------------------------------------------------------------
Reading SK-files:
Done.


Processed input in HSD format written to 'dftb_pin.hsd'

Starting initialization...
--------------------------------------------------------------------------------
WARNING!
-> Excited state forces are not implemented yet for fractional occupations, kT=  0.3158E-02K
OpenMP threads:              1
Chosen random seed:          433654110
Mode:                        Static calculation
Self consistent charges:     Yes
SCC-tolerance:                 0.100000E-05
Max. scc iterations:                    100
Shell resolved Hubbard:      No
Spin polarisation:           No
Nr. of up electrons:             6.000000
Nr. of down electrons:           6.000000
Periodic boundaries:         No
Electronic solver:           Relatively robust
Mixer:                       Broyden mixer
Mixing parameter:                  0.200000
Maximal SCC-cycles:                     100
Nr. of chrg. vec. in memory:              0
Electronic temperature:        0.100000E-07 H      0.272114E-06 eV
Initial charges:             Set automatically (system chrg:   0.100E+01)
Included shells:             C:  s, p
                             N:  s, p
                             H:  s
Extra options:
                             Mulliken analysis
                             Force calculation
Force type                   original
                             Eigenvector printing

--------------------------------------------------------------------------------

***  Geometry step: 0

 iSCC Total electronic   Diff electronic      SCC error    
    1   -0.53835113E+01    0.00000000E+00    0.71418059E+00
    2   -0.53881452E+01   -0.46339459E-02    0.48089809E+00
    3   -0.53910900E+01   -0.29447297E-02    0.91533690E-01
    4   -0.53914179E+01   -0.32793812E-03    0.42272036E-01
    5   -0.53914792E+01   -0.61333679E-04    0.85400896E-02
    6   -0.53914798E+01   -0.60642252E-06    0.15997772E-02
    7   -0.53914799E+01   -0.53568160E-07    0.66379641E-04
    8   -0.53914799E+01   -0.21121860E-09    0.44016814E-04
    9   -0.53914799E+01   -0.79993789E-10    0.32569880E-05
   10   -0.53914799E+01   -0.97255537E-12    0.39599387E-06
>> Charges saved for restart in charges.bin

Total Energy:                       -5.0923182084 H         -138.5690 eV
Extrapolated to 0:                  -5.2014398514 H         -141.5384 eV
Total Mermin free energy:           -5.0923182084 H         -138.5690 eV
Force related energy:               -5.2014398514 H         -141.5384 eV

--------------------------------------------------------------------------------
DFTB+ running times                          cpu [s]             wall clock [s]
--------------------------------------------------------------------------------
SCC                                    +     0.01  ( 54.6%)      0.03  ( 67.3%)
Post-SCC processing                    +     0.01  ( 36.3%)      0.01  ( 26.5%)
--------------------------------------------------------------------------------
Missing                                +     0.00  (  9.1%)      0.00  (  6.1%)
Total                                  =     0.01  (100.0%)      0.05  (100.0%)
--------------------------------------------------------------------------------
