     6
  Step:     0            Position(A)                                  Velocity(au)
C        -0.03055535     0.00864616     0.02654172    -0.00001329     0.00004303     0.00028929
N        -0.04760652    -0.05276259     1.28642019    -0.00017795     0.00007823    -0.00018514
H         0.91276569     0.00355901    -0.51483746     0.00016823    -0.00036421     0.00004541
H         0.82426817    -0.09805873     1.85650124     0.00079935    -0.00047469     0.00030027
H        -0.90339014    -0.06317132     1.88452270     0.00170335    -0.00039799    -0.00092447
H        -1.02092515     0.11807251    -0.52696500    -0.00003976    -0.00036297    -0.00029564
     6
  Step:     1            Position(A)                                  Velocity(au)
C        -0.03065289     0.00889114     0.02792614    -0.00002204     0.00004662     0.00021549
N        -0.04858436    -0.05234408     1.28561040    -0.00017763     0.00007477    -0.00011039
H         0.91385255     0.00156943    -0.51487500     0.00022612    -0.00036347    -0.00005751
H         0.82857614    -0.10063880     1.85812349     0.00076634    -0.00046828     0.00028568
H        -0.89397472    -0.06536409     1.87938766     0.00171985    -0.00040427    -0.00093934
H        -1.02098492     0.11609992    -0.52865838     0.00001873    -0.00035849    -0.00032264
     6
  Step:     2            Position(A)                                  Velocity(au)
C        -0.03079644     0.00915610     0.02889891    -0.00003005     0.00005031     0.00013922
N        -0.04954961    -0.05194471     1.28521269    -0.00017329     0.00007126    -0.00003502
H         0.91523915    -0.00041690    -0.51546659     0.00027735    -0.00036302    -0.00015675
H         0.83265095    -0.10318118     1.85962625     0.00071520    -0.00046090     0.00025743
H        -0.88457710    -0.06759349     1.87424745     0.00169513    -0.00041155    -0.00092500
H        -1.02072026     0.11415104    -0.53049423     0.00007845    -0.00035424    -0.00034796
     6
  Step:     3            Position(A)                                  Velocity(au)
C        -0.03098164     0.00944146     0.02944903    -0.00003724     0.00005406     0.00006143
N        -0.05047993    -0.05156459     1.28522731    -0.00016487     0.00006777     0.00003983
H         0.91688644    -0.00240154    -0.51658969     0.00032113    -0.00036289    -0.00025154
H         0.83639962    -0.10568053     1.86093946     0.00064841    -0.00045264     0.00021735
H        -0.87543192    -0.06986594     1.86926928     0.00162659    -0.00042025    -0.00087923
H        -1.02012673     0.11222490    -0.53246471     0.00013859    -0.00035019    -0.00037216
     6
  Step:     4            Position(A)                                  Velocity(au)
C        -0.03120374     0.00974738     0.02957087    -0.00004353     0.00005782    -0.00001691
N        -0.05135294    -0.05120339     1.28564837    -0.00015241     0.00006440     0.00011312
H         0.91875170    -0.00438626    -0.51821790     0.00035692    -0.00036314    -0.00034127
H         0.83974324    -0.10813219     1.86200366     0.00056851    -0.00044362     0.00016741
H        -0.86678542    -0.07219017     1.86463035     0.00151273    -0.00043079    -0.00080074
H        -1.01920431     0.11032070    -0.53456488     0.00019838    -0.00034628    -0.00039574
     6
  Step:     5            Position(A)                                  Velocity(au)
C        -0.03145768     0.01007377     0.02926404    -0.00004889     0.00006154    -0.00009490
N        -0.05214673    -0.05086032     1.28646440    -0.00013604     0.00006120     0.00018389
H         0.92078986    -0.00637302    -0.52032202     0.00038439    -0.00036377    -0.00042553
H         0.84261713    -0.11053221     1.86277039     0.00047808    -0.00043398     0.00010962
H        -0.85888798    -0.07457721     1.86051199     0.00135353    -0.00044355    -0.00068933
H        -1.01795718     0.10843786    -0.53679276     0.00025706    -0.00034246    -0.00041926
     6
  Step:     6            Position(A)                                  Velocity(au)
C        -0.03173835     0.01042031     0.02853319    -0.00005332     0.00006519    -0.00017163
N        -0.05284048    -0.05053424     1.28765904    -0.00011603     0.00005824     0.00025133
H         0.92295472    -0.00836384    -0.52287084     0.00040341    -0.00036477    -0.00050401
H         0.84497076    -0.11287747     1.86320232     0.00037967    -0.00042384     0.00004600
H        -0.85198546    -0.07704015     1.85709298     0.00115071    -0.00045888    -0.00054618
H        -1.01639349     0.10657606    -0.53914919     0.00031394    -0.00033868    -0.00044319
     6
  Step:     7            Position(A)                                  Velocity(au)
C        -0.03204060     0.01078640     0.02738773    -0.00005682     0.00006870    -0.00024626
N        -0.05341517    -0.05022359     1.28921195    -0.00009277     0.00005560     0.00031479
H         0.92519998    -0.01036069    -0.52583188     0.00041405    -0.00036611    -0.00057650
H         0.84676763    -0.11516564     1.86327329     0.00027579    -0.00041334    -0.00002142
H        -0.84630842    -0.07959365     1.85454115     0.00090807    -0.00047697    -0.00037408
H        -1.01452522     0.10473539    -0.54163775     0.00036830    -0.00033484    -0.00046802
     6
  Step:     8            Position(A)                                  Velocity(au)
C        -0.03235942     0.01117121     0.02584160    -0.00005942     0.00007204    -0.00031796
N        -0.05385441    -0.04992658     1.29109965    -0.00006681     0.00005329     0.00037376
H         0.92748014    -0.01236533    -0.52917187     0.00041646    -0.00036773    -0.00064285
H         0.84798504    -0.11739515     1.86296825     0.00016897    -0.00040259    -0.00009059
H        -0.84206045    -0.08225328     1.85300438     0.00063157    -0.00049787    -0.00017748
H        -1.01236811     0.10291637    -0.54426449     0.00041942    -0.00033082    -0.00049412
     6
  Step:     9            Position(A)                                  Velocity(au)
C        -0.03268996     0.01157363     0.02391299    -0.00006114     0.00007514    -0.00038594
N        -0.05414527    -0.04964118     1.29329643    -0.00003886     0.00005137     0.00042784
H         0.92975112    -0.01437922    -0.53285696     0.00041095    -0.00036952    -0.00070289
H         0.84861410    -0.11956517     1.86228332     0.00006176    -0.00039171    -0.00015944
H        -0.83940655    -0.08503443     1.85260165     0.00032931    -0.00052142     0.00003753
H        -1.00994172     0.10112016    -0.54703757     0.00046658    -0.00032649    -0.00052183
     6
  Step:    10            Position(A)                                  Velocity(au)
C        -0.03302757     0.01199227     0.02162423    -0.00006202     0.00007794    -0.00044938
N        -0.05427910    -0.04936528     1.29577495    -0.00000979     0.00004981     0.00047675
H         0.93197078    -0.01640325    -0.53685277     0.00039786    -0.00037134    -0.00075645
H         0.84865992    -0.12167553     1.86122591    -0.00004318    -0.00038078    -0.00022585
H        -0.83846185    -0.08795109     1.85341453     0.00001138    -0.00054718     0.00026340
H        -1.00726958     0.09934867    -0.54996678     0.00050895    -0.00032167    -0.00055133
     6
  Step:    11            Position(A)                                  Velocity(au)
C        -0.03336775     0.01242543     0.01900175    -0.00006208     0.00008038    -0.00050749
N        -0.05425227    -0.04909679     1.29850675     0.00001943     0.00004862     0.00052023
H         0.93409924    -0.01843754    -0.54112401     0.00037762    -0.00037302    -0.00080324
H         0.84814214    -0.12372664     1.85981500    -0.00014309    -0.00036990    -0.00028762
H        -0.83928219    -0.09101441     1.85548025    -0.00031062    -0.00057444     0.00049143
H        -1.00437945     0.09760473    -0.55306292     0.00054571    -0.00031616    -0.00058269
     6
  Step:    12            Position(A)                                  Velocity(au)
C        -0.03370620     0.01287105     0.01607616    -0.00006134     0.00008239    -0.00055942
N        -0.05406668    -0.04883372     1.30146237     0.00004774     0.00004776     0.00055805
H         0.93609914    -0.02048125    -0.54563411     0.00035075    -0.00037433    -0.00084292
H         0.84709563    -0.12571947     1.85808150    -0.00023502    -0.00035916    -0.00034249
H        -0.84185770    -0.09423113     1.85878710    -0.00062418    -0.00060223     0.00071236
H        -1.00130360     0.09589224    -0.55633704     0.00057597    -0.00030976    -0.00061582
     6
  Step:    13            Position(A)                                  Velocity(au)
C        -0.03403878     0.01332670     0.01288226    -0.00005985     0.00008389    -0.00060435
N        -0.05373005    -0.04857431     1.30461132     0.00007405     0.00004718     0.00058996
H         0.93793607    -0.02253234    -0.55034474     0.00031782    -0.00037502    -0.00087508
H         0.84557120    -0.12765553     1.85606849    -0.00031596    -0.00034865    -0.00038819
H        -0.84611010    -0.09760228     1.86327285    -0.00091667    -0.00062936     0.00091692
H        -0.99807891     0.09421624    -0.55979948     0.00059884    -0.00030225    -0.00065045
     6
  Step:    14            Position(A)                                  Velocity(au)
C        -0.03436148     0.01378956     0.00945906    -0.00005762     0.00008481    -0.00064151
N        -0.05325587    -0.04831711     1.30792188     0.00009734     0.00004682     0.00061568
H         0.93957902    -0.02458744    -0.55521544     0.00027957    -0.00037485    -0.00089929
H         0.84363609    -0.12953691     1.85383120    -0.00038287    -0.00033849    -0.00042251
H        -0.85189446    -0.10112207     1.86882663    -0.00117630    -0.00065449     0.00109656
H        -0.99474682     0.09258291    -0.56345893     0.00061353    -0.00029342    -0.00068613
     6
  Step:    15            Position(A)                                  Velocity(au)
C        -0.03467049     0.01425646     0.00584946    -0.00005471     0.00008509    -0.00067023
N        -0.05266296    -0.04806100     1.31136088     0.00011668     0.00004662     0.00063494
H         0.94100092    -0.02664181    -0.56020352     0.00023681    -0.00037358    -0.00091518
H         0.84137389    -0.13136638     1.85143655    -0.00043284    -0.00032883    -0.00044347
H        -0.85900570    -0.10477734     1.87529426    -0.00139295    -0.00067627     0.00124407
H        -0.99135286     0.09099948    -0.56732140     0.00061939    -0.00028314    -0.00072225
     6
  Step:    16            Position(A)                                  Velocity(au)
C        -0.03496221     0.01472389     0.00209982    -0.00005117     0.00008469    -0.00068999
N        -0.05197468    -0.04780521     1.31489360     0.00013136     0.00004652     0.00064750
H         0.94217924    -0.02868943    -0.56526425     0.00019051    -0.00037101    -0.00092248
H         0.83888343    -0.13314750     1.84896177    -0.00046338    -0.00031982    -0.00044946
H        -0.86718929    -0.10854763     1.88248675    -0.00155894    -0.00069345     0.00135415
H        -0.98794580     0.08947399    -0.57138936     0.00061601    -0.00027130    -0.00075809
     6
  Step:    17            Position(A)                                  Velocity(au)
C        -0.03523336     0.01518813    -0.00174107    -0.00004706     0.00008359    -0.00070056
N        -0.05121788    -0.04754928     1.31848393     0.00014090     0.00004646     0.00065324
H         0.94309666    -0.03072322    -0.57035158     0.00014171    -0.00036701    -0.00092116
H         0.83627627    -0.13488471     1.84649216    -0.00047267    -0.00031167    -0.00043941
H        -0.87615533    -0.11240593     1.89019102    -0.00166960    -0.00070505     0.00142375
H        -0.98457622     0.08801494    -0.57566100     0.00060332    -0.00025790    -0.00079285
     6
  Step:    18            Position(A)                                  Velocity(au)
C        -0.03548103     0.01564536    -0.00562333    -0.00004249     0.00008179    -0.00070200
N        -0.05042140    -0.04729305     1.32209500     0.00014510     0.00004641     0.00065219
H         0.94374150    -0.03273540    -0.57541924     0.00009154    -0.00036155    -0.00091144
H         0.83367262    -0.13658336     1.84411768    -0.00045979    -0.00030454    -0.00041299
H        -0.88559525    -0.11632018     1.89818242    -0.00172352    -0.00071039     0.00145225
H        -0.98129466     0.08663084    -0.58012991     0.00058164    -0.00024302    -0.00082577
     6
  Step:    19            Position(A)                                  Velocity(au)
C        -0.03570283     0.01609185    -0.00949766    -0.00003756     0.00007934    -0.00069472
N        -0.04961463    -0.04703652     1.32569010     0.00014407     0.00004634     0.00064461
H         0.94410810    -0.03471802    -0.58042228     0.00004111    -0.00035469    -0.00089389
H         0.83119596    -0.13824969     1.84192888    -0.00042492    -0.00029864    -0.00037070
H        -0.89519884    -0.12025522     1.90623730    -0.00172241    -0.00070927     0.00144132
H        -0.97814951     0.08532971    -0.58478515     0.00055170    -0.00022684    -0.00085617
     6
  Step:    20            Position(A)                                  Velocity(au)
C        -0.03589696     0.01652408    -0.01331721    -0.00003238     0.00007632    -0.00067949
N        -0.04882590    -0.04677984     1.32923393     0.00013816     0.00004626     0.00063103
H         0.94419674    -0.03666352    -0.58531883    -0.00000855    -0.00034663    -0.00086939
H         0.82896677    -0.13989069     1.84001228    -0.00036940    -0.00029409    -0.00031382
H        -0.90467051    -0.12417515     1.91414471    -0.00167078    -0.00070190     0.00139460
H        -0.97518476     0.08411861    -0.58961178     0.00051460    -0.00020962    -0.00088356
     6
  Step:    21            Position(A)                                  Velocity(au)
C        -0.03606228     0.01693897    -0.01703945    -0.00002710     0.00007283    -0.00065737
N        -0.04808113    -0.04652313     1.33269401     0.00012798     0.00004616     0.00061220
H         0.94401325    -0.03856537    -0.59007188    -0.00005651    -0.00033766    -0.00083914
H         0.82709596    -0.14151391     1.83844578    -0.00029567    -0.00029103    -0.00024436
H        -0.91374317    -0.12804578     1.92171624    -0.00157517    -0.00068894     0.00131716
H        -0.97243785     0.08300313    -0.59459192     0.00047179    -0.00019166    -0.00090767
     6
  Step:    22            Position(A)                                  Velocity(au)
C        -0.03619834     0.01733400    -0.02062787    -0.00002183     0.00006898    -0.00062967
N        -0.04740266    -0.04626649     1.33604218     0.00011426     0.00004608     0.00058909
H         0.94356826    -0.04041863    -0.59465094    -0.00010210    -0.00032815    -0.00080453
H         0.82567860    -0.14312719     1.83729470    -0.00020712    -0.00028948    -0.00016493
H        -0.92218799    -0.13183680     1.92879287    -0.00144340    -0.00067135     0.00121495
H        -0.96993801     0.08198715    -0.59970603     0.00042489    -0.00017332    -0.00092855
     6
  Step:    23            Position(A)                                  Velocity(au)
C        -0.03630539     0.01770730    -0.02405303    -0.00001617     0.00006670    -0.00064353
N        -0.04680849    -0.04600988     1.33925561     0.00009802     0.00004475     0.00059822
H         0.94287602    -0.04222045    -0.59903317    -0.00017766    -0.00037282    -0.00073024
H         0.82478901    -0.14473833     1.83660877    -0.00012230    -0.00023001    -0.00008399
H        -0.92982041    -0.13552360     1.93524890    -0.00127118    -0.00070903     0.00107361
H        -0.96770518     0.08107263    -0.60493451     0.00040166    -0.00010474    -0.00090408
     6
  Step:    24            Position(A)                                  Velocity(au)
C        -0.03637868     0.01807777    -0.02780400    -0.00000985     0.00006639    -0.00070370
N        -0.04630960    -0.04576750     1.34271301     0.00007990     0.00004191     0.00064403
H         0.94158714    -0.04457606    -0.60279405    -0.00028277    -0.00045215    -0.00061562
H         0.82431486    -0.14569213     1.83635814    -0.00004846    -0.00013410    -0.00001145
H        -0.93636321    -0.13974333     1.94076495    -0.00106353    -0.00078073     0.00089636
H        -0.96545903     0.08081911    -0.60978765     0.00040172    -0.00000655    -0.00083362
     6
  Step:    25            Position(A)                                  Velocity(au)
C        -0.03641533     0.01844825    -0.03190662    -0.00000328     0.00006628    -0.00076347
N        -0.04591674    -0.04554214     1.34644322     0.00006027     0.00003890     0.00069049
H         0.93972024    -0.04726658    -0.60590368    -0.00038194    -0.00050450    -0.00050016
H         0.82424813    -0.14623492     1.83648103     0.00002630    -0.00006929     0.00005485
H        -0.94168973    -0.14423678     1.94525259    -0.00083973    -0.00082015     0.00070942
H        -0.96322182     0.08099952    -0.61423795     0.00039694     0.00006362    -0.00076186
     6
  Step:    26            Position(A)                                  Velocity(au)
C        -0.03641531     0.01881789    -0.03632937     0.00000319     0.00006600    -0.00081702
N        -0.04563664    -0.04533316     1.35042344     0.00003978     0.00003607     0.00073235
H         0.93732214    -0.05020955    -0.60837911    -0.00047171    -0.00054497    -0.00038947
H         0.82460856    -0.14646591     1.83697058     0.00010393    -0.00001931     0.00012019
H        -0.94574007    -0.14890162     1.94868673    -0.00060923    -0.00084484     0.00052111
H        -0.96102661     0.08152956    -0.61829500     0.00038613     0.00012145    -0.00069315
     6
  Step:    27            Position(A)                                  Velocity(au)
C        -0.03637965     0.01918540    -0.04103249     0.00000942     0.00006549    -0.00086353
N        -0.04547242    -0.04513923     1.35462333     0.00001904     0.00003352     0.00076884
H         0.93445132    -0.05335372    -0.61025390    -0.00055034    -0.00057786    -0.00028591
H         0.82540897    -0.14645065     1.83782349     0.00018285     0.00002059     0.00018472
H        -0.94849464    -0.15367340     1.95107324    -0.00037836    -0.00086014     0.00033612
H        -0.95890887     0.08235606    -0.62198023     0.00036899     0.00017120    -0.00062914
     6
  Step:    28            Position(A)                                  Velocity(au)
C        -0.03631008     0.01954945    -0.04597493     0.00001528     0.00006478    -0.00090301
N        -0.04542399    -0.04495877     1.35901132    -0.00000142     0.00003127     0.00079996
H         0.93117484    -0.05666419    -0.61157273    -0.00061648    -0.00060569    -0.00019114
H         0.82665101    -0.14623587     1.83903385     0.00026103     0.00005324     0.00024784
H        -0.94996631    -0.15850932     1.95244114    -0.00015225    -0.00086933     0.00015797
H        -0.95690502     0.08344187    -0.62532251     0.00034539     0.00021530    -0.00057088
     6
  Step:    29            Position(A)                                  Velocity(au)
C        -0.03620902     0.01990887    -0.05111692     0.00002066     0.00006389    -0.00093574
N        -0.04548833    -0.04479003     1.36355693    -0.00002113     0.00002934     0.00082593
H         0.92756667    -0.06011778    -0.61238853    -0.00066901    -0.00063023    -0.00010637
H         0.82832401    -0.14585603     1.84059130     0.00033626     0.00008058     0.00030873
H        -0.95019485    -0.16338178     1.95283740     0.00006482    -0.00087476    -0.00001053
H        -0.95505164     0.08476045    -0.62835562     0.00031535     0.00025537    -0.00051899
     6
  Step:    30            Position(A)                                  Velocity(au)
C        -0.03607947     0.02026264    -0.05642087     0.00002545     0.00006283    -0.00096205
N        -0.04565985    -0.04463120     1.36823147    -0.00003963     0.00002775     0.00084703
H         0.92370646    -0.06369961    -0.61276021    -0.00070690    -0.00065276    -0.00003251
H         0.83040481    -0.14533629     1.84248030     0.00040638     0.00010411     0.00036646
H        -0.94924275    -0.16827451     1.95232359     0.00026904    -0.00087816    -0.00016705
H        -0.95338470     0.08629261    -0.63111611     0.00027895     0.00029253    -0.00047374
     6
  Step:    31            Position(A)                                  Velocity(au)
C        -0.03592505     0.02060994    -0.06185141     0.00002955     0.00006164    -0.00098220
N        -0.04593057    -0.04448044     1.37300806    -0.00005653     0.00002648     0.00086344
H         0.91967910    -0.06740128    -0.61275123    -0.00072919    -0.00067418     0.00002977
H         0.83285844    -0.14469439     1.84468028     0.00046928     0.00012496     0.00042010
H        -0.94719286    -0.17318031     1.95097350     0.00045692    -0.00088089    -0.00030948
H        -0.95193913     0.08802454    -0.63364159     0.00023641     0.00032760    -0.00043516
     6
  Step:    32            Position(A)                                  Velocity(au)
C        -0.03574993     0.02095010    -0.06737496     0.00003284     0.00006033    -0.00099637
N        -0.04629030    -0.04433587     1.37786110    -0.00007142     0.00002555     0.00087526
H         0.91557410    -0.07121844    -0.61242817    -0.00073498    -0.00069506     0.00007993
H         0.83563851    -0.14394271     1.84716553     0.00052297     0.00014397     0.00046873
H        -0.94414694    -0.17809877     1.94887212     0.00062496    -0.00088399    -0.00043579
H        -0.95074812     0.08994624    -0.63596928     0.00018807     0.00036111    -0.00040305
     6
  Step:    33            Position(A)                                  Velocity(au)
C        -0.03555891     0.02128255    -0.07295911     0.00003522     0.00005892    -0.00100466
N        -0.04672672    -0.04419561     1.38276564    -0.00008391     0.00002496     0.00088250
H         0.91148542    -0.07514993    -0.61186012    -0.00072351    -0.00071583     0.00011758
H         0.83868859    -0.14308935     1.84990577     0.00056572     0.00016181     0.00051153
H        -0.94022568    -0.18303522     1.94611519     0.00076966    -0.00088837    -0.00054401
H        -0.94984245     0.09205024    -0.63813489     0.00013446     0.00039339    -0.00037705
     6
  Step:    34            Position(A)                                  Velocity(au)
C        -0.03535739     0.02160683    -0.07857219     0.00003658     0.00005743    -0.00100714
N        -0.04722552    -0.04405767     1.38769682    -0.00009366     0.00002474     0.00088510
H         0.90751038    -0.07919664    -0.61111771    -0.00069432    -0.00073676     0.00014252
H         0.84194369    -0.14213931     1.85286674     0.00059613     0.00017892     0.00054783
H        -0.93556881    -0.18799995     1.94280891     0.00088753    -0.00089484    -0.00063222
H        -0.94924947     0.09433066    -0.64017167     0.00007631     0.00042462    -0.00035667
     6
  Step:    35            Position(A)                                  Velocity(au)
C        -0.03515126     0.02192256    -0.08418312     0.00003684     0.00005586    -0.00100393
N        -0.04777054    -0.04391994     1.39262959    -0.00010036     0.00002490     0.00088304
H         0.90374761    -0.08336075    -0.61027186    -0.00064742    -0.00075800     0.00015480
H         0.84533218    -0.14109542     1.85601101     0.00061322     0.00019561     0.00057713
H        -0.93033462    -0.19300774     1.93906941     0.00097529    -0.00090419    -0.00069868
H        -0.94899198     0.09678239    -0.64210978     0.00001458     0.00045487    -0.00034131
     6
  Step:    36            Position(A)                                  Velocity(au)
C        -0.03494677     0.02222944    -0.08976159     0.00003596     0.00005424    -0.00099526
N        -0.04834413    -0.04378012     1.39753874    -0.00010377     0.00002550     0.00087634
H         0.90029456    -0.08764494    -0.60939241    -0.00058335    -0.00077964     0.00015478
H         0.84877832    -0.13995913     1.85929914     0.00061646     0.00021207     0.00059918
H        -0.92469872    -0.19807768     1.93502172     0.00103009    -0.00091723    -0.00074200
H        -0.94908702     0.09940047    -0.64397571    -0.00004960     0.00048414    -0.00033028
     6
  Step:    37            Position(A)                                  Velocity(au)
C        -0.03475041     0.02252728    -0.09527859     0.00003391     0.00005260    -0.00098145
N        -0.04892746    -0.04363571     1.40239927    -0.00010375     0.00002655     0.00086512
H         0.89724426    -0.09205247    -0.60854637    -0.00050329    -0.00080178     0.00014315
H         0.85220470    -0.13873116     1.86269084     0.00060589     0.00022840     0.00061399
H        -0.91885080    -0.20323330     1.93079739     0.00104993    -0.00093474    -0.00076132
H        -0.94954488     0.10217980    -0.64579190    -0.00011489     0.00051240    -0.00032288
     6
  Step:    38            Position(A)                                  Velocity(au)
C        -0.03456857     0.02281603    -0.10070703     0.00003075     0.00005095    -0.00096298
N        -0.04950120    -0.04348401     1.40718687    -0.00010026     0.00002811     0.00084965
H         0.89468170    -0.09658669    -0.60779598    -0.00040910    -0.00082446     0.00012098
H         0.85553536    -0.13741197     1.86614653     0.00058203     0.00024458     0.00062183
H        -0.91298957    -0.20850225     1.92653118     0.00103383    -0.00095748    -0.00075652
H        -0.95036831     0.10511497    -0.64757659    -0.00017992     0.00053960    -0.00031835
     6
  Step:    39            Position(A)                                  Velocity(au)
C        -0.03440733     0.02309575    -0.10602252     0.00002656     0.00004933    -0.00094045
N        -0.05004608    -0.04332210     1.41187872    -0.00009340     0.00003020     0.00083027
H         0.89267997    -0.10125089    -0.60719664    -0.00030324    -0.00084767     0.00008965
H         0.85869842    -0.13600244     1.86962861     0.00054595     0.00026059     0.00062325
H        -0.90731644    -0.21391590     1.92235691     0.00098209    -0.00098610    -0.00072826
H        -0.95155221     0.10820006    -0.64934368    -0.00024327     0.00056570    -0.00031593
     6
  Step:    40            Position(A)                                  Velocity(au)
C        -0.03427217     0.02336659    -0.11120399     0.00002146     0.00004773    -0.00091454
N        -0.05054374    -0.04314691     1.41645405    -0.00008341     0.00003285     0.00080747
H         0.89129702    -0.10604806    -0.60679533    -0.00018870    -0.00087140     0.00005082
H         0.86162909    -0.13450331     1.87310304     0.00049912     0.00027645     0.00061900
H        -0.90202789    -0.21950872     1.91840260     0.00089647    -0.00102107    -0.00067812
H        -0.95308362     0.11142915    -0.65110285    -0.00030360     0.00059076    -0.00031490
     6
  Step:    41            Position(A)                                  Velocity(au)
C        -0.03416767     0.02362872    -0.11623407     0.00001565     0.00004618    -0.00088597
N        -0.05097741    -0.04295531     1.42089475    -0.00007063     0.00003605     0.00078179
H         0.89057304    -0.11098070    -0.60662918    -0.00006878    -0.00089556     0.00000634
H         0.86427152    -0.13291571     1.87654025     0.00044329     0.00029207     0.00060997
H        -0.89730662    -0.22531698     1.91478519     0.00078024    -0.00106261    -0.00060853
H        -0.95494218     0.11479632    -0.65285973    -0.00035969     0.00061479    -0.00031457
     6
  Step:    42            Position(A)                                  Velocity(au)
C        -0.03409739     0.02388240    -0.12109938     0.00000931     0.00004468    -0.00085544
N        -0.05133265    -0.04274423     1.42518587    -0.00005555     0.00003980     0.00075381
H         0.89052883    -0.11605058    -0.60672457     0.00005301    -0.00092002    -0.00004187
H         0.86658020    -0.13124122     1.87991584     0.00038039     0.00030739     0.00059714
H        -0.89331331    -0.23137708     1.91160590     0.00063805    -0.00111060    -0.00052270
H        -0.95710096     0.11829573    -0.65461627    -0.00041045     0.00063785    -0.00031432
     6
  Step:    43            Position(A)                                  Velocity(au)
C        -0.03406367     0.02412781    -0.12579034     0.00000267     0.00004321    -0.00082361
N        -0.05159797    -0.04251075     1.42931570    -0.00003872     0.00004403     0.00072412
H         0.89116517    -0.12125843    -0.60709692     0.00017313    -0.00094458    -0.00009186
H         0.86852091    -0.12948183     1.88321101     0.00031245     0.00032234     0.00058151
H        -0.89017889    -0.23772365     1.90894601     0.00047576    -0.00116452    -0.00042447
H        -0.95952737     0.12192181    -0.65637111    -0.00045500     0.00065999    -0.00031362
     6
  Step:    44            Position(A)                                  Velocity(au)
C        -0.03406760     0.02436514    -0.13030093    -0.00000406     0.00004177    -0.00079107
N        -0.05176529    -0.04225229     1.43327588    -0.00002079     0.00004869     0.00069329
H         0.89246304    -0.12660361    -0.60775088     0.00028818    -0.00096896    -0.00014179
H         0.87007096    -0.12764001     1.88641259     0.00024151     0.00033684     0.00056407
H        -0.88799806    -0.24438731     1.90686366     0.00030022    -0.00122347    -0.00031812
H        -0.96218426     0.12566922    -0.65812006    -0.00049262     0.00068126    -0.00031198
     6