     6
  Step:     0            Position(A)                                  Velocity(au)
C        -0.04106883    -0.00240641     0.03670403    -0.00002482    -0.00001380     0.00021267
N        -0.04358794    -0.04448905     1.28372432    -0.00019969    -0.00002096    -0.00021423
H         0.93368981     0.07345102    -0.53471198    -0.00001454     0.00004927    -0.00011772
H         0.82775767    -0.14162416     1.87446666     0.00149783     0.00015172     0.00044327
H        -0.89142375    -0.05487514     1.80188077     0.00074619     0.00015402    -0.00023338
H        -0.98786934     0.10018064    -0.52604610     0.00084116     0.00010073     0.00035061
     6
  Step:     1            Position(A)                                  Velocity(au)
C        -0.04118647    -0.00247997     0.03761659    -0.00001758    -0.00001312     0.00012016
N        -0.04463286    -0.04460822     1.28276984    -0.00018081    -0.00002278    -0.00013365
H         0.93349663     0.07375615    -0.53543451    -0.00005664     0.00006221    -0.00014545
H         0.83571901    -0.14080239     1.87675648     0.00139955     0.00015045     0.00038474
H        -0.88781226    -0.05404699     1.80097928     0.00056557     0.00014882    -0.00008979
H        -0.98332712     0.10075837    -0.52432255     0.00081351     0.00011135     0.00027585
     6
  Step:     2            Position(A)                                  Velocity(au)
C        -0.04126109    -0.00254987     0.03801817    -0.00000916    -0.00001249     0.00002642
N        -0.04556544    -0.04473814     1.28226265    -0.00015907    -0.00002488    -0.00005119
H         0.93307036     0.07413145    -0.53630276    -0.00009938     0.00007501    -0.00017139
H         0.84306439    -0.13997872     1.87867446     0.00127570     0.00015222     0.00030922
H        -0.88523819    -0.05324753     1.80089872     0.00036982     0.00014368     0.00006511
H        -0.97897205     0.10139850    -0.52302916     0.00077337     0.00012363     0.00019354
     6
  Step:     3            Position(A)                                  Velocity(au)
C        -0.04128657    -0.00261653     0.03790543     0.00000033    -0.00001196    -0.00006746
N        -0.04637194    -0.04488019     1.28221020    -0.00013518    -0.00002720     0.00003226
H         0.93241011     0.07457623    -0.53730834    -0.00014190     0.00008774    -0.00019616
H         0.84966607    -0.13913815     1.88013715     0.00113074     0.00015651     0.00022006
H        -0.88376906    -0.05247611     1.80169115     0.00016457     0.00013875     0.00022777
H        -0.97487198     0.10211002    -0.52220656     0.00072116     0.00013758     0.00010392
     6
  Step:     4            Position(A)                                  Velocity(au)
C        -0.04125753    -0.00268056     0.03728096     0.00001072    -0.00001156    -0.00016046
N        -0.04704263    -0.04503542     1.28261514    -0.00010985    -0.00002970     0.00011588
H         0.93151978     0.07509023    -0.53844626    -0.00018332     0.00010048    -0.00022035
H         0.85542051    -0.13826849     1.88107914     0.00096871     0.00016279     0.00012036
H        -0.88343983    -0.05173139     1.80338772    -0.00004420     0.00013409     0.00039428
H        -0.97109161     0.10290192    -0.52189354     0.00065743     0.00015318     0.00000733
     6
  Step:     5            Position(A)                                  Velocity(au)
C        -0.04116947    -0.00274278     0.03615297     0.00002186    -0.00001133    -0.00025155
N        -0.04757165    -0.04520458     1.28347582    -0.00008374    -0.00003231     0.00019891
H         0.93040801     0.07567358    -0.53971489    -0.00022275     0.00011328    -0.00024455
H         0.86024595    -0.13736018     1.88145172     0.00079329     0.00017060     0.00001305
H        -0.88425176    -0.05101162     1.80599730    -0.00025031     0.00012977     0.00056045
H        -0.96769182     0.10378295    -0.52212648     0.00058289     0.00017034    -0.00009571
     6
  Step:     6            Position(A)                                  Velocity(au)
C        -0.04101888    -0.00280418     0.03453507     0.00003355    -0.00001128    -0.00033969
N        -0.04795678    -0.04538812     1.28478647    -0.00005752    -0.00003497     0.00028055
H         0.92908824     0.07632676    -0.54111579    -0.00025927     0.00012618    -0.00026930
H         0.86408011    -0.13640619     1.88122159     0.00060788     0.00017946    -0.00009910
H        -0.88617222    -0.05031478     1.80950562    -0.00044756     0.00012580     0.00072196
H        -0.96472873     0.10476133    -0.52293836     0.00049848     0.00018891    -0.00020445
     6
  Step:     7            Position(A)                                  Velocity(au)
C        -0.04080342    -0.00286587     0.03244635     0.00004553    -0.00001144    -0.00042379
N        -0.04819932    -0.04558612     1.28653710    -0.00003182    -0.00003760     0.00035992
H         0.92757890     0.07705045    -0.54265344    -0.00029190     0.00013920    -0.00029506
H         0.86687904    -0.13540197     1.88037034     0.00041585     0.00018888    -0.00021331
H        -0.88913552    -0.04963890     1.81387522    -0.00062992     0.00012215     0.00087446
H        -0.96225249     0.10584429    -0.52435745     0.00040540     0.00020865    -0.00031781
     6
  Step:     8            Position(A)                                  Velocity(au)
C        -0.04052211    -0.00292905     0.02991155     0.00005755    -0.00001183    -0.00050272
N        -0.04830388    -0.04579831     1.28871316    -0.00000723    -0.00004013     0.00043607
H         0.92590365     0.07784541    -0.54433480    -0.00031963     0.00015231    -0.00032218
H         0.86861700    -0.13434556     1.87889442     0.00022075     0.00019837    -0.00032669
H        -0.89304453    -0.04898217     1.81904589    -0.00079169     0.00011875     0.00101373
H        -0.96030590     0.10703770    -0.52640562     0.00030521     0.00022924    -0.00043433
     6
  Step:     9            Position(A)                                  Velocity(au)
C        -0.04017551    -0.00299495     0.02696134     0.00006928    -0.00001244    -0.00057525
N        -0.04827824    -0.04602398     1.29129497     0.00001563    -0.00004248     0.00050791
H         0.92409149     0.07871228    -0.54616870    -0.00034143     0.00016545    -0.00035092
H         0.86928764    -0.13323765     1.87680591     0.00002648     0.00020739    -0.00043616
H        -0.89777345    -0.04834323     1.82493584    -0.00092778     0.00011552     0.00113583
H        -0.95892244     0.10834544    -0.52909632     0.00019987     0.00025022    -0.00055215
     6
  Step:    10            Position(A)                                  Velocity(au)
C        -0.03976594    -0.00306482     0.02363256     0.00008036    -0.00001326    -0.00064016
N        -0.04813323    -0.04626200     1.29425709     0.00003622    -0.00004456     0.00057422
H         0.92217687     0.07965139    -0.54816519    -0.00035630     0.00017853    -0.00038136
H         0.86890609    -0.13208188     1.87413357    -0.00016257     0.00021537    -0.00053843
H        -0.90317148    -0.04772125     1.83144375    -0.00103390     0.00011234     0.00123725
H        -0.95812429     0.10976896    -0.53243244     0.00009175     0.00027108    -0.00066898
     6
  Step:    11            Position(A)                                  Velocity(au)
C        -0.03929764    -0.00313984     0.01996834     0.00009044    -0.00001429    -0.00069624
N        -0.04788258    -0.04651076     1.29756771     0.00005399    -0.00004628     0.00063375
H         0.92019935     0.08066254    -0.55033467    -0.00036335     0.00019141    -0.00041344
H         0.86751180    -0.13088493     1.87092422    -0.00034146     0.00022174    -0.00062996
H        -0.90906766    -0.04711607     1.83845142    -0.00110680     0.00010909     0.00131514
H        -0.95792016     0.11130665    -0.53640418    -0.00001639     0.00029118    -0.00078221
     6
  Step:    12            Position(A)                                  Velocity(au)
C        -0.03877684    -0.00322107     0.01601796     0.00009913    -0.00001548    -0.00074238
N        -0.04754276    -0.04676816     1.30118827     0.00006846    -0.00004755     0.00068520
H         0.91820299     0.08174478    -0.55268693    -0.00036189     0.00020392    -0.00044692
H         0.86517157    -0.12965673     1.86724386    -0.00050480     0.00022590    -0.00070713
H        -0.91527635    -0.04652819     1.84582722    -0.00114445     0.00010565     0.00136745
H        -0.95830357     0.11295348    -0.54098736    -0.00012154     0.00030985    -0.00088900
     6
  Step:    13            Position(A)                                  Velocity(au)
C        -0.03821173    -0.00330943     0.01183630     0.00010611    -0.00001681    -0.00077767
N        -0.04713270    -0.04703164     1.30507340     0.00007921    -0.00004829     0.00072738
H         0.91623522     0.08289625    -0.55523023    -0.00035149     0.00021587    -0.00048138
H         0.86198216    -0.12841039     1.86317828    -0.00064690     0.00022729    -0.00076639
H        -0.92160400    -0.04595880     1.85343046    -0.00114622     0.00010191     0.00139305
H        -0.95925153     0.11470074    -0.54614231    -0.00022056     0.00032641    -0.00098644
     6
  Step:    14            Position(A)                                  Velocity(au)
C        -0.03761225    -0.00340559     0.00748273     0.00011108    -0.00001823    -0.00080150
N        -0.04667345    -0.04729821     1.30917148     0.00008592    -0.00004845     0.00075928
H         0.91434522     0.08411405    -0.55797024    -0.00033212     0.00022708    -0.00051626
H         0.85807160    -0.12716210     1.85883246    -0.00076216     0.00022543    -0.00080451
H        -0.92785658    -0.04540966     1.86111646    -0.00111298     0.00009780     0.00139192
H        -0.96072426     0.11653598    -0.55181384    -0.00031039     0.00034023    -0.00107179
     6
  Step:    15            Position(A)                                  Velocity(au)
C        -0.03698982    -0.00351000     0.00301959     0.00011384    -0.00001970    -0.00081362
N        -0.04618760    -0.04756457     1.31342573     0.00008839    -0.00004797     0.00078024
H         0.91258186     0.08539422    -0.56090923    -0.00030413     0.00023737    -0.00055089
H         0.85359825    -0.12593063     1.85432849    -0.00084552     0.00021994    -0.00081889
H        -0.93384710    -0.04488295     1.86874195    -0.00104701     0.00009327     0.00136510
H        -0.96266594     0.11844331    -0.55793227    -0.00038832     0.00035074    -0.00114273
     6
  Step:    16            Position(A)                                  Velocity(au)
C        -0.03635680    -0.00362282    -0.00148983     0.00011430    -0.00002116    -0.00081424
N        -0.04569867    -0.04782720     1.31777592     0.00008659    -0.00004684     0.00078997
H         0.91099134     0.08673177    -0.56404546    -0.00026834     0.00024659    -0.00058456
H         0.84874725    -0.12473665     1.84980178    -0.00089298     0.00021061    -0.00080787
H        -0.93940294    -0.04438110     1.87617065    -0.00095192     0.00008831     0.00131470
H        -0.96500662     0.12040397    -0.56441575    -0.00045214     0.00035758    -0.00119754
     6
  Step:    17            Position(A)                                  Velocity(au)
C        -0.03572593    -0.00374395    -0.00598369     0.00011249    -0.00002257    -0.00080406
N        -0.04523020    -0.04808253     1.32216068     0.00008062    -0.00004509     0.00078871
H         0.90961478     0.08812087    -0.56737290    -0.00022599     0.00025467    -0.00061659
H         0.84372432    -0.12360186     1.84539563    -0.00090207     0.00019743    -0.00077097
H        -0.94437272    -0.04390650     1.88327890    -0.00083242     0.00008296     0.00124382
H        -0.96766536     0.12239719    -0.57117383    -0.00050040     0.00036056    -0.00123538
     6
  Step:    18            Position(A)                                  Velocity(au)
C        -0.03510961    -0.00387306    -0.01040421     0.00010857    -0.00002391    -0.00078423
N        -0.04480488    -0.04832713     1.32652019     0.00007078    -0.00004277     0.00077720
H         0.90848588     0.08955519    -0.57088140    -0.00017866     0.00026159    -0.00064640
H         0.83874624    -0.12254777     1.84125426    -0.00087227     0.00018060    -0.00070903
H        -0.94863181    -0.04346133     1.88996059    -0.00069395     0.00007730     0.00115632
H        -0.97055438     0.12440138    -0.57811207    -0.00053249     0.00035972    -0.00125631
     6
  Step:    19            Position(A)                                  Velocity(au)
C        -0.03451925    -0.00400965    -0.01470010     0.00010279    -0.00002514    -0.00075631
N        -0.04444350    -0.04855788     1.33079899     0.00005752    -0.00003995     0.00075667
H         0.90762906     0.09102832    -0.57455743    -0.00012815     0.00026745    -0.00067366
H         0.83402935    -0.12159454     1.83751504    -0.00080517     0.00016051    -0.00062422
H        -0.95208576    -0.04304730     1.89613097    -0.00054222     0.00007145     0.00105653
H        -0.97358377     0.12639537    -0.58513726    -0.00054870     0.00035537    -0.00126141
     6
  Step:    20            Position(A)                                  Velocity(au)
C        -0.03396468    -0.00415309    -0.01882868     0.00009545    -0.00002254    -0.00077710
N        -0.04416416    -0.04877214     1.33494864     0.00004177    -0.00003887     0.00077187
H         0.90705848     0.09253424    -0.57838522    -0.00010538     0.00029670    -0.00064928
H         0.82977760    -0.12075984     1.83430118    -0.00072815     0.00010552    -0.00053882
H        -0.95467153    -0.04266549     1.90172907    -0.00036346     0.00010386     0.00093282
H        -0.97666626     0.12835977    -0.59216268    -0.00052091     0.00030264    -0.00121108
     6
  Step:    21            Position(A)                                  Velocity(au)
C        -0.03345413    -0.00426114    -0.02337161     0.00008684    -0.00001615    -0.00084644
N        -0.04397742    -0.04899162     1.33941223     0.00002400    -0.00003965     0.00082307
H         0.90645313     0.09433918    -0.58180266    -0.00010987     0.00033590    -0.00057598
H         0.82590404    -0.12041703     1.83150240    -0.00064436     0.00003112    -0.00045614
H        -0.95614156    -0.04188832     1.90654014    -0.00016303     0.00016094     0.00078800
H        -0.97939650     0.12977248    -0.59865155    -0.00045119     0.00021555    -0.00110735
     6
  Step:    22            Position(A)                                  Velocity(au)
C        -0.03299418    -0.00433358    -0.02828826     0.00007722    -0.00000987    -0.00090701
N        -0.04389589    -0.04921529     1.34414702     0.00000446    -0.00004018     0.00086544
H         0.90583063     0.09628818    -0.58482222    -0.00011035     0.00035507    -0.00050620
H         0.82257638    -0.12041206     1.82920350    -0.00053263    -0.00002359    -0.00035911
H        -0.95649348    -0.04086692     1.91053556     0.00003353     0.00019817     0.00064258
H        -0.98170861     0.13076871    -0.60453813    -0.00037269     0.00014625    -0.00099585
     6
  Step:    23            Position(A)                                  Velocity(au)
C        -0.03259009    -0.00437155    -0.03352049     0.00006685    -0.00000385    -0.00095746
N        -0.04392756    -0.04944115     1.34909601    -0.00001611    -0.00004036     0.00089805
H         0.90521832     0.09831217    -0.58746673    -0.00010569     0.00036461    -0.00044147
H         0.81994418    -0.12068100     1.82748417    -0.00039730    -0.00006920    -0.00024976
H        -0.95576637    -0.03967091     1.91373019     0.00022011     0.00022539     0.00050272
H        -0.98356670     0.13140895    -0.60979457    -0.00028993     0.00008601    -0.00088208
     6
  Step:    24            Position(A)                                  Velocity(au)
C        -0.03224558    -0.00437674    -0.03901033     0.00005598     0.00000183    -0.00099842
N        -0.04407626    -0.04966726     1.35420385    -0.00003698    -0.00004025     0.00092172
H         0.90464701     0.10037124    -0.58976604    -0.00009547     0.00036863    -0.00038282
H         0.81812722    -0.12118694     1.82640659    -0.00024405    -0.00010933    -0.00013141
H        -0.95402857    -0.03834288     1.91616530     0.00039233     0.00024640     0.00037243
H        -0.98495538     0.13173189    -0.61441614    -0.00020615     0.00003188    -0.00076963
     6
  Step:    25            Position(A)                                  Velocity(au)
C        -0.03196294    -0.00435108    -0.04470492     0.00004485     0.00000715    -0.00103106
N        -0.04434178    -0.04989205     1.35942129    -0.00005748    -0.00003992     0.00093774
H         0.90414890     0.10244161    -0.59175516    -0.00007952     0.00036950    -0.00033090
H         0.81721034    -0.12190568     1.82601212    -0.00007909    -0.00014577    -0.00000766
H        -0.95137143    -0.03691070     1.91790224     0.00054680     0.00026341     0.00025466
H        -0.98587602     0.13176610    -0.61841613    -0.00012393    -0.00001763    -0.00066117
     6
  Step:    26            Position(A)                                  Velocity(au)
C        -0.03174320    -0.00429661    -0.05055862     0.00003364     0.00001213    -0.00105660
N        -0.04472009    -0.05011439     1.36470693    -0.00007698    -0.00003945     0.00094740
H         0.90375635     0.10450980    -0.59347221    -0.00005786     0.00036871    -0.00028598
H         0.81724136    -0.12281962     1.82632083     0.00009122    -0.00017947     0.00011796
H        -0.94790413    -0.03539262     1.91901760     0.00068077     0.00027785     0.00015162
H        -0.98634341     0.13153442    -0.62182150    -0.00004530    -0.00006343    -0.00055858
     6
  Step:    27            Position(A)                                  Velocity(au)
C        -0.03158635    -0.00421533    -0.05653282     0.00002250     0.00001676    -0.00107600
N        -0.04520354    -0.05033362     1.37002680    -0.00009484    -0.00003890     0.00095174
H         0.90350120     0.10656910    -0.59495653    -0.00003060     0.00036718    -0.00024806
H         0.81823144    -0.12391470     1.82733262     0.00026063    -0.00021089     0.00024209
H        -0.94375065    -0.03380032     1.91959949     0.00079171     0.00029073     0.00006502
H        -0.98638311     0.13105601    -0.62466908     0.00002807    -0.00010612    -0.00046315
     6
  Step:    28            Position(A)                                  Velocity(au)
C        -0.03149152    -0.00410915    -0.06259450     0.00001156     0.00002106    -0.00108989
N        -0.04578098    -0.05054953     1.37535289    -0.00011044    -0.00003835     0.00095146
H         0.90341407     0.10861702    -0.59624696     0.00000200     0.00036544    -0.00021688
H         0.82015665    -0.12517853     1.82902876     0.00042304    -0.00024015     0.00036153
H        -0.93904829    -0.03214055     1.91974488     0.00087715     0.00030272    -0.00000374
H        -0.98602943     0.13034740    -0.62700223     0.00009476    -0.00014606    -0.00037572
     6
  Step:    29            Position(A)                                  Velocity(au)
C        -0.03145711    -0.00397994    -0.06871418     0.00000096     0.00002503    -0.00109850
N        -0.04643795    -0.05076222     1.38066107    -0.00012318    -0.00003783     0.00094693
H         0.90352360     0.11065357    -0.59738054     0.00003953     0.00036375    -0.00019202
H         0.82295962    -0.12659874     1.83137336     0.00057262    -0.00026712     0.00047329
H        -0.93394695    -0.03041684     1.91955774     0.00093466     0.00031427    -0.00005347
H        -0.98532399     0.12942350    -0.62886840     0.00015347    -0.00018346    -0.00029686
     6
  Step:    30            Position(A)                                  Velocity(au)
C        -0.03148078    -0.00382956    -0.07486383    -0.00000916     0.00002868    -0.00110188
N        -0.04715682    -0.05097206     1.38592925    -0.00013250    -0.00003739     0.00093828
H         0.90385563     0.11267978    -0.59839168     0.00008139     0.00036214    -0.00017298
H         0.82655231    -0.12816206     1.83431498     0.00070404    -0.00029157     0.00057463
H        -0.92860895    -0.02863043     1.91914771     0.00096196     0.00032566    -0.00008323
H        -0.98431532     0.12829831    -0.63031793     0.00020293    -0.00021837    -0.00022707
     6
  Step:    31            Position(A)                                  Velocity(au)
C        -0.03155934    -0.00365977    -0.08101568    -0.00001863     0.00003199    -0.00109997
N        -0.04791718    -0.05117965     1.39113613    -0.00013793    -0.00003706     0.00092560
H         0.90443221     0.11469657    -0.59931170     0.00012675     0.00036058    -0.00015917
H         0.83081961    -0.12985380     1.83778862     0.00081273    -0.00031316     0.00066324
H        -0.92320754    -0.02678111     1.91862856     0.00095733     0.00033712    -0.00009244
H        -0.98305849     0.12698555    -0.63140346     0.00024195    -0.00025075    -0.00016679
     6
  Step:    32            Position(A)                                  Velocity(au)
C        -0.03168874    -0.00347246    -0.08714168    -0.00002729     0.00003495    -0.00109276
N        -0.04869644    -0.05138572     1.39626075    -0.00013917    -0.00003687     0.00090897
H         0.90527036     0.11670461    -0.60016838     0.00017458     0.00035900    -0.00014995
H         0.83562397    -0.13165750     1.84171810     0.00089512    -0.00033157     0.00073734
H        -0.91792323    -0.02486753     1.91811594     0.00091997     0.00034879    -0.00008102
H        -0.98161471     0.12549945    -0.63217968     0.00026946    -0.00028042    -0.00011641
     6
  Step:    33            Position(A)                                  Velocity(au)
C        -0.03186397    -0.00326958    -0.09321384    -0.00003496     0.00003757    -0.00108040
N        -0.04947072    -0.05159118     1.40128272    -0.00013609    -0.00003684     0.00088863
H         0.90638104     0.11870403    -0.60098557     0.00022374     0.00035731    -0.00014465
H         0.84081156    -0.13355506     1.84601937     0.00094901    -0.00034661     0.00079584
H        -0.91293815    -0.02288768     1.91772415     0.00085030     0.00036082    -0.00004959
H        -0.98005054     0.12385533    -0.63270296     0.00028463    -0.00030730    -0.00007625
     6
  Step:    34            Position(A)                                  Velocity(au)
C        -0.03207910    -0.00305301    -0.09920487    -0.00004149     0.00003984    -0.00106317
N        -0.05021593    -0.05179701     1.40618273    -0.00012876    -0.00003698     0.00086490
H         0.90776851     0.12069422    -0.60178343     0.00027296     0.00035543    -0.00014259
H         0.84622020    -0.13552754     1.85060407     0.00097363    -0.00035818     0.00083835
H        -0.90842917    -0.02083877     1.91756226     0.00075015     0.00037334     0.00000048
H        -0.97843666     0.12206833    -0.63303104     0.00028690    -0.00033139    -0.00004646
     6
  Step:    35            Position(A)                                  Velocity(au)
C        -0.03232739    -0.00282456    -0.10508914    -0.00004675     0.00004179    -0.00104156
N        -0.05090893    -0.05200428     1.41094341    -0.00011748    -0.00003733     0.00083828
H         0.90942990     0.12267406    -0.60257820     0.00032098     0.00035330    -0.00014308
H         0.85168676    -0.13755578     1.85538352     0.00096955    -0.00036633     0.00086522
H        -0.90455921    -0.01871753     1.91772950     0.00062287     0.00038646     0.00006699
H        -0.97684594     0.12015383    -0.63322196     0.00027611    -0.00035272    -0.00002701
     6
  Step:    36            Position(A)                                  Velocity(au)
C        -0.03260145    -0.00258600    -0.11084360    -0.00005064     0.00004345    -0.00101615
N        -0.05152867    -0.05221411     1.41555003    -0.00010272    -0.00003786     0.00080936
H         0.91135526     0.12464210    -0.60338226     0.00036660     0.00035090    -0.00014547
H         0.85705431    -0.13962106     1.86027236     0.00093851    -0.00037125     0.00087738
H        -0.90146904    -0.01652033     1.91831080     0.00047318     0.00040023     0.00014701
H        -0.97535132     0.11812697    -0.63333291     0.00025248    -0.00037139    -0.00001763
     6
  Step:    37            Position(A)                                  Velocity(au)
C        -0.03289345    -0.00233890    -0.11644840    -0.00005311     0.00004483    -0.00098761
N        -0.05205719    -0.05242757     1.41999104    -0.00008510    -0.00003859     0.00077877
H         0.91352801     0.12659669    -0.60420433     0.00040872     0.00034823    -0.00014912
H         0.86217808    -0.14170586     1.86519155     0.00088317    -0.00037321     0.00087624
H        -0.89926961    -0.01424341     1.91937285     0.00030698     0.00041468     0.00023700
H        -0.97402356     0.11600216    -0.63341902     0.00021661    -0.00038760    -0.00001781
     6
  Step:    38            Position(A)                                  Velocity(au)
C        -0.03319539    -0.00208467    -0.12188737    -0.00005417     0.00004599    -0.00095663
N        -0.05248029    -0.05264568     1.42425850    -0.00006535    -0.00003950     0.00074718
H         0.91592564     0.12853614    -0.60504975     0.00044639     0.00034531    -0.00015347
H         0.86693013    -0.14379446     1.87007071     0.00080684    -0.00037260     0.00086351
H        -0.89803630    -0.01188321     1.92096096     0.00013092     0.00042976     0.00033300
H        -0.97292911     0.11379267    -0.63353206     0.00016946    -0.00040162    -0.00002685
     6
  Step:    39            Position(A)                                  Velocity(au)
C        -0.03349935    -0.00182449    -0.12714802    -0.00005385     0.00004697    -0.00092386
N        -0.05278809    -0.05286934     1.42834800    -0.00004424    -0.00004055     0.00071520
H         0.91852070     0.13045883    -0.60592088     0.00047884     0.00034214    -0.00015804
H         0.87120235    -0.14587330     1.87484959     0.00071322    -0.00036983     0.00084108
H        -0.89780532    -0.00943674     1.92309738    -0.00004796     0.00044533     0.00043091
H        -0.97212821     0.11151015    -0.63371937     0.00011230    -0.00041377    -0.00004387
     6
  Step:    40            Position(A)                                  Velocity(au)
C        -0.03379772    -0.00155930    -0.13222137    -0.00005222     0.00004780    -0.00088989
N        -0.05297515    -0.05309928     1.43225849    -0.00002255    -0.00004172     0.00068339
H         0.92128179     0.13236323    -0.60681754     0.00050547     0.00033876    -0.00016241
H         0.87490795    -0.14793128     1.87947872     0.00060609    -0.00036534     0.00081087
H        -0.89857275    -0.00690195     1.92578094    -0.00022267     0.00046120     0.00052664
H        -0.97167298     0.10916441    -0.63402276     0.00004669    -0.00042439    -0.00006780
     6
  Step:    41            Position(A)                                  Velocity(au)
C        -0.03408342    -0.00128982    -0.13710170    -0.00004939     0.00004853    -0.00085521
N        -0.05304035    -0.05333603     1.43599193    -0.00000103    -0.00004297     0.00065220
H         0.92417460     0.13424795    -0.60773749     0.00052586     0.00033517    -0.00016625
H         0.87798169    -0.14995978     1.88391945     0.00048920    -0.00035957     0.00077475
H        -0.90029591    -0.00427811     1.92898802    -0.00038664     0.00047710     0.00061640
H        -0.97160597     0.10676319    -0.63447772    -0.00002557    -0.00043386    -0.00009747
     6
  Step:    42            Position(A)                                  Velocity(au)
C        -0.03435014    -0.00101650    -0.14178590    -0.00004552     0.00004921    -0.00082024
N        -0.05298665    -0.05357989     1.43955264     0.00001966    -0.00004426     0.00062200
H         0.92716289     0.13611170    -0.60867687     0.00053972     0.00033138    -0.00016931
H         0.88037913    -0.15195263     1.88814343     0.00036613    -0.00035292     0.00073448
H        -0.90289687    -0.00156608     1.93267472    -0.00053408     0.00049275     0.00069686
H        -0.97195890     0.10431217    -0.63511282    -0.00010248    -0.00044254    -0.00013161
     6
  Step:    43            Position(A)                                  Velocity(au)
C        -0.03459244    -0.00073961    -0.14627313    -0.00004077     0.00004985    -0.00078531
N        -0.05282057    -0.05383089     1.44294681     0.00003891    -0.00004553     0.00059305
H         0.93020940     0.13795330    -0.60963066     0.00054694     0.00032742    -0.00017143
H         0.88207553    -0.15390598     1.89213196     0.00024023    -0.00034581     0.00069168
H        -0.90626767     0.00123151     1.93677995    -0.00066019     0.00050780     0.00076527
H        -0.97275182     0.10181497    -0.63594932    -0.00018194    -0.00045078    -0.00016892
     6
  Step:    44            Position(A)                                  Velocity(au)
C        -0.03480590    -0.00045921    -0.15056432    -0.00003533     0.00005051    -0.00075069
N        -0.05255165    -0.05408883     1.44618188     0.00005626    -0.00004674     0.00056550
H         0.93327671     0.13977168    -0.61059313     0.00054754     0.00032329    -0.00017248
H         0.88306445    -0.15581818     1.89587519     0.00011460    -0.00033859     0.00064784
H        -0.91027662     0.00411025     1.94122912    -0.00076134     0.00052194     0.00081956
H        -0.97399264     0.09927327    -0.63700109    -0.00026177    -0.00045889    -0.00020809
     6