|===============================================================================
|
|  DFTB+ release 20.1
|
|  Copyright (C) 2006 - 2020  DFTB+ developers group
|
|===============================================================================
|
|  When publishing results obtained with DFTB+, please cite the following
|  reference:
|
|  * DFTB+, a software package for efficient approximate density functional
|    theory based atomistic simulations, J. Chem. Phys. 152, 124101 (2020).
|    [doi: 10.1063/1.5143190]
|
|  You should also cite additional publications crediting the parametrization
|  data you use. Please consult the documentation of the SK-files for the
|  references.
|
|===============================================================================

Reading input file 'dftb_in.hsd'
Parser version: 8

--------------------------------------------------------------------------------
Reading SK-files:
Done.


Processed input in HSD format written to 'dftb_pin.hsd'

Starting initialization...
--------------------------------------------------------------------------------
OpenMP threads:              1
Chosen random seed:          502922153
Mode:                        Static calculation
Self consistent charges:     Yes
SCC-tolerance:                 0.100000E-05
Max. scc iterations:                   1000
Shell resolved Hubbard:      No
Spin polarisation:           No
Nr. of up electrons:            16.000000
Nr. of down electrons:          16.000000
Periodic boundaries:         No
Electronic solver:           Relatively robust
Maximal SCC-cycles:                    1000
Initial charges:             Set automatically (system chrg:   0.100E+01)
Included shells:             C:  s, p
                             H:  s
                             N:  s, p
Spin coupling constants:     C   1(s)-1(s):  -0.455900E-01
                             C   1(s)-2(p):  -0.293000E-01
                             C   2(p)-1(s):  -0.293000E-01
                             C   2(p)-2(p):  -0.275500E-01
                             H   1(s)-1(s):  -0.792500E-01
                             N   1(s)-1(s):  -0.468700E-01
                             N   1(s)-2(p):  -0.317000E-01
                             N   2(p)-1(s):  -0.317000E-01
                             N   2(p)-2(p):  -0.307200E-01
Range separated hybrid:      Yes
  Screening parameter omega:   0.300000E+00
  Range separated algorithm:   MatrixBased
Extra options:
                             Mulliken analysis
                             Force calculation
Force type                   original
                             Eigenvector printing


REKS Calcuation:             Yes
SSR(2,2) Calcuation:         Yes
Energy Functional:           (PPS+OSS)/2
Number of Core Orbitals:                 15
Number of Active Orbitals:                2
Number of Basis:                         32
Number of States:                         2
State-Averaging Weight:          0.500000
                                 0.500000
State of Interest:                        1
Initial Guess:               Diagonalize H0 matrix
Newton-Raphson for FON opt:  Yes
NR max. Iterations:                      50
Level Shifting:              Yes
Shift Value:                     0.300000
W Scale Factor:              C  =    3.200000
                             H  =    3.200000
                             N  =    3.200000
Transition Dipole:           No
Gradient of Microstate:      No
CP-REKS Solver:              Preconditioned Conjugate-Gradient
CG max. Iterations:                     100
CG Tolerance:                  0.100000E-07
Memory for A and Hxc:        Direct Updating Without Saving
Non-Adiabatic Coupling:      Yes

--------------------------------------------------------------------------------

***  Geometry step: 0

  iSCC       reks energy        Diff energy         x_a       SCC error   
    1      -16.3890771785       0.0000000000     0.997170    1.21071745
    2      -16.4123108347      -0.0232336562     0.999703    0.07073321
    3      -16.4188972171      -0.0065863824     0.999958    0.03617795
    4      -16.4220221808      -0.0031249637     0.999991    0.02040536
    5      -16.4238784372      -0.0018562564     0.999997    0.01482584
    6      -16.4251340472      -0.0012556100     0.999999    0.01217896
    7      -16.4260608569      -0.0009268097     1.000000    0.01024531
    8      -16.4267829574      -0.0007221005     1.000000    0.00877170
    9      -16.4273620758      -0.0005791185     1.000000    0.00759515
   10      -16.4278323111      -0.0004702352     1.000000    0.00661644
   11      -16.4282150983      -0.0003827873     1.000000    0.00587502
   12      -16.4285257817      -0.0003106834     1.000000    0.00524080
   13      -16.4287764947      -0.0002507130     1.000000    0.00461930
   14      -16.4289774010      -0.0002009063     1.000000    0.00403563
   15      -16.4291372173      -0.0001598163     1.000000    0.00350260
   16      -16.4292634396      -0.0001262223     1.000000    0.00302520
   17      -16.4293624631      -0.0000990235     1.000000    0.00264737
   18      -16.4294396759      -0.0000772128     1.000000    0.00236288
   19      -16.4294995546      -0.0000598787     1.000000    0.00209881
   20      -16.4295457685      -0.0000462139     1.000000    0.00185676
   21      -16.4295812874      -0.0000355189     1.000000    0.00163710
   22      -16.4296084884      -0.0000272010     1.000000    0.00143936
   23      -16.4296292554      -0.0000207670     1.000000    0.00126251
   24      -16.4296450687      -0.0000158133     1.000000    0.00110518
   25      -16.4296570833      -0.0000120146     1.000000    0.00096584
   26      -16.4296661948      -0.0000091115     1.000000    0.00084288
   27      -16.4296730938      -0.0000068990     1.000000    0.00073469
   28      -16.4296783107      -0.0000052169     1.000000    0.00063975
   29      -16.4296822514      -0.0000039407     1.000000    0.00055660
   30      -16.4296852254      -0.0000029740     1.000000    0.00048391
   31      -16.4296874682      -0.0000022428     1.000000    0.00042046
   32      -16.4296891585      -0.0000016903     1.000000    0.00036514
   33      -16.4296904318      -0.0000012733     1.000000    0.00031696
   34      -16.4296913906      -0.0000009588     1.000000    0.00027503
   35      -16.4296921123      -0.0000007217     1.000000    0.00023858
   36      -16.4296926555      -0.0000005432     1.000000    0.00020690
   37      -16.4296930642      -0.0000004087     1.000000    0.00017939
   38      -16.4296933717      -0.0000003075     1.000000    0.00015550
   39      -16.4296936029      -0.0000002313     1.000000    0.00013478
   40      -16.4296937769      -0.0000001740     1.000000    0.00011680
   41      -16.4296939078      -0.0000001309     1.000000    0.00010121
   42      -16.4296940062      -0.0000000984     1.000000    0.00008769
   43      -16.4296940802      -0.0000000740     1.000000    0.00007597
   44      -16.4296941359      -0.0000000557     1.000000    0.00006581
   45      -16.4296941777      -0.0000000419     1.000000    0.00005701
   46      -16.4296942092      -0.0000000315     1.000000    0.00004938
   47      -16.4296942329      -0.0000000237     1.000000    0.00004277
   48      -16.4296942508      -0.0000000178     1.000000    0.00003705
   49      -16.4296942642      -0.0000000134     1.000000    0.00003209
   50      -16.4296942743      -0.0000000101     1.000000    0.00002779
   51      -16.4296942819      -0.0000000076     1.000000    0.00002407
   52      -16.4296942876      -0.0000000057     1.000000    0.00002085
   53      -16.4296942919      -0.0000000043     1.000000    0.00001806
   54      -16.4296942951      -0.0000000032     1.000000    0.00001564
   55      -16.4296942975      -0.0000000024     1.000000    0.00001355
   56      -16.4296942994      -0.0000000018     1.000000    0.00001173
   57      -16.4296943007      -0.0000000014     1.000000    0.00001016
   58      -16.4296943018      -0.0000000010     1.000000    0.00000880
   59      -16.4296943026      -0.0000000008     1.000000    0.00000762
   60      -16.4296943031      -0.0000000006     1.000000    0.00000660
   61      -16.4296943036      -0.0000000004     1.000000    0.00000572
   62      -16.4296943039      -0.0000000003     1.000000    0.00000495
   63      -16.4296943042      -0.0000000003     1.000000    0.00000429
   64      -16.4296943044      -0.0000000002     1.000000    0.00000372
   65      -16.4296943045      -0.0000000001     1.000000    0.00000322
   66      -16.4296943046      -0.0000000001     1.000000    0.00000279
   67      -16.4296943047      -0.0000000001     1.000000    0.00000242
   68      -16.4296943048      -0.0000000001     1.000000    0.00000209
   69      -16.4296943048      -0.0000000000     1.000000    0.00000181
   70      -16.4296943048      -0.0000000000     1.000000    0.00000157
   71      -16.4296943049      -0.0000000000     1.000000    0.00000136
   72      -16.4296943049      -0.0000000000     1.000000    0.00000118
   73      -16.4296943049      -0.0000000000     1.000000    0.00000102
   74      -16.4296943049      -0.0000000000     1.000000    0.00000089
  
--------------------------------------------------
 Final SA-REKS(2,2) energy:     -16.42969430
  
 State     Energy      FON(1)    FON(2)   Spin
  PPS  -16.49668898   2.000000  0.000000  0.00
  OSS  -16.36269963   1.000000  1.000000  0.00
 Trip  -16.37570800   1.000000  1.000000  1.00
--------------------------------------------------

 Lagrangian Wab:   0.00191973  0.00191963

--------------------------------------------------
 SSR: 2SI-2SA-REKS(2,2) Hamiltonian matrix
               PPS           OSS
   PPS   -16.49668898    0.00271488
   OSS     0.00271488  -16.36269963
--------------------------------------------------

----------------------------------------------------------------
 SSR: 2SI-2SA-REKS(2,2) states
                    E_n       C_{PPS}    C_{OSS}
 SSR state  1  -16.49674396  -0.999795   0.020249
 SSR state  2  -16.36264465  -0.020249  -0.999795
----------------------------------------------------------------

 unrelaxed SSR FONs for S0:  1.999590  0.000410

Total Energy:                      -16.4967439620 H         -448.8992 eV
Extrapolated to 0:                 -16.4967439620 H         -448.8992 eV

----------------------------------------------------------------------------------
 Solving CP-REKS equation for  1 state vector...
----------------------------------------------------------------------------------
  CG solver: Constructing Y initial guess
  CG solver: Iteration    1    eps =    0.000196084917
  CG solver: Iteration    2    eps =    0.000015350023
  CG solver: Iteration    3    eps =    0.000004902482
  CG solver: Iteration    4    eps =    0.000000166968
  CG solver: Iteration    5    eps =    0.000000030286
  CG solver: Iteration    6    eps =    0.000000008723
  Convergence reached in CG solver after    6 iterations
  CG solver: Calculating converged R, Z, Q2 matrix
----------------------------------------------------------------------------------

----------------------------------------------------------------------------------
 Solving CP-REKS equation for SI between  1 and  2 state vectors...
----------------------------------------------------------------------------------
  CG solver: Constructing Y initial guess
  CG solver: Iteration    1    eps =    0.002583886005
  CG solver: Iteration    2    eps =    0.001070888088
  CG solver: Iteration    3    eps =    0.000044011602
  CG solver: Iteration    4    eps =    0.000009842296
  CG solver: Iteration    5    eps =    0.000002219290
  CG solver: Iteration    6    eps =    0.000000257912
  CG solver: Iteration    7    eps =    0.000000066899
  CG solver: Iteration    8    eps =    0.000000006529
  Convergence reached in CG solver after    8 iterations
  CG solver: Calculating converged R, Z, Q2 matrix
----------------------------------------------------------------------------------

--------------------------------------------------
 Gradient Information
--------------------------------------------------
           1 st state (SSR)
    -0.02603615     0.05470769     0.00299691
    -0.03147201    -0.04420803    -0.02869205
     0.00130526    -0.01871160    -0.00376198
    -0.00144113    -0.01862874     0.00994606
     0.02171437    -0.01369926    -0.00385044
    -0.03620319     0.07763683     0.04656827
     0.01833330     0.00045272     0.02285963
     0.04462115    -0.05248905    -0.01120348
    -0.00180593     0.00126353    -0.01388743
     0.03048821     0.05201246    -0.02832893
    -0.00376974    -0.00544318    -0.00097497
    -0.01614933    -0.05954774    -0.02856771
    -0.01530218     0.01589636     0.00695839
     0.01571737     0.01075801     0.02993773

           2 st state (SSR)
     0.00425188     0.05124066    -0.00026703
    -0.08003414    -0.06152772    -0.01480738
     0.00262581    -0.01994417    -0.00223163
    -0.00183994    -0.01752179     0.00518949
     0.02182697    -0.01201665    -0.00448118
     0.03622775     0.09868698     0.02641588
    -0.02833301    -0.00381686     0.02728035
     0.04411079    -0.05301728    -0.00870779
     0.00103657     0.00753754    -0.01317151
     0.14205998     0.08426899     0.09609950
     0.00051175    -0.00015133    -0.00272355
    -0.16325543    -0.09714990    -0.14351074
    -0.00258531     0.01779860     0.00095239
     0.02339633     0.00561293     0.03396320
--------------------------------------------------
 Coupling Information
--------------------------------------------------
 between  1 and  2 states
--------------------------------------------------
 g vector - difference gradient
    -0.01518699     0.00175841     0.00163569
     0.02444130     0.00876576    -0.00712982
    -0.00066625     0.00061756    -0.00077765
     0.00020891    -0.00055484     0.00241800
    -0.00006152    -0.00084273     0.00032598
    -0.03683896    -0.01059366     0.01030773
     0.02396984     0.00202349    -0.00202271
     0.00024931     0.00026587    -0.00125435
    -0.00148058    -0.00306041    -0.00043490
    -0.05527493    -0.01602305    -0.06195632
    -0.00211166    -0.00260640     0.00088073
     0.07288857     0.01863884     0.05701739
    -0.00631962    -0.00094298     0.00298767
    -0.00381742     0.00255412    -0.00199744

 h vector - derivative coupling
    -0.00075386     0.00057923     0.00005877
     0.00346228     0.00243828    -0.00448594
    -0.00013400     0.00001896    -0.00029240
     0.00023041    -0.00002238     0.00093195
    -0.00012766    -0.00001808     0.00025531
    -0.01465220    -0.00147938     0.00550953
     0.01523877    -0.00278984     0.00467536
    -0.00014995     0.00003811    -0.00013527
    -0.00143538     0.00195351    -0.00189134
     0.01373847     0.00292316     0.00762412
     0.00076110     0.00102910     0.00014116
    -0.01788689    -0.00438424    -0.01237026
     0.00108671     0.00022019    -0.00043915
     0.00062218    -0.00050663     0.00041816

 G vector - GDV
    -0.01514402     0.00173352     0.00163197
     0.02428107     0.00865985    -0.00694233
    -0.00066027     0.00061628    -0.00076517
     0.00019941    -0.00055347     0.00237828
    -0.00005630    -0.00084130     0.00031537
    -0.03621547    -0.01052507     0.01007619
     0.02333315     0.00213479    -0.00221036
     0.00025518     0.00026411    -0.00124784
    -0.00142125    -0.00313700    -0.00035796
    -0.05578588    -0.01612827    -0.06221421
    -0.00214074    -0.00264593     0.00087429
     0.07355305     0.01880108     0.05747151
    -0.00635844    -0.00095112     0.00300300
    -0.00383948     0.00257254    -0.00201274

 H vector - DCV - non-adiabatic coupling
    -0.01020264     0.00484681     0.00093182
     0.03317747     0.02081452    -0.03557775
    -0.00119960     0.00032776    -0.00241352
     0.00177985    -0.00033426     0.00767407
    -0.00096975    -0.00038916     0.00200075
    -0.12029749    -0.01422159     0.04416412
     0.12078233    -0.02017627     0.03422558
    -0.00104200     0.00036425    -0.00138665
    -0.01114211     0.01363160    -0.01422377
     0.08567600     0.01694255     0.03810030
     0.00503338     0.00688088     0.00131773
    -0.11126769    -0.02703929    -0.07495531
     0.00618897     0.00135591    -0.00237001
     0.00348328    -0.00300369     0.00251264
--------------------------------------------------


--------------------------------------------------------------------------------
DFTB+ running times                          cpu [s]             wall clock [s]
--------------------------------------------------------------------------------
SCC                                    +     0.12  ( 33.6%)      0.12  ( 34.5%)
      Dense to sparse                        0.02  (  5.6%)      0.01  (  3.6%)
      Range separated Hamiltonian            0.01  (  2.7%)      0.01  (  3.1%)
  Density matrix creation                    0.01  (  3.3%)      0.01  (  3.6%)
Post-SCC processing                    +     0.22  ( 65.6%)      0.23  ( 63.2%)
  Force calculation                          0.22  ( 65.4%)      0.23  ( 63.0%)
--------------------------------------------------------------------------------
Missing                                +     0.00  (  0.9%)      0.01  (  2.2%)
Total                                  =     0.34  (100.0%)      0.36  (100.0%)
--------------------------------------------------------------------------------
