|===============================================================================
|
|  DFTB+ release 20.1
|
|  Copyright (C) 2006 - 2020  DFTB+ developers group
|
|===============================================================================
|
|  When publishing results obtained with DFTB+, please cite the following
|  reference:
|
|  * DFTB+, a software package for efficient approximate density functional
|    theory based atomistic simulations, J. Chem. Phys. 152, 124101 (2020).
|    [doi: 10.1063/1.5143190]
|
|  You should also cite additional publications crediting the parametrization
|  data you use. Please consult the documentation of the SK-files for the
|  references.
|
|===============================================================================

Reading input file 'dftb_in.hsd'
Parser version: 8

--------------------------------------------------------------------------------
Reading SK-files:
Done.


Processed input in HSD format written to 'dftb_pin.hsd'

Starting initialization...
--------------------------------------------------------------------------------
OpenMP threads:              1
Chosen random seed:          507639443
Mode:                        Static calculation
Self consistent charges:     Yes
SCC-tolerance:                 0.100000E-05
Max. scc iterations:                   1000
Shell resolved Hubbard:      No
Spin polarisation:           No
Nr. of up electrons:             6.000000
Nr. of down electrons:           6.000000
Periodic boundaries:         No
Electronic solver:           Relatively robust
Maximal SCC-cycles:                    1000
Initial charges:             Set automatically (system chrg:   0.100E+01)
Included shells:             C:  s, p
                             N:  s, p
                             H:  s
Spin coupling constants:     C   1(s)-1(s):  -0.455900E-01
                             C   1(s)-2(p):  -0.293000E-01
                             C   2(p)-1(s):  -0.293000E-01
                             C   2(p)-2(p):  -0.275500E-01
                             N   1(s)-1(s):  -0.468700E-01
                             N   1(s)-2(p):  -0.317000E-01
                             N   2(p)-1(s):  -0.317000E-01
                             N   2(p)-2(p):  -0.307200E-01
                             H   1(s)-1(s):  -0.792500E-01
Range separated hybrid:      Yes
  Screening parameter omega:   0.300000E+00
  Range separated algorithm:   MatrixBased
Extra options:
                             Mulliken analysis
                             Force calculation
Force type                   original
                             Eigenvector printing


REKS Calcuation:             Yes
SSR(2,2) Calcuation:         Yes
Energy Functional:           (PPS+OSS)/2
Number of Core Orbitals:                  5
Number of Active Orbitals:                2
Number of Basis:                         12
Number of States:                         2
State-Averaging Weight:          0.500000
                                 0.500000
State of Interest:                        1
Initial Guess:               Diagonalize H0 matrix
Newton-Raphson for FON opt:  Yes
NR max. Iterations:                      50
Level Shifting:              Yes
Shift Value:                     0.300000
W Scale Factor:              C  =    3.000000
                             N  =    3.000000
                             H  =    3.000000
Transition Dipole:           No
Gradient of Microstate:      No
CP-REKS Solver:              Preconditioned Conjugate-Gradient
CG max. Iterations:                     100
CG Tolerance:                  0.100000E-07
Memory for A and Hxc:        Direct Updating Without Saving
Non-Adiabatic Coupling:      Yes

--------------------------------------------------------------------------------

***  Geometry step: 0

  iSCC       reks energy        Diff energy         x_a       SCC error   
    1       -6.2648354393       0.0000000000     0.998645    1.18154213
    2       -6.2778265988      -0.0129911595     0.999493    0.10611117
    3       -6.2813397287      -0.0035131299     0.999730    0.04846781
    4       -6.2827648816      -0.0014251529     0.999823    0.02461503
    5       -6.2834573243      -0.0006924428     0.999865    0.01345952
    6       -6.2838576373      -0.0004003129     0.999886    0.00760985
    7       -6.2841235117      -0.0002658744     0.999898    0.00466918
    8       -6.2843160906      -0.0001925789     0.999905    0.00440816
    9       -6.2844623231      -0.0001462324     0.999909    0.00406526
   10       -6.2845760308      -0.0001137077     0.999912    0.00369719
   11       -6.2846654058      -0.0000893751     0.999913    0.00333138
   12       -6.2847359139      -0.0000705081     0.999914    0.00298147
   13       -6.2847915261      -0.0000556122     0.999915    0.00265429
   14       -6.2848352891      -0.0000437630     0.999916    0.00235304
   15       -6.2848696134      -0.0000343243     0.999916    0.00207878
   16       -6.2848964340      -0.0000268206     0.999916    0.00187640
   17       -6.2849173115      -0.0000208774     0.999916    0.00169311
   18       -6.2849335028      -0.0000161913     0.999916    0.00151963
   19       -6.2849460163      -0.0000125136     0.999916    0.00135777
   20       -6.2849556569      -0.0000096406     0.999916    0.00120847
   21       -6.2849630627      -0.0000074058     0.999916    0.00107202
   22       -6.2849687371      -0.0000056744     0.999916    0.00094825
   23       -6.2849730749      -0.0000043378     0.999916    0.00083669
   24       -6.2849763842      -0.0000033093     0.999916    0.00073666
   25       -6.2849789043      -0.0000025201     0.999916    0.00064737
   26       -6.2849808204      -0.0000019160     0.999916    0.00056796
   27       -6.2849822751      -0.0000014548     0.999916    0.00049759
   28       -6.2849833783      -0.0000011032     0.999916    0.00043538
   29       -6.2849842140      -0.0000008357     0.999916    0.00038053
   30       -6.2849848464      -0.0000006324     0.999916    0.00033227
   31       -6.2849853246      -0.0000004782     0.999916    0.00028989
   32       -6.2849856860      -0.0000003614     0.999916    0.00025272
   33       -6.2849859589      -0.0000002729     0.999916    0.00022017
   34       -6.2849861649      -0.0000002060     0.999916    0.00019171
   35       -6.2849863203      -0.0000001554     0.999916    0.00016684
   36       -6.2849864374      -0.0000001172     0.999916    0.00014513
   37       -6.2849865258      -0.0000000883     0.999916    0.00012620
   38       -6.2849865923      -0.0000000666     0.999916    0.00010970
   39       -6.2849866425      -0.0000000501     0.999916    0.00009533
   40       -6.2849866802      -0.0000000378     0.999916    0.00008282
   41       -6.2849867087      -0.0000000284     0.999916    0.00007194
   42       -6.2849867301      -0.0000000214     0.999916    0.00006247
   43       -6.2849867462      -0.0000000161     0.999916    0.00005424
   44       -6.2849867583      -0.0000000121     0.999916    0.00004709
   45       -6.2849867675      -0.0000000091     0.999916    0.00004087
   46       -6.2849867743      -0.0000000069     0.999916    0.00003547
   47       -6.2849867795      -0.0000000052     0.999916    0.00003078
   48       -6.2849867834      -0.0000000039     0.999916    0.00002671
   49       -6.2849867863      -0.0000000029     0.999916    0.00002318
   50       -6.2849867885      -0.0000000022     0.999916    0.00002011
   51       -6.2849867902      -0.0000000017     0.999916    0.00001744
   52       -6.2849867914      -0.0000000012     0.999916    0.00001513
   53       -6.2849867924      -0.0000000009     0.999916    0.00001313
   54       -6.2849867931      -0.0000000007     0.999916    0.00001139
   55       -6.2849867936      -0.0000000005     0.999916    0.00000988
   56       -6.2849867940      -0.0000000004     0.999916    0.00000857
   57       -6.2849867943      -0.0000000003     0.999916    0.00000743
   58       -6.2849867945      -0.0000000002     0.999916    0.00000644
   59       -6.2849867947      -0.0000000002     0.999916    0.00000559
   60       -6.2849867948      -0.0000000001     0.999916    0.00000485
   61       -6.2849867949      -0.0000000001     0.999916    0.00000420
   62       -6.2849867950      -0.0000000001     0.999916    0.00000365
   63       -6.2849867950      -0.0000000001     0.999916    0.00000316
   64       -6.2849867951      -0.0000000000     0.999916    0.00000274
   65       -6.2849867951      -0.0000000000     0.999916    0.00000238
   66       -6.2849867951      -0.0000000000     0.999916    0.00000206
   67       -6.2849867952      -0.0000000000     0.999916    0.00000179
   68       -6.2849867952      -0.0000000000     0.999916    0.00000155
   69       -6.2849867952      -0.0000000000     0.999916    0.00000135
   70       -6.2849867952      -0.0000000000     0.999916    0.00000117
   71       -6.2849867952      -0.0000000000     0.999916    0.00000101
   72       -6.2849867952      -0.0000000000     0.999916    0.00000088
  
--------------------------------------------------
 Final SA-REKS(2,2) energy:      -6.28498680
  
 State     Energy      FON(1)    FON(2)   Spin
  PPS   -6.40445735   1.999831  0.000169  0.00
  OSS   -6.16551624   1.000000  1.000000  0.00
 Trip   -6.24753922   1.000000  1.000000  1.00
--------------------------------------------------

 Lagrangian Wab:  -0.01004389 -0.01004356

--------------------------------------------------
 SSR: 2SI-2SA-REKS(2,2) Hamiltonian matrix
               PPS           OSS
   PPS    -6.40445735   -0.01407308
   OSS    -0.01407308   -6.16551624
--------------------------------------------------

----------------------------------------------------------------
 SSR: 2SI-2SA-REKS(2,2) states
                    E_n       C_{PPS}    C_{OSS}
 SSR state  1   -6.40528336  -0.998282  -0.058594
 SSR state  2   -6.16469023   0.058594  -0.998282
----------------------------------------------------------------

 unrelaxed SSR FONs for S0:  1.996398  0.003602

Total Energy:                       -6.4052833634 H         -174.2966 eV
Extrapolated to 0:                  -6.4052833634 H         -174.2966 eV

----------------------------------------------------------------------------------
 Solving CP-REKS equation for  1 state vector...
----------------------------------------------------------------------------------
  CG solver: Constructing Y initial guess
  CG solver: Iteration    1    eps =    0.000367813207
  CG solver: Iteration    2    eps =    0.000055655707
  CG solver: Iteration    3    eps =    0.000021625735
  CG solver: Iteration    4    eps =    0.000003335778
  CG solver: Iteration    5    eps =    0.000000044353
  CG solver: Iteration    6    eps =    0.000000021144
  CG solver: Iteration    7    eps =    0.000000000335
  Convergence reached in CG solver after    7 iterations
  CG solver: Calculating converged R, Z, Q2 matrix
----------------------------------------------------------------------------------

----------------------------------------------------------------------------------
 Solving CP-REKS equation for SI between  1 and  2 state vectors...
----------------------------------------------------------------------------------
  CG solver: Constructing Y initial guess
  CG solver: Iteration    1    eps =    0.006538317399
  CG solver: Iteration    2    eps =    0.010610223786
  CG solver: Iteration    3    eps =    0.000926884139
  CG solver: Iteration    4    eps =    0.000016317507
  CG solver: Iteration    5    eps =    0.000002518764
  CG solver: Iteration    6    eps =    0.000000079133
  CG solver: Iteration    7    eps =    0.000000008315
  Convergence reached in CG solver after    7 iterations
  CG solver: Calculating converged R, Z, Q2 matrix
----------------------------------------------------------------------------------

--------------------------------------------------
 Gradient Information
--------------------------------------------------
           1 st state (SSR)
    -0.00854218     0.00622802    -0.01296482
     0.02279939     0.00066374     0.01989869
     0.01442407    -0.00549810     0.00260975
     0.00855524    -0.00687753    -0.00347993
    -0.02352302     0.00084005    -0.01155292
    -0.01371351     0.00464382     0.00548923

           2 st state (SSR)
     0.00924578    -0.00488229     0.09656780
    -0.02348552     0.00033318    -0.10548996
    -0.01705555    -0.00896249     0.01791514
    -0.00715996     0.00288239    -0.01277271
     0.02140218     0.00040458    -0.01583755
     0.01705308     0.01022464     0.01961729
--------------------------------------------------
 Coupling Information
--------------------------------------------------
 between  1 and  2 states
--------------------------------------------------
 g vector - difference gradient
    -0.00901530     0.00589063    -0.06121998
     0.02477808     0.00034940     0.06802283
     0.01802138     0.00087254    -0.00726995
     0.01005572    -0.00488994     0.00498307
    -0.02578058    -0.00038721     0.00195771
    -0.01805932    -0.00183542    -0.00647367

 h vector - derivative coupling
     0.00050789    -0.00252187     0.05157267
    -0.01252697    -0.00155331    -0.04155546
    -0.01844510     0.00739952    -0.00369839
    -0.01819934    -0.00020167    -0.00258543
     0.02684890     0.00514833     0.00169297
     0.02181463    -0.00827100    -0.00542635

 G vector - GDV
    -0.00889398     0.00555515    -0.05476631
     0.02314246     0.00016528     0.06269432
     0.01573981     0.00173220    -0.00765270
     0.00785760    -0.00487996     0.00464639
    -0.02246260     0.00021774     0.00214232
    -0.01538329    -0.00279041    -0.00706403

 H vector - DCV - non-adiabatic coupling
     0.00648009    -0.01327417     0.24265221
    -0.06375768    -0.00658174    -0.20461048
    -0.08490146     0.03011987    -0.01173148
    -0.08001373     0.00154523    -0.01309526
     0.12336396     0.02143985     0.00603640
     0.09882882    -0.03324905    -0.01925140
--------------------------------------------------


--------------------------------------------------------------------------------
DFTB+ running times                          cpu [s]             wall clock [s]
--------------------------------------------------------------------------------
SCC                                    +     0.03  ( 74.0%)      0.04  ( 67.3%)
Post-SCC processing                    +     0.01  ( 22.5%)      0.01  ( 23.1%)
  Force calculation                          0.01  ( 21.9%)      0.01  ( 19.2%)
--------------------------------------------------------------------------------
Missing                                +     0.00  (  3.4%)      0.01  (  9.6%)
Total                                  =     0.05  (100.0%)      0.05  (100.0%)
--------------------------------------------------------------------------------
