     6
  Step:   300            Position(A)                                  Velocity(au)
C        -0.02169126     0.01184189     0.01653106     0.00004980     0.00008176    -0.00004780
N        -0.04770419    -0.06794190     1.29685642    -0.00005965    -0.00017632     0.00003980
H         0.89213044    -0.06363388    -0.59169941    -0.00008165     0.00161982    -0.00050134
H         0.76848306     0.04702375     1.89633929    -0.00014577    -0.00102927     0.00039549
H        -0.93801883     0.05275685     1.81412046     0.00054881     0.00286421     0.00027303
H        -1.01413089     0.09710851    -0.44527045    -0.00008595    -0.00197885    -0.00015061
