     6
  Step:     0            Position(A)                                  Velocity(au)
C        -0.03471330     0.00862422     0.00365537     0.00005546     0.00002304    -0.00005067
N        -0.05600599    -0.05797949     1.30722173    -0.00002538     0.00011522     0.00007927
H         0.96961951     0.02982103    -0.54255971    -0.00035907    -0.00040729     0.00006675
H         0.90635860    -0.08211906     1.87366648     0.00020104    -0.00050441     0.00024524
H        -0.89110797    -0.04057793     1.87856945     0.00032221    -0.00080302    -0.00081532
H        -1.00588268     0.12603503    -0.52680573    -0.00047245    -0.00016102     0.00000562
     6
  Step:     1            Position(A)                                  Velocity(au)
C        -0.03402897     0.00888945     0.00275466     0.00006821     0.00002530    -0.00011218
N        -0.05602576    -0.05674737     1.30848857     0.00002378     0.00011036     0.00014904
H         0.96470885     0.02538384    -0.54192969    -0.00052805    -0.00040388     0.00004070
H         0.90579137    -0.08752232     1.87497264    -0.00030387    -0.00048243    -0.00000619
H        -0.88837768    -0.04936644     1.87043982     0.00014412    -0.00080651    -0.00064643
H        -1.01101585     0.12438100    -0.52748308    -0.00045556    -0.00014236    -0.00012244
     6
  Step:     2            Position(A)                                  Velocity(au)
C        -0.03322110     0.00917773     0.00120131     0.00007747     0.00002722    -0.00016868
N        -0.05548572    -0.05556513     1.31048227     0.00007503     0.00010624     0.00021124
H         0.95806747     0.02098549    -0.54166936    -0.00066997    -0.00040032    -0.00000341
H         0.89971095    -0.09267304     1.87353108    -0.00079127    -0.00045885    -0.00024740
H        -0.88795513    -0.05822188     1.86442757    -0.00008696    -0.00081600    -0.00043869
H        -1.01584893     0.12292074    -0.52948425    -0.00041764    -0.00012556    -0.00023589
     6
  Step:     3            Position(A)                                  Velocity(au)
C        -0.03233425     0.00948487    -0.00093554     0.00008215     0.00002872    -0.00021774
N        -0.05438434    -0.05442315     1.31310983     0.00012407     0.00010311     0.00026428
H         0.95005208     0.01662601    -0.54200424    -0.00077422    -0.00039697    -0.00007035
H         0.88848074    -0.09756061     1.86956038    -0.00122815    -0.00043528    -0.00045789
H        -0.89028015    -0.06721803     1.86084253    -0.00034130    -0.00083237    -0.00021557
H        -1.02015243     0.12163417    -0.53264356    -0.00035941    -0.00011049    -0.00033410
     6
  Step:     4            Position(A)                                  Velocity(au)
C        -0.03142391     0.00980612    -0.00356206     0.00008141     0.00002978    -0.00025735
N        -0.05277152    -0.05330950     1.31626389     0.00016595     0.00010114     0.00030695
H         0.94112986     0.01230108    -0.54320842    -0.00083191    -0.00039427    -0.00016385
H         0.87284282    -0.10219573     1.86351386    -0.00157757    -0.00041413    -0.00061481
H        -0.89542180    -0.07643164     1.85971155    -0.00058400    -0.00085519    -0.00000291
H        -1.02371175     0.12050361    -0.53679335    -0.00028275    -0.00009687    -0.00041725
     6
  Step:     5            Position(A)                                  Velocity(au)
C        -0.03055330     0.01013647    -0.00656551     0.00007474     0.00003039    -0.00028610
N        -0.05075391    -0.05221051     1.31982489     0.00019554     0.00010049     0.00033808
H         0.93185246     0.00800057    -0.54558884    -0.00083716    -0.00039281    -0.00028582
H         0.85396835    -0.10662043     1.85611025    -0.00179873    -0.00039877    -0.00069292
H        -0.90305627    -0.08592699     1.86077896    -0.00078166    -0.00088274     0.00017594
H        -1.02633817     0.11951502    -0.54177164    -0.00019040    -0.00008433    -0.00048609
     6
  Step:     6            Position(A)                                  Velocity(au)
C        -0.02978886     0.01047099    -0.00982098     0.00006212     0.00003056    -0.00030320
N        -0.04849377    -0.05111110     1.32366007     0.00020822     0.00010128     0.00035646
H         0.92281529     0.00370766    -0.54946130    -0.00078852    -0.00039314    -0.00043558
H         0.83349221    -0.11091964     1.84835497    -0.00185112    -0.00039352    -0.00066710
H        -0.91252208    -0.09574317     1.86356054    -0.00090840    -0.00091244     0.00030404
H        -1.02787711     0.11865873    -0.54742758    -0.00008576    -0.00007252    -0.00054183
