|===============================================================================
|
|  DFTB+ release 20.1
|
|  Copyright (C) 2006 - 2020  DFTB+ developers group
|
|===============================================================================
|
|  When publishing results obtained with DFTB+, please cite the following
|  reference:
|
|  * DFTB+, a software package for efficient approximate density functional
|    theory based atomistic simulations, J. Chem. Phys. 152, 124101 (2020).
|    [doi: 10.1063/1.5143190]
|
|  You should also cite additional publications crediting the parametrization
|  data you use. Please consult the documentation of the SK-files for the
|  references.
|
|===============================================================================

Reading input file 'dftb_in.hsd'
Parser version: 8

--------------------------------------------------------------------------------
Reading SK-files:
Done.


Processed input in HSD format written to 'dftb_pin.hsd'

Starting initialization...
--------------------------------------------------------------------------------
OpenMP threads:              1
Chosen random seed:          502910503
Mode:                        Static calculation
Self consistent charges:     Yes
SCC-tolerance:                 0.100000E-05
Max. scc iterations:                   1000
Shell resolved Hubbard:      No
Spin polarisation:           No
Nr. of up electrons:            16.000000
Nr. of down electrons:          16.000000
Periodic boundaries:         No
Electronic solver:           Relatively robust
Maximal SCC-cycles:                    1000
Initial charges:             Set automatically (system chrg:   0.100E+01)
Included shells:             C:  s, p
                             H:  s
                             N:  s, p
Spin coupling constants:     C   1(s)-1(s):  -0.455900E-01
                             C   1(s)-2(p):  -0.293000E-01
                             C   2(p)-1(s):  -0.293000E-01
                             C   2(p)-2(p):  -0.275500E-01
                             H   1(s)-1(s):  -0.792500E-01
                             N   1(s)-1(s):  -0.468700E-01
                             N   1(s)-2(p):  -0.317000E-01
                             N   2(p)-1(s):  -0.317000E-01
                             N   2(p)-2(p):  -0.307200E-01
Range separated hybrid:      Yes
  Screening parameter omega:   0.300000E+00
  Range separated algorithm:   MatrixBased
Extra options:
                             Mulliken analysis
                             Force calculation
Force type                   original
                             Eigenvector printing


REKS Calcuation:             Yes
SSR(2,2) Calcuation:         Yes
Energy Functional:           (PPS+OSS)/2
Number of Core Orbitals:                 15
Number of Active Orbitals:                2
Number of Basis:                         32
Number of States:                         2
State-Averaging Weight:          0.500000
                                 0.500000
State of Interest:                        1
Initial Guess:               Diagonalize H0 matrix
Newton-Raphson for FON opt:  Yes
NR max. Iterations:                      50
Level Shifting:              Yes
Shift Value:                     0.300000
W Scale Factor:              C  =    3.200000
                             H  =    3.200000
                             N  =    3.200000
Transition Dipole:           No
Gradient of Microstate:      No
CP-REKS Solver:              Preconditioned Conjugate-Gradient
CG max. Iterations:                     100
CG Tolerance:                  0.100000E-07
Memory for A and Hxc:        Direct Updating Without Saving
Non-Adiabatic Coupling:      Yes

--------------------------------------------------------------------------------

***  Geometry step: 0

  iSCC       reks energy        Diff energy         x_a       SCC error   
    1      -16.4197888084       0.0000000000     0.999354    1.18607612
    2      -16.4305016764      -0.0107128680     0.999817    0.03323244
    3      -16.4330951264      -0.0025934500     0.999904    0.01215744
    4      -16.4341566279      -0.0010615015     0.999938    0.00822572
    5      -16.4346776709      -0.0005210430     0.999956    0.00641073
    6      -16.4349563645      -0.0002786936     0.999965    0.00491246
    7      -16.4351124957      -0.0001561313     0.999971    0.00373813
    8      -16.4352026971      -0.0000902014     0.999975    0.00283955
    9      -16.4352561600      -0.0000534629     0.999977    0.00216055
   10      -16.4352886260      -0.0000324660     0.999979    0.00165055
   11      -16.4353088187      -0.0000201927     0.999980    0.00126818
   12      -16.4353216756      -0.0000128569     0.999981    0.00098116
   13      -16.4353300470      -0.0000083714     0.999981    0.00076502
   14      -16.4353356123      -0.0000055653     0.999982    0.00060147
   15      -16.4353393823      -0.0000037700     0.999982    0.00047694
   16      -16.4353419788      -0.0000025965     0.999983    0.00038146
   17      -16.4353437929      -0.0000018142     0.999983    0.00030768
   18      -16.4353450762      -0.0000012833     0.999983    0.00026451
   19      -16.4353459935      -0.0000009173     0.999983    0.00023339
   20      -16.4353466549      -0.0000006615     0.999983    0.00020480
   21      -16.4353471355      -0.0000004806     0.999983    0.00017896
   22      -16.4353474869      -0.0000003514     0.999983    0.00015587
   23      -16.4353477451      -0.0000002583     0.999983    0.00013542
   24      -16.4353479358      -0.0000001907     0.999983    0.00011744
   25      -16.4353480772      -0.0000001414     0.999984    0.00010170
   26      -16.4353481824      -0.0000001052     0.999984    0.00008798
   27      -16.4353482609      -0.0000000785     0.999984    0.00007606
   28      -16.4353483196      -0.0000000587     0.999984    0.00006572
   29      -16.4353483636      -0.0000000440     0.999984    0.00005677
   30      -16.4353483966      -0.0000000331     0.999984    0.00004904
   31      -16.4353484215      -0.0000000249     0.999984    0.00004236
   32      -16.4353484403      -0.0000000188     0.999984    0.00003659
   33      -16.4353484544      -0.0000000142     0.999984    0.00003161
   34      -16.4353484651      -0.0000000107     0.999984    0.00002732
   35      -16.4353484732      -0.0000000081     0.999984    0.00002362
   36      -16.4353484794      -0.0000000061     0.999984    0.00002042
   37      -16.4353484840      -0.0000000047     0.999984    0.00001767
   38      -16.4353484875      -0.0000000035     0.999984    0.00001529
   39      -16.4353484902      -0.0000000027     0.999984    0.00001324
   40      -16.4353484923      -0.0000000020     0.999984    0.00001146
   41      -16.4353484938      -0.0000000015     0.999984    0.00000993
   42      -16.4353484950      -0.0000000012     0.999984    0.00000861
   43      -16.4353484959      -0.0000000009     0.999984    0.00000747
   44      -16.4353484966      -0.0000000007     0.999984    0.00000648
   45      -16.4353484971      -0.0000000005     0.999984    0.00000562
   46      -16.4353484975      -0.0000000004     0.999984    0.00000488
   47      -16.4353484978      -0.0000000003     0.999984    0.00000424
   48      -16.4353484980      -0.0000000002     0.999984    0.00000368
   49      -16.4353484982      -0.0000000002     0.999984    0.00000320
   50      -16.4353484983      -0.0000000001     0.999984    0.00000278
   51      -16.4353484984      -0.0000000001     0.999984    0.00000242
   52      -16.4353484985      -0.0000000001     0.999984    0.00000211
   53      -16.4353484986      -0.0000000001     0.999984    0.00000183
   54      -16.4353484986      -0.0000000000     0.999984    0.00000160
   55      -16.4353484986      -0.0000000000     0.999984    0.00000139
   56      -16.4353484987      -0.0000000000     0.999984    0.00000121
   57      -16.4353484987      -0.0000000000     0.999984    0.00000105
   58      -16.4353484987      -0.0000000000     0.999984    0.00000092
  
--------------------------------------------------
 Final SA-REKS(2,2) energy:     -16.43534850
  
 State     Energy      FON(1)    FON(2)   Spin
  PPS  -16.49473181   1.999968  0.000032  0.00
  OSS  -16.37596519   1.000000  1.000000  0.00
 Trip  -16.41440542   1.000000  1.000000  1.00
--------------------------------------------------

 Lagrangian Wab:  -0.00359562 -0.00359513

--------------------------------------------------
 SSR: 2SI-2SA-REKS(2,2) Hamiltonian matrix
               PPS           OSS
   PPS   -16.49473181   -0.00506447
   OSS    -0.00506447  -16.37596519
--------------------------------------------------

----------------------------------------------------------------
 SSR: 2SI-2SA-REKS(2,2) states
                    E_n       C_{PPS}    C_{OSS}
 SSR state  1  -16.49494738  -0.999095  -0.042526
 SSR state  2  -16.37574962   0.042526  -0.999095
----------------------------------------------------------------

 unrelaxed SSR FONs for S0:  1.998159  0.001841

Total Energy:                      -16.4949473793 H         -448.8504 eV
Extrapolated to 0:                 -16.4949473793 H         -448.8504 eV

----------------------------------------------------------------------------------
 Solving CP-REKS equation for  1 state vector...
----------------------------------------------------------------------------------
  CG solver: Constructing Y initial guess
  CG solver: Iteration    1    eps =    0.000062282484
  CG solver: Iteration    2    eps =    0.000011675394
  CG solver: Iteration    3    eps =    0.000004701735
  CG solver: Iteration    4    eps =    0.000002785021
  CG solver: Iteration    5    eps =    0.000000414504
  CG solver: Iteration    6    eps =    0.000000138935
  CG solver: Iteration    7    eps =    0.000000017389
  CG solver: Iteration    8    eps =    0.000000006446
  Convergence reached in CG solver after    8 iterations
  CG solver: Calculating converged R, Z, Q2 matrix
----------------------------------------------------------------------------------

----------------------------------------------------------------------------------
 Solving CP-REKS equation for SI between  1 and  2 state vectors...
----------------------------------------------------------------------------------
  CG solver: Constructing Y initial guess
  CG solver: Iteration    1    eps =    0.042731036459
  CG solver: Iteration    2    eps =    0.003148765501
  CG solver: Iteration    3    eps =    0.001292217096
  CG solver: Iteration    4    eps =    0.000094461967
  CG solver: Iteration    5    eps =    0.000019626073
  CG solver: Iteration    6    eps =    0.000002756360
  CG solver: Iteration    7    eps =    0.000000132367
  CG solver: Iteration    8    eps =    0.000000030651
  CG solver: Iteration    9    eps =    0.000000013270
  CG solver: Iteration   10    eps =    0.000000001387
  Convergence reached in CG solver after   10 iterations
  CG solver: Calculating converged R, Z, Q2 matrix
----------------------------------------------------------------------------------

--------------------------------------------------
 Gradient Information
--------------------------------------------------
           1 st state (SSR)
     0.00827911     0.00251443     0.02651460
     0.01686883    -0.05140788    -0.00639642
    -0.01380325     0.01077423    -0.03891150
    -0.01747578     0.01751600     0.01934183
     0.00900867     0.01698934    -0.01977569
    -0.03551097    -0.01735070    -0.01240759
     0.02096935    -0.03360766     0.01858349
    -0.00342712    -0.00518477    -0.00538397
    -0.01948143     0.03185599    -0.01203126
    -0.01742355    -0.00610806     0.00518324
    -0.00499613    -0.00514560     0.02608723
     0.02492115     0.04294718    -0.01508297
     0.01756477    -0.00235403    -0.00323296
     0.01450635    -0.00143848     0.01751197

           2 st state (SSR)
     0.03214484    -0.00298104     0.01899430
    -0.00273127    -0.06075994    -0.00573680
    -0.01316450     0.01067789    -0.03870323
    -0.01662418     0.01592134     0.01808282
     0.00802380     0.01982156    -0.01914730
    -0.01003593     0.02776105     0.02161776
    -0.00767213    -0.05598951     0.00637360
    -0.00324510    -0.00441062    -0.00563222
    -0.00927253     0.02649400    -0.01745033
     0.01102710     0.02593836    -0.00495411
    -0.00192196    -0.00821273     0.02654501
    -0.01772456     0.00185920    -0.01641009
     0.01726824     0.00098440    -0.00070880
     0.01392819     0.00289604     0.01712939
--------------------------------------------------
 Coupling Information
--------------------------------------------------
 between  1 and  2 states
--------------------------------------------------
 g vector - difference gradient
    -0.01088088     0.00234902     0.00373617
     0.00837228     0.00508657    -0.00029835
    -0.00025008     0.00013345    -0.00006817
    -0.00049896     0.00058261     0.00056646
     0.00045898    -0.00117035    -0.00028155
    -0.01608105    -0.02537911    -0.01728347
     0.01885758     0.01425903     0.00790149
     0.00005012    -0.00045566     0.00007369
    -0.00504368     0.00280276     0.00284353
    -0.01379821    -0.01511384     0.00337501
    -0.00140419     0.00134404    -0.00022862
     0.01967549     0.01901022     0.00062677
     0.00017773    -0.00145535    -0.00105867
     0.00036487    -0.00199337     0.00009572

 h vector - derivative coupling
    -0.01284291     0.00479207     0.00044126
     0.01715846    -0.00461470    -0.00038294
    -0.00082613    -0.00099782    -0.00042616
     0.00083967     0.00255169     0.00076601
     0.00041327    -0.00294192    -0.00039612
     0.03866231     0.03214373     0.00245108
    -0.05258707    -0.03549864    -0.02080545
    -0.00165872     0.00078774     0.00059669
    -0.00092979    -0.00131368    -0.00145576
    -0.00561362    -0.01134480     0.02007481
    -0.00162366     0.00228753    -0.00001299
     0.02022370     0.01885865     0.00045963
    -0.00033913    -0.00257870    -0.00243880
    -0.00087638    -0.00213117     0.00112875

 G vector - GDV
    -0.01193287     0.00274774     0.00376015
     0.00980005     0.00467603    -0.00032981
    -0.00031937     0.00004817    -0.00010414
    -0.00042580     0.00079733     0.00062950
     0.00049244    -0.00141611    -0.00031419
    -0.01273752    -0.02255587    -0.01701267
     0.01432074     0.01119093     0.00610495
    -0.00009101    -0.00038708     0.00012413
    -0.00510445     0.00268099     0.00270954
    -0.01422533    -0.01602321     0.00506868
    -0.00153708     0.00153356    -0.00022889
     0.02132285     0.02054399     0.00066356
     0.00014827    -0.00166921    -0.00126208
     0.00028908    -0.00216726     0.00019129

 H vector - DCV - non-adiabatic coupling
    -0.09959788     0.03838269     0.00102498
     0.13746028    -0.04220086    -0.00298833
    -0.00672741    -0.00843598    -0.00351371
     0.00737457     0.02091446     0.00599928
     0.00312732    -0.02375739    -0.00311051
     0.33464534     0.28678455     0.03281012
    -0.45302277    -0.30690100    -0.17954724
    -0.01390107     0.00690961     0.00493522
    -0.00417653    -0.01297922    -0.01419595
    -0.03708792    -0.08405736     0.16540076
    -0.01257127     0.01816350     0.00005443
     0.15502476     0.14408852     0.00339524
    -0.00296154    -0.02051800    -0.01963137
    -0.00758587    -0.01639352     0.00936708
--------------------------------------------------


--------------------------------------------------------------------------------
DFTB+ running times                          cpu [s]             wall clock [s]
--------------------------------------------------------------------------------
SCC                                    +     0.09  ( 25.2%)      0.09  ( 25.3%)
      Dense to sparse                        0.02  (  4.4%)      0.01  (  3.5%)
  Density matrix creation                    0.01  (  2.5%)      0.01  (  2.7%)
Post-SCC processing                    +     0.27  ( 74.1%)      0.27  ( 73.1%)
  Force calculation                          0.27  ( 73.9%)      0.27  ( 72.3%)
--------------------------------------------------------------------------------
Missing                                +     0.00  (  0.8%)      0.01  (  1.6%)
Total                                  =     0.37  (100.0%)      0.38  (100.0%)
--------------------------------------------------------------------------------
