 Fermi distribution function

Calculation with static geometry


********************************************************************************
 iSCC Total electronic   Diff electronic      SCC error    
   10   -0.53882473E+01   -0.29132252E-12    0.72315872E-07
********************************************************************************

 Total charge:     1.00000000

 Atomic gross charges (e)
 Atom           Charge
    1       0.15202763
    2      -0.05151831
    3       0.21002529
    4       0.28063240
    5       0.27083851
    6       0.13799447

Nr. of electrons (up):     12.00000000
Atom populations (up)
 Atom       Population
    1       3.84797237
    2       5.05151831
    3       0.78997471
    4       0.71936760
    5       0.72916149
    6       0.86200553

l-shell populations (up)
 Atom Sh.   l       Population
    1   1   0       1.32759762
    1   2   1       2.52037475
    2   1   0       1.43732523
    2   2   1       3.61419307
    3   1   0       0.78997471
    4   1   0       0.71936760
    5   1   0       0.72916149
    6   1   0       0.86200553

Orbital populations (up)
 Atom Sh.   l   m       Population  Label
    1   1   0   0       1.32759762  s
    1   2   1  -1       0.59053958  p_y
    1   2   1   0       0.87665638  p_z
    1   2   1   1       1.05317879  p_x
    2   1   0   0       1.43732523  s
    2   2   1  -1       1.29406205  p_y
    2   2   1   0       1.10299002  p_z
    2   2   1   1       1.21714101  p_x
    3   1   0   0       0.78997471  s
    4   1   0   0       0.71936760  s
    5   1   0   0       0.72916149  s
    6   1   0   0       0.86200553  s

Fermi level:                        -0.4989270188 H          -13.5765 eV
Band energy:                        -8.9143974554 H         -242.5731 eV
TS:                                  0.0000000000 H            0.0000 eV
Band free energy (E-TS):            -8.9143974554 H         -242.5731 eV
Extrapolated E(0K):                 -8.9143974554 H         -242.5731 eV
Input / Output electrons (q):     12.0000000000     12.0000000000

Energy H0:                          -5.5220879473 H         -150.2637 eV
Energy SCC:                          0.1338406260 H            3.6420 eV
Total Electronic energy:            -5.3882473214 H         -146.6217 eV
Repulsive energy:                    0.1838360338 H            5.0024 eV
Total energy:                       -5.2044112876 H         -141.6192 eV
Extrapolated to 0:                  -5.2044112876 H         -141.6192 eV
Total Mermin free energy:           -5.2044112876 H         -141.6192 eV
Force related energy:               -5.2044112876 H         -141.6192 eV

SCC converged

Excitation Energy:                   0.1195167826 H            3.2522 eV

Total Forces
    1     -0.000042366314      0.015299717597      0.042221900487
    2      0.011275552073     -0.016649915534     -0.037176705882
    3     -0.003724071631      0.003390746555     -0.004977211873
    4     -0.014411741171      0.000399617232      0.001626409893
    5      0.005785867792      0.005575917609     -0.000016055568
    6      0.001116759251     -0.008016083460     -0.001678337056

Maximal derivative component:        0.422219E-01 au


