|===============================================================================
|
|  DFTB+ release 20.1
|
|  Copyright (C) 2006 - 2020  DFTB+ developers group
|
|===============================================================================
|
|  When publishing results obtained with DFTB+, please cite the following
|  reference:
|
|  * DFTB+, a software package for efficient approximate density functional
|    theory based atomistic simulations, J. Chem. Phys. 152, 124101 (2020).
|    [doi: 10.1063/1.5143190]
|
|  You should also cite additional publications crediting the parametrization
|  data you use. Please consult the documentation of the SK-files for the
|  references.
|
|===============================================================================

Reading input file 'dftb_in.hsd'
Parser version: 8

--------------------------------------------------------------------------------
Reading SK-files:
Done.


Processed input in HSD format written to 'dftb_pin.hsd'

Starting initialization...
--------------------------------------------------------------------------------
WARNING!
-> Excited state forces are not implemented yet for fractional occupations, kT=  0.3158E-02K
OpenMP threads:              1
Chosen random seed:          435512319
Mode:                        Static calculation
Self consistent charges:     Yes
SCC-tolerance:                 0.100000E-05
Max. scc iterations:                    100
Shell resolved Hubbard:      No
Spin polarisation:           No
Nr. of up electrons:             6.000000
Nr. of down electrons:           6.000000
Periodic boundaries:         No
Electronic solver:           Relatively robust
Mixer:                       Broyden mixer
Mixing parameter:                  0.200000
Maximal SCC-cycles:                     100
Nr. of chrg. vec. in memory:              0
Electronic temperature:        0.100000E-07 H      0.272114E-06 eV
Initial charges:             Set automatically (system chrg:   0.100E+01)
Included shells:             C:  s, p
                             N:  s, p
                             H:  s
Extra options:
                             Mulliken analysis
                             Force calculation
Force type                   original
                             Eigenvector printing

--------------------------------------------------------------------------------

***  Geometry step: 0

 iSCC Total electronic   Diff electronic      SCC error    
    1   -0.53815835E+01    0.00000000E+00    0.65353509E+00
    2   -0.53853857E+01   -0.38021895E-02    0.44193425E+00
    3   -0.53879337E+01   -0.25480130E-02    0.79278862E-01
    4   -0.53882374E+01   -0.30360783E-03    0.21960599E-01
    5   -0.53882455E+01   -0.81212306E-05    0.43731589E-02
    6   -0.53882473E+01   -0.18360756E-05    0.55340418E-03
    7   -0.53882473E+01   -0.66993522E-08    0.65857273E-04
    8   -0.53882473E+01   -0.16838619E-09    0.11548129E-04
    9   -0.53882473E+01   -0.49524829E-11    0.15791238E-05
   10   -0.53882473E+01   -0.29132252E-12    0.72315872E-07
>> Charges saved for restart in charges.bin

Total Energy:                       -5.0848945049 H         -138.3670 eV
Extrapolated to 0:                  -5.2044112876 H         -141.6192 eV
Total Mermin free energy:           -5.0848945049 H         -138.3670 eV
Force related energy:               -5.2044112876 H         -141.6192 eV

--------------------------------------------------------------------------------
DFTB+ running times                          cpu [s]             wall clock [s]
--------------------------------------------------------------------------------
SCC                                    +     0.01  ( 49.8%)      0.04  ( 48.3%)
Post-SCC processing                    +     0.01  ( 44.0%)      0.04  ( 46.0%)
--------------------------------------------------------------------------------
Missing                                +     0.00  (  6.2%)      0.00  (  5.7%)
Total                                  =     0.02  (100.0%)      0.09  (100.0%)
--------------------------------------------------------------------------------
