     6
  Step:     0            Position(A)                                  Velocity(au)
C        -0.04085660     0.01249666     0.02309426     0.00006330    -0.00013217     0.00032013
N        -0.04175321    -0.06329773     1.28520924    -0.00005968     0.00006698    -0.00030177
H         0.94218853     0.03724353    -0.49756699    -0.00040504     0.00025113    -0.00014896
H         0.77717042    -0.07802422     1.82658189     0.00052716     0.00005701     0.00075291
H        -0.91800314     0.00162827     1.93477914     0.00021641    -0.00029168    -0.00031259
H        -0.94722655     0.10007152    -0.50666453    -0.00026352     0.00062767     0.00008740
     6
  Step:     1            Position(A)                                  Velocity(au)
C        -0.04048149     0.01178261     0.02468242     0.00007347    -0.00012894     0.00025866
N        -0.04214960    -0.06294377     1.28374229    -0.00008403     0.00006238    -0.00023252
H         0.94002773     0.03863600    -0.49856578    -0.00038438     0.00025825    -0.00021673
H         0.78070000    -0.07771644     1.83115946     0.00074750     0.00005599     0.00090978
H        -0.91639488     0.00002582     1.93268258     0.00036925    -0.00029428    -0.00045240
H        -0.94916530     0.10356336    -0.50668649    -0.00044009     0.00064958    -0.00009165
     6
  Step:     2            Position(A)                                  Velocity(au)
C        -0.04005307     0.01108645     0.02592325     0.00008273    -0.00012568     0.00019346
N        -0.04267231    -0.06261547     1.28266608    -0.00010567     0.00005763    -0.00015926
H         0.93798448     0.04006810    -0.49993745    -0.00036251     0.00026571    -0.00028531
H         0.78534605    -0.07741189     1.83653236     0.00093355     0.00005589     0.00104238
H        -0.91396460    -0.00159037     1.92983113     0.00051559    -0.00029672    -0.00058743
H        -0.95203991     0.10717617    -0.50766696    -0.00060399     0.00067188    -0.00026186
     6
  Step:     3            Position(A)                                  Velocity(au)
C        -0.03957685     0.01040823     0.02679797     0.00009089    -0.00012240     0.00012511
N        -0.04330514    -0.06231356     1.28200075    -0.00012415     0.00005276    -0.00008266
H         0.93606355     0.04154165    -0.50168575    -0.00034002     0.00027346    -0.00035444
H         0.79090860    -0.07710525     1.84255815     0.00108167     0.00005678     0.00114774
H        -0.91075681    -0.00321890     1.92625886     0.00065206    -0.00029877    -0.00071470
H        -0.95577011     0.11091055    -0.50954999    -0.00075154     0.00069392    -0.00042073
     6
  Step:     4            Position(A)                                  Velocity(au)
C        -0.03905925     0.00974807     0.02729117     0.00009781    -0.00011908     0.00005429
N        -0.04402980    -0.06203862     1.28176225    -0.00013912     0.00004779    -0.00000361
H         0.93426666     0.04305819    -0.50381298    -0.00031742     0.00028141    -0.00042379
H         0.79717312    -0.07679102     1.84908187     0.00118987     0.00005866     0.00122403
H        -0.90683493    -0.00485721     1.92201654     0.00077495    -0.00030020    -0.00083094
H        -0.96025739     0.11476364    -0.51226725    -0.00087967     0.00071503    -0.00056612
     6
  Step:     5            Position(A)                                  Velocity(au)
C        -0.03850739     0.00910614     0.02739159     0.00010337    -0.00011571    -0.00001814
N        -0.04482632    -0.06179106     1.28196129    -0.00015029     0.00004275     0.00007681
H         0.93259276     0.04461873    -0.50631962    -0.00029519     0.00028944    -0.00049294
H         0.80391907    -0.07646381     1.85594214     0.00125767     0.00006149     0.00127054
H        -0.90228323    -0.00650142     1.91717304     0.00088021    -0.00030075    -0.00093267
H        -0.96538869     0.11872897    -0.51574017    -0.00098598     0.00073452    -0.00069630
     6
  Step:     6            Position(A)                                  Velocity(au)
C        -0.03792879     0.00848268     0.02709284     0.00010751    -0.00011227    -0.00009117
N        -0.04567341    -0.06157113     1.28260229    -0.00015745     0.00003768     0.00015733
H         0.93103840     0.04622359    -0.50920385    -0.00027375     0.00029740    -0.00056138
H         0.81092732    -0.07611860     1.86297683     0.00128589     0.00006516     0.00128757
H        -0.89720871    -0.00814626     1.91181661     0.00096350    -0.00030015    -0.00101621
H        -0.97104030     0.12279657    -0.51988215    -0.00106884     0.00075174    -0.00080993
     6
  Step:     7            Position(A)                                  Velocity(au)
C        -0.03733123     0.00787795     0.02639414     0.00011021    -0.00010876    -0.00016371
N        -0.04654880    -0.06137887     1.28368249    -0.00016042     0.00003262     0.00023654
H         0.92959795     0.04787229    -0.51246114    -0.00025347     0.00030513    -0.00062855
H         0.81798681    -0.07575094     1.87002818     0.00127647     0.00006957     0.00127628
H        -0.89174243    -0.00978510     1.90605562     0.00102037    -0.00029817    -0.00107787
H        -0.97708184     0.12695308    -0.52460083    -0.00112731     0.00076609    -0.00090608
     6
  Step:     8            Position(A)                                  Velocity(au)
C        -0.03672250     0.00729226     0.02530084     0.00011147    -0.00010518    -0.00023457
N        -0.04742940    -0.06121409     1.28519137    -0.00015911     0.00002762     0.00031294
H         0.92826395     0.04956344    -0.51608382    -0.00023468     0.00031244    -0.00069381
H         0.82489932    -0.07535714     1.87694680     0.00123218     0.00007455     0.00123859
H        -0.88603989    -0.01140996     1.90001840     0.00104644    -0.00029457    -0.00111413
H        -0.98337962     0.13118207    -0.52979997    -0.00116112     0.00077705    -0.00098423
     6
  Step:     9            Position(A)                                  Velocity(au)
C        -0.03611029     0.00672591     0.02382474     0.00011133    -0.00010153    -0.00030254
N        -0.04829164    -0.06107638     1.28711026    -0.00015347     0.00002272     0.00038504
H         0.92702741     0.05129465    -0.52006078    -0.00021762     0.00031918    -0.00075649
H         0.83148350    -0.07493434     1.88359507     0.00115650     0.00007995     0.00117697
H        -0.88028019    -0.01301166     1.89385201     0.00103777    -0.00028917    -0.00112190
H        -0.98980018     0.13546449    -0.53538156    -0.00117067     0.00078418    -0.00104423
     6
  Step:    10            Position(A)                                  Velocity(au)
C        -0.03550200     0.00617917     0.02198413     0.00010986    -0.00009783    -0.00036643
N        -0.04911184    -0.06096505     1.28941256    -0.00014352     0.00001797     0.00045142
H         0.92587819     0.05306260    -0.52437730    -0.00020248     0.00032516    -0.00081594
H         0.83757805    -0.07448061     1.88984997     0.00105337     0.00008560     0.00109436
H        -0.87466270    -0.01458019     1.88771896     0.00099127    -0.00028187    -0.00109890
H        -0.99621376     0.13977913    -0.54124798    -0.00115694     0.00078719    -0.00108636
     6
  Step:    11            Position(A)                                  Velocity(au)
C        -0.03490467     0.00565225     0.01980349     0.00010714    -0.00009410    -0.00042516
N        -0.04986661    -0.06087919     1.29206428    -0.00012940     0.00001342     0.00051084
H         0.92480531     0.05486302    -0.52901507    -0.00018940     0.00033023    -0.00087149
H         0.84304350    -0.07399496     1.89560487     0.00092709     0.00009132     0.00099401
H        -0.86940174    -0.01610501     1.88179240     0.00090509    -0.00027264    -0.00104394
H        -1.00249676     0.14410330    -0.54730357    -0.00112138     0.00078587    -0.00111118
     6
  Step:    12            Position(A)                                  Velocity(au)
C        -0.03432486     0.00514532     0.01731293     0.00010327    -0.00009034    -0.00047780
N        -0.05053349    -0.06081762     1.29502507    -0.00011137     0.00000911     0.00056227
H         0.92379730     0.05669077    -0.53395224    -0.00017842     0.00033426    -0.00092257
H         0.84776381    -0.07347728     1.90077102     0.00078213     0.00009696     0.00087938
H        -0.86471858    -0.01757564     1.87624932     0.00077913    -0.00026155    -0.00095726
H        -1.00853419     0.14841339    -0.55345640    -0.00106587     0.00078017    -0.00111961
     6
  Step:    13            Position(A)                                  Velocity(au)
C        -0.03376862     0.00465843     0.01454738     0.00009836    -0.00008659    -0.00052359
N        -0.05109172    -0.06077892     1.29824958    -0.00008984     0.00000510     0.00060499
H         0.92284259     0.05854004    -0.53916382    -0.00016954     0.00033714    -0.00096865
H         0.85164736    -0.07292831     1.90527855     0.00062310     0.00010238     0.00075405
H        -0.86083088    -0.01898223     1.87126196     0.00061531    -0.00024880    -0.00084073
H        -1.01422188     0.15268560    -0.55961988    -0.00099260     0.00077014    -0.00111279
     6
  Step:    14            Position(A)                                  Velocity(au)
C        -0.03324137     0.00419156     0.01154551     0.00009253    -0.00008285    -0.00056199
N        -0.05152306    -0.06076145     1.30168913    -0.00006537     0.00000141     0.00063861
H         0.92192978     0.06040438    -0.54462200    -0.00016270     0.00033879    -0.00100932
H         0.85462726    -0.07234951     1.90907691     0.00045457     0.00010746     0.00062159
H        -0.85794088    -0.02031620     1.86698862     0.00041779    -0.00023469    -0.00069790
H        -1.01946777     0.15689658    -0.56571391    -0.00090396     0.00075596    -0.00109210
     6
  Step:    15            Position(A)                                  Velocity(au)
C        -0.03274798     0.00374461     0.00834857     0.00008589    -0.00007915    -0.00059267
N        -0.05181272    -0.06076333     1.30529352    -0.00003867    -0.00000191     0.00066305
H         0.92104799     0.06227696    -0.55029672    -0.00015778     0.00033917    -0.00104425
H         0.85666132    -0.07174297     1.91213482     0.00028106     0.00011211     0.00048555
H        -0.85622254    -0.02157084     1.86356404     0.00019300    -0.00021960    -0.00053397
H        -1.02419272     0.16102397    -0.57166588    -0.00080246     0.00073789    -0.00105903
     6
  Step:    16            Position(A)                                  Velocity(au)
C        -0.03229267     0.00331737     0.00499916     0.00007856    -0.00007550    -0.00061555
N        -0.05195017    -0.06078251     1.30901281    -0.00001060    -0.00000483     0.00067856
H         0.92018708     0.06415067    -0.55615618    -0.00015461     0.00033825    -0.00107322
H         0.85773176    -0.07111125     1.91444006     0.00010699     0.00011624     0.00034935
H        -0.85580913    -0.02274181     1.86109063    -0.00005068    -0.00020402    -0.00035552
H        -1.02833129     0.16504694    -0.57741141    -0.00069065     0.00071628    -0.00101521
     6
  Step:    17            Position(A)                                  Velocity(au)
C        -0.03187901     0.00290956     0.00154010     0.00007067    -0.00007192    -0.00063071
N        -0.05192992    -0.06081679     1.31279889     0.00001790    -0.00000734     0.00068563
H         0.91933784     0.06601830    -0.56216742    -0.00015303     0.00033604    -0.00109613
H         0.85784471    -0.07045723     1.91599895    -0.00006340     0.00011983     0.00021628
H        -0.85678306    -0.02382745     1.85963173    -0.00030335    -0.00018844    -0.00017000
H        -1.03183187     0.16894664    -0.58289495    -0.00057106     0.00069155    -0.00096230
     6
  Step:    18            Position(A)                                  Velocity(au)
C        -0.03150995     0.00252081    -0.00198659     0.00006232    -0.00006843    -0.00063846
N        -0.05175193    -0.06086383     1.31660677     0.00004582    -0.00000942     0.00068498
H         0.91849216     0.06787267    -0.56829689    -0.00015281     0.00033258    -0.00111299
H         0.85702949    -0.06978403     1.91683557    -0.00022607     0.00012285     0.00008943
H        -0.85916902    -0.02482896     1.85920768    -0.00055437    -0.00017338     0.00001473
H        -1.03465632     0.17270650    -0.58806982    -0.00044611     0.00066416    -0.00090198
     6
  Step:    19            Position(A)                                  Velocity(au)
C        -0.03118780     0.00215068    -0.00554079     0.00005365    -0.00006503    -0.00063925
N        -0.05142181    -0.06092125     1.32039566     0.00007216    -0.00001106     0.00067748
H         0.91764307     0.06970681    -0.57451108    -0.00015376     0.00032793    -0.00112393
H         0.85533750    -0.06909480     1.91699076    -0.00037721     0.00012530    -0.00002834
H        -0.86293132    -0.02575031     1.85979508    -0.00079306    -0.00015932     0.00019105
H        -1.03677942     0.17631253    -0.59289834    -0.00031808     0.00063462    -0.00083589
     6
  Step:    20            Position(A)                                  Velocity(au)
C        -0.03091426     0.00179866    -0.00908503     0.00004475    -0.00006176    -0.00063370
N        -0.05095060    -0.06098660     1.32412963     0.00009604    -0.00001226     0.00066408
H         0.91678483     0.07151409    -0.58077735    -0.00015566     0.00032219    -0.00112925
H         0.85284081    -0.06839263     1.91652082    -0.00051338     0.00012724    -0.00013446
H        -0.86797535    -0.02659805     1.86132919    -0.00100974    -0.00014667     0.00035222
H        -1.03818834     0.17975347    -0.59735180    -0.00018910     0.00060349    -0.00076570
     6
  Step:    21            Position(A)                                  Velocity(au)
C        -0.03069037     0.00146413    -0.01258533     0.00003574    -0.00005862    -0.00062252
N        -0.05035414    -0.06105753     1.32777797     0.00011669    -0.00001305     0.00064579
H         0.91591268     0.07328848    -0.58706451    -0.00015835     0.00031550    -0.00112937
H         0.84963044    -0.06768032     1.91549603    -0.00063152     0.00012873    -0.00022667
H        -0.87415621    -0.02738073     1.86371052    -0.00119650    -0.00013574     0.00049281
H        -1.03888161     0.18302124    -0.60141028    -0.00006108     0.00057137    -0.00069297
     6
  Step:    22            Position(A)                                  Velocity(au)
C        -0.03051658     0.00114637    -0.01601180     0.00002673    -0.00005565    -0.00060656
N        -0.04965221    -0.06113179     1.33131531     0.00013352    -0.00001345     0.00062360
H         0.91502282     0.07502468    -0.59334378    -0.00016170     0.00030803    -0.00112488
H         0.84581396    -0.06696030     1.91399872    -0.00072906     0.00012985    -0.00030311
H        -0.88128876    -0.02810838     1.86681271    -0.00134756    -0.00012675     0.00060905
H        -1.03886802     0.18611105    -0.60506240     0.00006435     0.00053888    -0.00061920
     6
  Step:    23            Position(A)                                  Velocity(au)
C        -0.03039277     0.00084451    -0.01933908     0.00001780    -0.00005286    -0.00058666
N        -0.04886743    -0.06120731     1.33472155     0.00014617    -0.00001350     0.00059846
H         0.91411219     0.07671829    -0.59958961    -0.00016560     0.00029996    -0.00111649
H         0.84151263    -0.06623445     1.91212105    -0.00080404     0.00013075    -0.00036236
H        -0.88916077    -0.02879204     1.87049206    -0.00145957    -0.00011983     0.00069885
H        -1.03816513     0.18902149    -0.60830480     0.00018587     0.00050664    -0.00054574
     6
  Step:    24            Position(A)                                  Velocity(au)
C        -0.03031829     0.00055757    -0.02254659     0.00000754    -0.00004643    -0.00061315
N        -0.04802408    -0.06128222     1.33798150     0.00015456    -0.00001618     0.00060970
H         0.91317822     0.07836596    -0.60578034    -0.00018810     0.00023682    -0.00106732
H         0.83685784    -0.06550392     1.90996239    -0.00087038     0.00019235    -0.00041633
H        -0.89754690    -0.02944319     1.87459722    -0.00151970    -0.00016358     0.00074581
H        -1.03679761     0.19175450    -0.61114137     0.00034051     0.00051257    -0.00042849
     6
  Step:    25            Position(A)                                  Velocity(au)
C        -0.03030882     0.00032722    -0.02616994    -0.00000417    -0.00003620    -0.00068862
N        -0.04714553    -0.06138760     1.34151398     0.00015881    -0.00002161     0.00065986
H         0.91201664     0.07935660    -0.61148020    -0.00022829     0.00013597    -0.00097468
H         0.83181612    -0.06409154     1.90748291    -0.00092865     0.00029460    -0.00046746
H        -0.90609114    -0.03061446     1.87880081    -0.00152633    -0.00023745     0.00074800
H        -1.03437163     0.19473186    -0.61307843     0.00052605     0.00053846    -0.00026983
     6
  Step:    26            Position(A)                                  Velocity(au)
C        -0.03036478     0.00015428    -0.03021875    -0.00001568    -0.00002607    -0.00076195
N        -0.04625471    -0.06152296     1.34533315     0.00015876    -0.00002680     0.00070903
H         0.91063474     0.07988088    -0.61663956    -0.00026605     0.00005893    -0.00087733
H         0.82651151    -0.06222168     1.90475425    -0.00096076     0.00036864    -0.00050193
H        -0.91455217    -0.03208867     1.88293095    -0.00149311    -0.00028471     0.00072393
H        -1.03093671     0.19775366    -0.61414767     0.00070058     0.00054010    -0.00011827
     6
  Step:    27            Position(A)                                  Velocity(au)
C        -0.03048352     0.00003678    -0.03465975    -0.00002661    -0.00001635    -0.00082845
N        -0.04537662    -0.06168616     1.34941419     0.00015425    -0.00003158     0.00075295
H         0.90905229     0.08001323    -0.62125560    -0.00029950    -0.00000726    -0.00078088
H         0.82111106    -0.05998412     1.90189026    -0.00096149     0.00042961    -0.00051486
H        -0.92272778    -0.03378679     1.88686699    -0.00142614    -0.00032074     0.00068042
H        -1.02656562     0.20074973    -0.61439625     0.00086073     0.00053211     0.00002390
     6
  Step:    28            Position(A)                                  Velocity(au)
C        -0.03066134    -0.00002792    -0.03945046    -0.00003681    -0.00000715    -0.00088701
N        -0.04453586    -0.06187492     1.35372351     0.00014544    -0.00003598     0.00079053
H         0.90729732     0.07979999    -0.62534118    -0.00032732    -0.00006632    -0.00068770
H         0.81579732    -0.05743437     1.89901700    -0.00092885     0.00048217    -0.00050474
H        -0.93044408    -0.03566274     1.89051310    -0.00133050    -0.00034984     0.00062162
H        -1.02134529     0.20368314    -0.61388131     0.00100416     0.00051912     0.00015502
     6
  Step:    29            Position(A)                                  Velocity(au)
C        -0.03089376    -0.00004291    -0.04454490    -0.00004614     0.00000147    -0.00093722
N        -0.04375576    -0.06208709     1.35822407     0.00013263    -0.00004000     0.00082136
H         0.90540459     0.07927413    -0.62891953    -0.00034838    -0.00012015    -0.00059942
H         0.81075963    -0.05461062     1.89626522    -0.00086234     0.00052888    -0.00047129
H        -0.93755530    -0.03768557     1.89379458    -0.00121125    -0.00037415     0.00055119
H        -1.01537495     0.20653496    -0.61266869     0.00112868     0.00050385     0.00027355
     6
  Step:    30            Position(A)                                  Velocity(au)
C        -0.03117554    -0.00001158    -0.04989595    -0.00005445     0.00000945    -0.00097898
N        -0.04305772    -0.06232078     1.36287770     0.00011619    -0.00004372     0.00084537
H         0.90341459     0.07846094    -0.63202183    -0.00036174    -0.00016987    -0.00051731
H         0.80618632    -0.05153992     1.89376442    -0.00076287     0.00057143    -0.00041521
H        -0.94394367    -0.03983276     1.89665620    -0.00107337    -0.00039489     0.00047248
H        -1.00876593     0.20929859    -0.61083258     0.00123214     0.00048824     0.00037803
     6
  Step:    31            Position(A)                                  Velocity(au)
C        -0.03150064     0.00006239    -0.05545655    -0.00006161     0.00001674    -0.00101235
N        -0.04246069    -0.06257437     1.36764651     0.00009663    -0.00004716     0.00086267
H         0.90137260     0.07738076    -0.63468547    -0.00036664    -0.00021624    -0.00044235
H         0.80225667    -0.04824144     1.89163727    -0.00063277     0.00061108    -0.00033822
H        -0.94951904    -0.04208696     1.89906083    -0.00092171    -0.00041280     0.00038861
H        -1.00164160     0.21197692    -0.60845515     0.00131239     0.00047386     0.00046710
     6
  Step:    32            Position(A)                                  Velocity(au)
C        -0.03186226     0.00017503    -0.06118040    -0.00006746     0.00002330    -0.00103747
N        -0.04198059    -0.06284651     1.37249376     0.00007454    -0.00005039     0.00087353
H         0.89932770     0.07605061    -0.63695266    -0.00036247    -0.00025974    -0.00037529
H         0.79913291    -0.04472833     1.88999437    -0.00047583     0.00064871    -0.00024294
H        -0.95421777    -0.04443412     1.90098794    -0.00076091    -0.00042836     0.00030243
H        -0.99413699     0.21458058    -0.60562595     0.00136729     0.00046199     0.00053942
     6
  Step:    33            Position(A)                                  Velocity(au)
C        -0.03225271     0.00032212    -0.06702226    -0.00007185     0.00002908    -0.00105453
N        -0.04162976    -0.06313613     1.37738461     0.00005059    -0.00005344     0.00087828
H         0.89733176     0.07448519    -0.63886916    -0.00034883    -0.00030074    -0.00031663
H         0.79695206    -0.04100961     1.88892901    -0.00029730     0.00068495    -0.00013291
H        -0.95800169    -0.04686229     1.90243230    -0.00059546    -0.00044188     0.00021656
H        -0.98639908     0.21712715    -0.60244165     0.00139472     0.00045379     0.00059379
     6
  Step:    34            Position(A)                                  Velocity(au)
C        -0.03266339     0.00049924    -0.07293811    -0.00007462     0.00003403    -0.00106374
N        -0.04141650    -0.06344237     1.38228642     0.00002557    -0.00005634     0.00087736
H         0.89543835     0.07269746    -0.64048303    -0.00032553    -0.00033946    -0.00026671
H         0.79581807    -0.03709125     1.88851243    -0.00010376     0.00072019    -0.00001245
H        -0.96085702    -0.04936099     1.90340256    -0.00042960    -0.00045356     0.00013338
H        -0.97858620     0.21964024    -0.59900534     0.00139283     0.00045026     0.00062918
     6
  Step:    35            Position(A)                                  Velocity(au)
C        -0.03308494     0.00070166    -0.07888541    -0.00007564     0.00003812    -0.00106540
N        -0.04134465    -0.06376449     1.38716922     0.00000029    -0.00005911     0.00087126
H         0.89370134     0.07069940    -0.64184353    -0.00029267    -0.00037607    -0.00022562
H         0.79579495    -0.03297786     1.88879017     0.00009720     0.00075455     0.00011361
H        -0.96279273    -0.05192051     1.90391983    -0.00026737    -0.00046352     0.00005504
H        -0.97086577     0.22214856    -0.59542481     0.00136021     0.00045224     0.00064489
     6
  Step:    36            Position(A)                                  Velocity(au)
C        -0.03350724     0.00092445    -0.08482330    -0.00007481     0.00004130    -0.00105986
N        -0.04141330    -0.06410178     1.39200591    -0.00002438    -0.00006174     0.00086054
H         0.89217345     0.06850214    -0.64300001    -0.00025060    -0.00041070    -0.00019331
H         0.79690241    -0.02867371     1.88977980     0.00029741     0.00078802     0.00024017
H        -0.96383975    -0.05453181     1.90401660    -0.00011265    -0.00047187    -0.00001651
H        -0.96341218     0.22468528    -0.59181114     0.00129607     0.00046043     0.00064062
     6
  Step:    37            Position(A)                                  Velocity(au)
C        -0.03391976     0.00116254    -0.09071311    -0.00007207     0.00004357    -0.00104759
N        -0.04161676    -0.06445353     1.39677256    -0.00004760    -0.00006424     0.00084579
H         0.89090474     0.06611614    -0.64400083    -0.00019996    -0.00044346    -0.00016951
H         0.79911396    -0.02418376     1.89147036     0.00048868     0.00082040     0.00036222
H        -0.96404988    -0.05718646     1.90373560     0.00003093    -0.00047875    -0.00007953
H        -0.95640203     0.22728685    -0.58827572     0.00120055     0.00047529     0.00061659
     6
  Step:    38            Position(A)                                  Velocity(au)
C        -0.03431180     0.00141088    -0.09651888    -0.00006744     0.00004494    -0.00102917
N        -0.04194472    -0.06481896     1.40144849    -0.00006858    -0.00006658     0.00082763
H         0.88994103     0.06355120    -0.64489244    -0.00014167    -0.00047449    -0.00015377
H         0.80235818    -0.01951456     1.89382376     0.00066335     0.00085139     0.00047520
H        -0.96349449    -0.05987668     1.90312868     0.00016003    -0.00048429    -0.00013253
H        -0.95000897     0.22999159    -0.58492736     0.00107487     0.00049705     0.00057369
     6
  Step:    39            Position(A)                                  Velocity(au)
C        -0.03467301     0.00166447    -0.10220795    -0.00006104     0.00004544    -0.00100529
N        -0.04238268    -0.06519713     1.40601638    -0.00008663    -0.00006874     0.00080670
H         0.88932240     0.06081651    -0.64571827    -0.00007690    -0.00050389    -0.00014546
H         0.80652286    -0.01467460     1.89677786     0.00081475     0.00088063     0.00057523
H        -0.96226246    -0.06259547     1.90225532     0.00027177    -0.00048864    -0.00017430
H        -0.94439683     0.23283845    -0.58186819     0.00092154     0.00052564     0.00051351
     6
  Step:    40            Position(A)                                  Velocity(au)
C        -0.03499383     0.00191858    -0.10775164    -0.00005305     0.00004514    -0.00097674
N        -0.04291267    -0.06558700     1.41046219    -0.00010121    -0.00007070     0.00078358
H         0.88908175     0.05792090    -0.64651777    -0.00000704    -0.00053184    -0.00014381
H         0.81146186    -0.00967479     1.90025115     0.00093771     0.00090775     0.00065938
H        -0.96045779    -0.06533650     1.90118114     0.00036369    -0.00049200    -0.00020388
H        -0.93971210     0.23586492    -0.57918957     0.00074428     0.00056065     0.00043830
     6
  Step:    41            Position(A)                                  Velocity(au)
C        -0.03526603     0.00216899    -0.11312567    -0.00004376     0.00004414    -0.00094435
N        -0.04351399    -0.06598734     1.41477499    -0.00011194    -0.00007243     0.00075883
H         0.88924372     0.05487177    -0.64732578     0.00006638    -0.00055858    -0.00014793
H         0.81700434    -0.00452800     1.90414822     0.00102874     0.00093246     0.00072573
H        -0.95819727    -0.06809495     1.89997637     0.00043386    -0.00049466    -0.00022066
H        -0.93607748     0.23910520    -0.57696901     0.00054797     0.00060131     0.00035085
     6
  Step:    42            Position(A)                                  Velocity(au)
C        -0.03548312     0.00241211    -0.11831051    -0.00003351     0.00004258    -0.00090901
N        -0.04416423    -0.06639685     1.41894670    -0.00011859    -0.00007393     0.00073294
H         0.88982393     0.05167543    -0.64817184     0.00014172    -0.00058432    -0.00015684
H         0.82296425     0.00075113     1.90836559     0.00108603     0.00095451     0.00077339
H        -0.95560680    -0.07086732     1.89871391     0.00048103    -0.00049686    -0.00022434
H        -0.93358526     0.24258820    -0.57526671     0.00033845     0.00064655     0.00025445
     6
  Step:    43            Position(A)                                  Velocity(au)
C        -0.03564079     0.00264519    -0.12329155    -0.00002271     0.00004061    -0.00087158
N        -0.04484020    -0.06681408     1.42297175    -0.00012111    -0.00007517     0.00070632
H         0.89082859     0.04833706    -0.64907979     0.00021731    -0.00060929    -0.00016950
H         0.82914988     0.00614673     1.91279735     0.00110941     0.00097376     0.00080239
H        -0.95281766    -0.07365154     1.89746743     0.00050463    -0.00049887    -0.00021498
H        -0.93229242     0.24633582    -0.57412340     0.00012226     0.00069500     0.00015266
     6
  Step:    44            Position(A)                                  Velocity(au)
C        -0.03573711     0.00286634    -0.12805892    -0.00001179     0.00003840    -0.00083288
N        -0.04551883    -0.06723757     1.42684666    -0.00011961    -0.00007615     0.00067931
H         0.89225450     0.04486069    -0.65006767     0.00029153    -0.00063370    -0.00018489
H         0.83537267     0.01164229     1.91734007     0.00110009     0.00099014     0.00081354
H        -0.94996263    -0.07644700     1.89630942     0.00050477    -0.00050094    -0.00019296
H        -0.93221780     0.25036162    -0.57355926    -0.00009380     0.00074513     0.00004910
     6