|===============================================================================
|
|  DFTB+ release 20.1
|
|  Copyright (C) 2006 - 2020  DFTB+ developers group
|
|===============================================================================
|
|  When publishing results obtained with DFTB+, please cite the following
|  reference:
|
|  * DFTB+, a software package for efficient approximate density functional
|    theory based atomistic simulations, J. Chem. Phys. 152, 124101 (2020).
|    [doi: 10.1063/1.5143190]
|
|  You should also cite additional publications crediting the parametrization
|  data you use. Please consult the documentation of the SK-files for the
|  references.
|
|===============================================================================

Reading input file 'dftb_in.hsd'
Parser version: 8

--------------------------------------------------------------------------------
Reading SK-files:
Done.


Processed input in HSD format written to 'dftb_pin.hsd'

Starting initialization...
--------------------------------------------------------------------------------
OpenMP threads:              1
Chosen random seed:          499922397
Mode:                        Static calculation
Self consistent charges:     Yes
SCC-tolerance:                 0.100000E-05
Max. scc iterations:                   1000
Shell resolved Hubbard:      No
Spin polarisation:           No
Nr. of up electrons:            16.000000
Nr. of down electrons:          16.000000
Periodic boundaries:         No
Electronic solver:           Relatively robust
Maximal SCC-cycles:                    1000
Initial charges:             Set automatically (system chrg:   0.100E+01)
Included shells:             C:  s, p
                             H:  s
                             N:  s, p
Spin coupling constants:     C   1(s)-1(s):  -0.455900E-01
                             C   1(s)-2(p):  -0.293000E-01
                             C   2(p)-1(s):  -0.293000E-01
                             C   2(p)-2(p):  -0.275500E-01
                             H   1(s)-1(s):  -0.792500E-01
                             N   1(s)-1(s):  -0.468700E-01
                             N   1(s)-2(p):  -0.317000E-01
                             N   2(p)-1(s):  -0.317000E-01
                             N   2(p)-2(p):  -0.307200E-01
Range separated hybrid:      Yes
  Screening parameter omega:   0.300000E+00
  Range separated algorithm:   MatrixBased
Extra options:
                             Mulliken analysis
                             Force calculation
Force type                   original
                             Eigenvector printing


REKS Calcuation:             Yes
SSR(2,2) Calcuation:         Yes
Energy Functional:           (PPS+OSS)/2
Number of Core Orbitals:                 15
Number of Active Orbitals:                2
Number of Basis:                         32
Number of States:                         2
State-Averaging Weight:          0.500000
                                 0.500000
State of Interest:                        1
Initial Guess:               Diagonalize H0 matrix
Newton-Raphson for FON opt:  Yes
NR max. Iterations:                      50
Level Shifting:              Yes
Shift Value:                     0.300000
W Scale Factor:              C  =    3.200000
                             H  =    3.200000
                             N  =    3.200000
Transition Dipole:           No
Gradient of Microstate:      No
CP-REKS Solver:              Preconditioned Conjugate-Gradient
CG max. Iterations:                     100
CG Tolerance:                  0.100000E-07
Memory for A and Hxc:        Direct Updating Without Saving
Non-Adiabatic Coupling:      Yes

--------------------------------------------------------------------------------

***  Geometry step: 0

  iSCC       reks energy        Diff energy         x_a       SCC error   
    1      -16.3627051961       0.0000000000     0.998127    1.21584137
    2      -16.3797639230      -0.0170587269     0.999667    0.04363016
    3      -16.3834301412      -0.0036662182     0.999870    0.01888556
    4      -16.3846206174      -0.0011904762     0.999925    0.01041042
    5      -16.3851089816      -0.0004883643     0.999947    0.00645501
    6      -16.3853392018      -0.0002302202     0.999958    0.00430693
    7      -16.3854573995      -0.0001181977     0.999965    0.00301105
    8      -16.3855213721      -0.0000639726     0.999969    0.00217288
    9      -16.3855572228      -0.0000358507     0.999971    0.00160269
   10      -16.3855778415      -0.0000206187     0.999973    0.00119973
   11      -16.3855899609      -0.0000121194     0.999974    0.00090679
   12      -16.3855972265      -0.0000072656     0.999975    0.00068949
   13      -16.3856016634      -0.0000044369     0.999976    0.00052604
   14      -16.3856044208      -0.0000027573     0.999976    0.00040193
   15      -16.3856061629      -0.0000017421     0.999977    0.00030707
   16      -16.3856072810      -0.0000011181     0.999977    0.00023425
   17      -16.3856080094      -0.0000007284     0.999977    0.00017818
   18      -16.3856084910      -0.0000004816     0.999977    0.00013490
   19      -16.3856088141      -0.0000003231     0.999977    0.00010143
   20      -16.3856090343      -0.0000002202     0.999978    0.00008379
   21      -16.3856091869      -0.0000001526     0.999978    0.00007181
   22      -16.3856092947      -0.0000001078     0.999978    0.00006178
   23      -16.3856093727      -0.0000000779     0.999978    0.00005334
   24      -16.3856094304      -0.0000000578     0.999978    0.00004621
   25      -16.3856094745      -0.0000000441     0.999978    0.00004015
   26      -16.3856095093      -0.0000000348     0.999978    0.00003500
   27      -16.3856095377      -0.0000000284     0.999978    0.00003229
   28      -16.3856095617      -0.0000000240     0.999978    0.00003014
   29      -16.3856095826      -0.0000000209     0.999978    0.00002818
   30      -16.3856096013      -0.0000000188     0.999978    0.00002640
   31      -16.3856096186      -0.0000000173     0.999978    0.00002480
   32      -16.3856096349      -0.0000000162     0.999978    0.00002338
   33      -16.3856096504      -0.0000000155     0.999978    0.00002255
   34      -16.3856096654      -0.0000000150     0.999978    0.00002186
   35      -16.3856096801      -0.0000000147     0.999978    0.00002128
   36      -16.3856096945      -0.0000000144     0.999978    0.00002079
   37      -16.3856097087      -0.0000000142     0.999978    0.00002037
   38      -16.3856097229      -0.0000000141     0.999978    0.00002002
   39      -16.3856097369      -0.0000000141     0.999978    0.00001973
   40      -16.3856097509      -0.0000000140     0.999978    0.00001948
   41      -16.3856097650      -0.0000000140     0.999978    0.00001927
   42      -16.3856097790      -0.0000000140     0.999978    0.00001909
   43      -16.3856097930      -0.0000000140     0.999978    0.00001895
   44      -16.3856098070      -0.0000000140     0.999978    0.00001882
   45      -16.3856098211      -0.0000000141     0.999978    0.00001872
   46      -16.3856098352      -0.0000000141     0.999978    0.00001864
   47      -16.3856098493      -0.0000000141     0.999978    0.00001857
   48      -16.3856098634      -0.0000000142     0.999978    0.00001851
   49      -16.3856098776      -0.0000000142     0.999978    0.00001846
   50      -16.3856098919      -0.0000000142     0.999978    0.00001843
   51      -16.3856099061      -0.0000000143     0.999978    0.00001840
   52      -16.3856099204      -0.0000000143     0.999978    0.00001838
   53      -16.3856099348      -0.0000000143     0.999978    0.00001837
   54      -16.3856099492      -0.0000000144     0.999978    0.00001838
   55      -16.3856099636      -0.0000000144     0.999978    0.00001843
   56      -16.3856099781      -0.0000000145     0.999978    0.00001848
   57      -16.3856099926      -0.0000000145     0.999978    0.00001853
   58      -16.3856100071      -0.0000000145     0.999978    0.00001858
   59      -16.3856100217      -0.0000000146     0.999978    0.00001862
   60      -16.3856100363      -0.0000000146     0.999978    0.00001866
   61      -16.3856100510      -0.0000000147     0.999978    0.00001870
   62      -16.3856100657      -0.0000000147     0.999978    0.00001874
   63      -16.3856100805      -0.0000000147     0.999978    0.00001877
   64      -16.3856100952      -0.0000000148     0.999978    0.00001881
   65      -16.3856101101      -0.0000000148     0.999978    0.00001884
   66      -16.3856101249      -0.0000000149     0.999978    0.00001887
   67      -16.3856101399      -0.0000000149     0.999979    0.00001890
   68      -16.3856101548      -0.0000000149     0.999979    0.00001893
   69      -16.3856101698      -0.0000000150     0.999979    0.00001896
   70      -16.3856101848      -0.0000000150     0.999979    0.00001899
   71      -16.3856101999      -0.0000000151     0.999979    0.00001902
   72      -16.3856102150      -0.0000000151     0.999979    0.00001905
   73      -16.3856102301      -0.0000000151     0.999979    0.00001908
   74      -16.3856102453      -0.0000000152     0.999979    0.00001911
   75      -16.3856102605      -0.0000000152     0.999979    0.00001913
   76      -16.3856102757      -0.0000000152     0.999979    0.00001916
   77      -16.3856102910      -0.0000000153     0.999979    0.00001919
   78      -16.3856103064      -0.0000000153     0.999979    0.00001921
   79      -16.3856103217      -0.0000000154     0.999979    0.00001924
   80      -16.3856103371      -0.0000000154     0.999979    0.00001926
   81      -16.3856103525      -0.0000000154     0.999979    0.00001929
   82      -16.3856103680      -0.0000000155     0.999979    0.00001931
   83      -16.3856103835      -0.0000000155     0.999979    0.00001934
   84      -16.3856103990      -0.0000000155     0.999979    0.00001936
   85      -16.3856104146      -0.0000000156     0.999979    0.00001939
   86      -16.3856104302      -0.0000000156     0.999979    0.00001941
   87      -16.3856104459      -0.0000000156     0.999979    0.00001943
   88      -16.3856104615      -0.0000000157     0.999979    0.00001946
   89      -16.3856104772      -0.0000000157     0.999979    0.00001948
   90      -16.3856104930      -0.0000000157     0.999979    0.00001950
   91      -16.3856105088      -0.0000000158     0.999979    0.00001952
   92      -16.3856105246      -0.0000000158     0.999979    0.00001955
   93      -16.3856105404      -0.0000000158     0.999979    0.00001957
   94      -16.3856105563      -0.0000000159     0.999979    0.00001959
   95      -16.3856105722      -0.0000000159     0.999979    0.00001961
   96      -16.3856105881      -0.0000000159     0.999979    0.00001963
   97      -16.3856106041      -0.0000000160     0.999979    0.00001966
   98      -16.3856106201      -0.0000000160     0.999979    0.00001968
   99      -16.3856106361      -0.0000000160     0.999979    0.00001970
  100      -16.3856106522      -0.0000000161     0.999979    0.00001972
  101      -16.3856106682      -0.0000000161     0.999979    0.00001974
  102      -16.3856106844      -0.0000000161     0.999979    0.00001976
  103      -16.3856107005      -0.0000000161     0.999979    0.00001978
  104      -16.3856107167      -0.0000000162     0.999979    0.00001980
  105      -16.3856107329      -0.0000000162     0.999979    0.00001982
  106      -16.3856107491      -0.0000000162     0.999979    0.00001984
  107      -16.3856107654      -0.0000000163     0.999979    0.00001985
  108      -16.3856107817      -0.0000000163     0.999979    0.00001987
  109      -16.3856107980      -0.0000000163     0.999979    0.00001989
  110      -16.3856108143      -0.0000000163     0.999979    0.00001991
  111      -16.3856108307      -0.0000000164     0.999979    0.00001993
  112      -16.3856108471      -0.0000000164     0.999979    0.00001995
  113      -16.3856108635      -0.0000000164     0.999979    0.00001996
  114      -16.3856108800      -0.0000000164     0.999979    0.00001998
  115      -16.3856108964      -0.0000000165     0.999979    0.00002000
  116      -16.3856109129      -0.0000000165     0.999979    0.00002002
  117      -16.3856109294      -0.0000000165     0.999979    0.00002003
  118      -16.3856109460      -0.0000000165     0.999979    0.00002005
  119      -16.3856109626      -0.0000000166     0.999979    0.00002007
  120      -16.3856109792      -0.0000000166     0.999979    0.00002008
  121      -16.3856109958      -0.0000000166     0.999979    0.00002010
  122      -16.3856110124      -0.0000000166     0.999979    0.00002011
  123      -16.3856110291      -0.0000000167     0.999979    0.00002013
  124      -16.3856110458      -0.0000000167     0.999979    0.00002014
  125      -16.3856110625      -0.0000000167     0.999979    0.00002016
  126      -16.3856110792      -0.0000000167     0.999979    0.00002017
  127      -16.3856110960      -0.0000000168     0.999979    0.00002019
  128      -16.3856111127      -0.0000000168     0.999979    0.00002020
  129      -16.3856111295      -0.0000000168     0.999979    0.00002022
  130      -16.3856111463      -0.0000000168     0.999979    0.00002023
  131      -16.3856111632      -0.0000000168     0.999979    0.00002025
  132      -16.3856111800      -0.0000000169     0.999979    0.00002026
  133      -16.3856111969      -0.0000000169     0.999979    0.00002027
  134      -16.3856112138      -0.0000000169     0.999979    0.00002029
  135      -16.3856112307      -0.0000000169     0.999979    0.00002030
  136      -16.3856112476      -0.0000000169     0.999979    0.00002031
  137      -16.3856112646      -0.0000000169     0.999979    0.00002032
  138      -16.3856112815      -0.0000000170     0.999979    0.00002034
  139      -16.3856112985      -0.0000000170     0.999979    0.00002035
  140      -16.3856113155      -0.0000000170     0.999979    0.00002036
  141      -16.3856113325      -0.0000000170     0.999979    0.00002037
  142      -16.3856113496      -0.0000000170     0.999979    0.00002038
  143      -16.3856113666      -0.0000000170     0.999979    0.00002039
  144      -16.3856113837      -0.0000000171     0.999979    0.00002040
  145      -16.3856114007      -0.0000000171     0.999979    0.00002041
  146      -16.3856114178      -0.0000000171     0.999979    0.00002042
  147      -16.3856114349      -0.0000000171     0.999979    0.00002043
  148      -16.3856114520      -0.0000000171     0.999979    0.00002044
  149      -16.3856114692      -0.0000000171     0.999979    0.00002045
  150      -16.3856114863      -0.0000000171     0.999979    0.00002046
  151      -16.3856115035      -0.0000000172     0.999979    0.00002047
  152      -16.3856115206      -0.0000000172     0.999979    0.00002048
  153      -16.3856115378      -0.0000000172     0.999979    0.00002049
  154      -16.3856115550      -0.0000000172     0.999979    0.00002050
  155      -16.3856115722      -0.0000000172     0.999979    0.00002051
  156      -16.3856115894      -0.0000000172     0.999979    0.00002051
  157      -16.3856116066      -0.0000000172     0.999979    0.00002052
  158      -16.3856116238      -0.0000000172     0.999979    0.00002053
  159      -16.3856116411      -0.0000000172     0.999979    0.00002054
  160      -16.3856116583      -0.0000000172     0.999979    0.00002054
  161      -16.3856116756      -0.0000000173     0.999979    0.00002055
  162      -16.3856116929      -0.0000000173     0.999979    0.00002056
  163      -16.3856117101      -0.0000000173     0.999979    0.00002056
  164      -16.3856117274      -0.0000000173     0.999979    0.00002057
  165      -16.3856117447      -0.0000000173     0.999979    0.00002058
  166      -16.3856117620      -0.0000000173     0.999979    0.00002058
  167      -16.3856117793      -0.0000000173     0.999979    0.00002059
  168      -16.3856117966      -0.0000000173     0.999979    0.00002059
  169      -16.3856118139      -0.0000000173     0.999979    0.00002060
  170      -16.3856118312      -0.0000000173     0.999980    0.00002060
  171      -16.3856118486      -0.0000000173     0.999980    0.00002061
  172      -16.3856118659      -0.0000000173     0.999980    0.00002061
  173      -16.3856118832      -0.0000000173     0.999980    0.00002061
  174      -16.3856119006      -0.0000000173     0.999980    0.00002062
  175      -16.3856119179      -0.0000000173     0.999980    0.00002062
  176      -16.3856119352      -0.0000000173     0.999980    0.00002062
  177      -16.3856119526      -0.0000000173     0.999980    0.00002063
  178      -16.3856119699      -0.0000000173     0.999980    0.00002063
  179      -16.3856119873      -0.0000000173     0.999980    0.00002063
  180      -16.3856120046      -0.0000000173     0.999980    0.00002063
  181      -16.3856120220      -0.0000000173     0.999980    0.00002064
  182      -16.3856120393      -0.0000000174     0.999980    0.00002064
  183      -16.3856120567      -0.0000000174     0.999980    0.00002064
  184      -16.3856120740      -0.0000000174     0.999980    0.00002064
  185      -16.3856120914      -0.0000000173     0.999980    0.00002064
  186      -16.3856121087      -0.0000000173     0.999980    0.00002064
  187      -16.3856121261      -0.0000000173     0.999980    0.00002064
  188      -16.3856121434      -0.0000000173     0.999980    0.00002065
  189      -16.3856121608      -0.0000000173     0.999980    0.00002065
  190      -16.3856121781      -0.0000000173     0.999980    0.00002065
  191      -16.3856121954      -0.0000000173     0.999980    0.00002065
  192      -16.3856122128      -0.0000000173     0.999980    0.00002064
  193      -16.3856122301      -0.0000000173     0.999980    0.00002064
  194      -16.3856122474      -0.0000000173     0.999980    0.00002064
  195      -16.3856122647      -0.0000000173     0.999980    0.00002064
  196      -16.3856122821      -0.0000000173     0.999980    0.00002064
  197      -16.3856122994      -0.0000000173     0.999980    0.00002064
  198      -16.3856123167      -0.0000000173     0.999980    0.00002064
  199      -16.3856123340      -0.0000000173     0.999980    0.00002063
  200      -16.3856123513      -0.0000000173     0.999980    0.00002063
  201      -16.3856123686      -0.0000000173     0.999980    0.00002063
  202      -16.3856123858      -0.0000000173     0.999980    0.00002063
  203      -16.3856124031      -0.0000000173     0.999980    0.00002062
  204      -16.3856124204      -0.0000000173     0.999980    0.00002062
  205      -16.3856124376      -0.0000000173     0.999980    0.00002062
  206      -16.3856124549      -0.0000000172     0.999980    0.00002061
  207      -16.3856124721      -0.0000000172     0.999980    0.00002061
  208      -16.3856124894      -0.0000000172     0.999980    0.00002061
  209      -16.3856125066      -0.0000000172     0.999980    0.00002060
  210      -16.3856125238      -0.0000000172     0.999980    0.00002060
  211      -16.3856125410      -0.0000000172     0.999980    0.00002059
  212      -16.3856125582      -0.0000000172     0.999980    0.00002059
  213      -16.3856125754      -0.0000000172     0.999980    0.00002058
  214      -16.3856125925      -0.0000000172     0.999980    0.00002058
  215      -16.3856126097      -0.0000000172     0.999980    0.00002057
  216      -16.3856126268      -0.0000000171     0.999980    0.00002056
  217      -16.3856126440      -0.0000000171     0.999980    0.00002056
  218      -16.3856126611      -0.0000000171     0.999980    0.00002055
  219      -16.3856126782      -0.0000000171     0.999980    0.00002054
  220      -16.3856126953      -0.0000000171     0.999980    0.00002054
  221      -16.3856127123      -0.0000000171     0.999980    0.00002053
  222      -16.3856127294      -0.0000000171     0.999980    0.00002052
  223      -16.3856127465      -0.0000000170     0.999980    0.00002052
  224      -16.3856127635      -0.0000000170     0.999980    0.00002051
  225      -16.3856127805      -0.0000000170     0.999980    0.00002050
  226      -16.3856127975      -0.0000000170     0.999980    0.00002049
  227      -16.3856128145      -0.0000000170     0.999980    0.00002048
  228      -16.3856128315      -0.0000000170     0.999980    0.00002047
  229      -16.3856128484      -0.0000000170     0.999980    0.00002047
  230      -16.3856128654      -0.0000000169     0.999980    0.00002046
  231      -16.3856128823      -0.0000000169     0.999980    0.00002045
  232      -16.3856128992      -0.0000000169     0.999980    0.00002044
  233      -16.3856129161      -0.0000000169     0.999980    0.00002043
  234      -16.3856129329      -0.0000000169     0.999980    0.00002042
  235      -16.3856129498      -0.0000000168     0.999980    0.00002041
  236      -16.3856129666      -0.0000000168     0.999980    0.00002040
  237      -16.3856129834      -0.0000000168     0.999980    0.00002039
  238      -16.3856130002      -0.0000000168     0.999980    0.00002038
  239      -16.3856130169      -0.0000000168     0.999980    0.00002037
  240      -16.3856130337      -0.0000000167     0.999980    0.00002035
  241      -16.3856130504      -0.0000000167     0.999980    0.00002034
  242      -16.3856130671      -0.0000000167     0.999980    0.00002033
  243      -16.3856130838      -0.0000000167     0.999980    0.00002032
  244      -16.3856131005      -0.0000000167     0.999980    0.00002031
  245      -16.3856131171      -0.0000000166     0.999980    0.00002029
  246      -16.3856131337      -0.0000000166     0.999980    0.00002028
  247      -16.3856131503      -0.0000000166     0.999980    0.00002027
  248      -16.3856131669      -0.0000000166     0.999980    0.00002026
  249      -16.3856131834      -0.0000000165     0.999980    0.00002024
  250      -16.3856132000      -0.0000000165     0.999980    0.00002023
  251      -16.3856132165      -0.0000000165     0.999980    0.00002022
  252      -16.3856132329      -0.0000000165     0.999980    0.00002020
  253      -16.3856132494      -0.0000000165     0.999980    0.00002019
  254      -16.3856132658      -0.0000000164     0.999980    0.00002018
  255      -16.3856132822      -0.0000000164     0.999980    0.00002016
  256      -16.3856132986      -0.0000000164     0.999980    0.00002015
  257      -16.3856133149      -0.0000000164     0.999980    0.00002013
  258      -16.3856133313      -0.0000000163     0.999980    0.00002012
  259      -16.3856133476      -0.0000000163     0.999980    0.00002010
  260      -16.3856133638      -0.0000000163     0.999980    0.00002009
  261      -16.3856133801      -0.0000000162     0.999980    0.00002007
  262      -16.3856133963      -0.0000000162     0.999980    0.00002006
  263      -16.3856134125      -0.0000000162     0.999980    0.00002004
  264      -16.3856134286      -0.0000000162     0.999980    0.00002002
  265      -16.3856134448      -0.0000000161     0.999980    0.00002001
  266      -16.3856134609      -0.0000000161     0.999980    0.00001999
  267      -16.3856134770      -0.0000000161     0.999980    0.00001997
  268      -16.3856134930      -0.0000000160     0.999980    0.00001996
  269      -16.3856135090      -0.0000000160     0.999981    0.00001994
  270      -16.3856135250      -0.0000000160     0.999981    0.00001992
  271      -16.3856135410      -0.0000000160     0.999981    0.00001991
  272      -16.3856135569      -0.0000000159     0.999981    0.00001989
  273      -16.3856135728      -0.0000000159     0.999981    0.00001987
  274      -16.3856135887      -0.0000000159     0.999981    0.00001985
  275      -16.3856136045      -0.0000000158     0.999981    0.00001983
  276      -16.3856136204      -0.0000000158     0.999981    0.00001982
  277      -16.3856136361      -0.0000000158     0.999981    0.00001980
  278      -16.3856136519      -0.0000000157     0.999981    0.00001978
  279      -16.3856136676      -0.0000000157     0.999981    0.00001976
  280      -16.3856136833      -0.0000000157     0.999981    0.00001974
  281      -16.3856136989      -0.0000000157     0.999981    0.00001972
  282      -16.3856137146      -0.0000000156     0.999981    0.00001970
  283      -16.3856137301      -0.0000000156     0.999981    0.00001968
  284      -16.3856137457      -0.0000000156     0.999981    0.00001966
  285      -16.3856137612      -0.0000000155     0.999981    0.00001964
  286      -16.3856137767      -0.0000000155     0.999981    0.00001962
  287      -16.3856137922      -0.0000000155     0.999981    0.00001960
  288      -16.3856138076      -0.0000000154     0.999981    0.00001958
  289      -16.3856138230      -0.0000000154     0.999981    0.00001956
  290      -16.3856138383      -0.0000000154     0.999981    0.00001954
  291      -16.3856138537      -0.0000000153     0.999981    0.00001952
  292      -16.3856138689      -0.0000000153     0.999981    0.00001950
  293      -16.3856138842      -0.0000000153     0.999981    0.00001948
  294      -16.3856138994      -0.0000000152     0.999981    0.00001946
  295      -16.3856139146      -0.0000000152     0.999981    0.00001943
  296      -16.3856139297      -0.0000000151     0.999981    0.00001941
  297      -16.3856139449      -0.0000000151     0.999981    0.00001939
  298      -16.3856139599      -0.0000000151     0.999981    0.00001937
  299      -16.3856139750      -0.0000000150     0.999981    0.00001935
  300      -16.3856139900      -0.0000000150     0.999981    0.00001932
  301      -16.3856140049      -0.0000000150     0.999981    0.00001930
  302      -16.3856140199      -0.0000000149     0.999981    0.00001928
  303      -16.3856140348      -0.0000000149     0.999981    0.00001925
  304      -16.3856140496      -0.0000000149     0.999981    0.00001923
  305      -16.3856140644      -0.0000000148     0.999981    0.00001921
  306      -16.3856140792      -0.0000000148     0.999981    0.00001919
  307      -16.3856140940      -0.0000000147     0.999981    0.00001916
  308      -16.3856141087      -0.0000000147     0.999981    0.00001914
  309      -16.3856141233      -0.0000000147     0.999981    0.00001911
  310      -16.3856141380      -0.0000000146     0.999981    0.00001909
  311      -16.3856141526      -0.0000000146     0.999981    0.00001907
  312      -16.3856141671      -0.0000000146     0.999981    0.00001904
  313      -16.3856141816      -0.0000000145     0.999981    0.00001902
  314      -16.3856141961      -0.0000000145     0.999981    0.00001899
  315      -16.3856142106      -0.0000000144     0.999981    0.00001897
  316      -16.3856142250      -0.0000000144     0.999981    0.00001894
  317      -16.3856142393      -0.0000000144     0.999981    0.00001892
  318      -16.3856142537      -0.0000000143     0.999981    0.00001889
  319      -16.3856142679      -0.0000000143     0.999981    0.00001887
  320      -16.3856142822      -0.0000000142     0.999981    0.00001884
  321      -16.3856142964      -0.0000000142     0.999981    0.00001882
  322      -16.3856143106      -0.0000000142     0.999981    0.00001879
  323      -16.3856143247      -0.0000000141     0.999981    0.00001877
  324      -16.3856143388      -0.0000000141     0.999981    0.00001874
  325      -16.3856143528      -0.0000000140     0.999981    0.00001871
  326      -16.3856143668      -0.0000000140     0.999981    0.00001869
  327      -16.3856143808      -0.0000000140     0.999981    0.00001866
  328      -16.3856143947      -0.0000000139     0.999981    0.00001863
  329      -16.3856144086      -0.0000000139     0.999981    0.00001861
  330      -16.3856144224      -0.0000000138     0.999981    0.00001858
  331      -16.3856144362      -0.0000000138     0.999981    0.00001855
  332      -16.3856144500      -0.0000000138     0.999981    0.00001853
  333      -16.3856144637      -0.0000000137     0.999981    0.00001850
  334      -16.3856144774      -0.0000000137     0.999981    0.00001847
  335      -16.3856144910      -0.0000000136     0.999981    0.00001844
  336      -16.3856145046      -0.0000000136     0.999981    0.00001842
  337      -16.3856145182      -0.0000000136     0.999981    0.00001839
  338      -16.3856145317      -0.0000000135     0.999981    0.00001836
  339      -16.3856145452      -0.0000000135     0.999981    0.00001833
  340      -16.3856145586      -0.0000000134     0.999981    0.00001831
  341      -16.3856145720      -0.0000000134     0.999981    0.00001828
  342      -16.3856145853      -0.0000000133     0.999981    0.00001825
  343      -16.3856145986      -0.0000000133     0.999981    0.00001822
  344      -16.3856146119      -0.0000000133     0.999981    0.00001819
  345      -16.3856146251      -0.0000000132     0.999981    0.00001816
  346      -16.3856146383      -0.0000000132     0.999981    0.00001814
  347      -16.3856146514      -0.0000000131     0.999981    0.00001811
  348      -16.3856146645      -0.0000000131     0.999981    0.00001808
  349      -16.3856146775      -0.0000000130     0.999981    0.00001805
  350      -16.3856146905      -0.0000000130     0.999981    0.00001802
  351      -16.3856147035      -0.0000000130     0.999981    0.00001799
  352      -16.3856147164      -0.0000000129     0.999981    0.00001796
  353      -16.3856147293      -0.0000000129     0.999981    0.00001793
  354      -16.3856147421      -0.0000000128     0.999981    0.00001790
  355      -16.3856147549      -0.0000000128     0.999981    0.00001787
  356      -16.3856147677      -0.0000000127     0.999981    0.00001784
  357      -16.3856147804      -0.0000000127     0.999981    0.00001781
  358      -16.3856147930      -0.0000000127     0.999981    0.00001778
  359      -16.3856148056      -0.0000000126     0.999981    0.00001775
  360      -16.3856148182      -0.0000000126     0.999981    0.00001772
  361      -16.3856148307      -0.0000000125     0.999981    0.00001769
  362      -16.3856148432      -0.0000000125     0.999981    0.00001766
  363      -16.3856148557      -0.0000000124     0.999981    0.00001763
  364      -16.3856148681      -0.0000000124     0.999981    0.00001760
  365      -16.3856148804      -0.0000000124     0.999981    0.00001757
  366      -16.3856148927      -0.0000000123     0.999981    0.00001754
  367      -16.3856149050      -0.0000000123     0.999981    0.00001751
  368      -16.3856149172      -0.0000000122     0.999981    0.00001748
  369      -16.3856149294      -0.0000000122     0.999981    0.00001745
  370      -16.3856149416      -0.0000000121     0.999981    0.00001742
  371      -16.3856149536      -0.0000000121     0.999981    0.00001739
  372      -16.3856149657      -0.0000000120     0.999981    0.00001736
  373      -16.3856149777      -0.0000000120     0.999981    0.00001732
  374      -16.3856149897      -0.0000000120     0.999981    0.00001729
  375      -16.3856150016      -0.0000000119     0.999981    0.00001726
  376      -16.3856150135      -0.0000000119     0.999982    0.00001723
  377      -16.3856150253      -0.0000000118     0.999982    0.00001720
  378      -16.3856150371      -0.0000000118     0.999982    0.00001717
  379      -16.3856150488      -0.0000000117     0.999982    0.00001713
  380      -16.3856150605      -0.0000000117     0.999982    0.00001710
  381      -16.3856150722      -0.0000000117     0.999982    0.00001707
  382      -16.3856150838      -0.0000000116     0.999982    0.00001704
  383      -16.3856150953      -0.0000000116     0.999982    0.00001701
  384      -16.3856151069      -0.0000000115     0.999982    0.00001698
  385      -16.3856151183      -0.0000000115     0.999982    0.00001694
  386      -16.3856151298      -0.0000000114     0.999982    0.00001691
  387      -16.3856151412      -0.0000000114     0.999982    0.00001688
  388      -16.3856151525      -0.0000000113     0.999982    0.00001685
  389      -16.3856151638      -0.0000000113     0.999982    0.00001681
  390      -16.3856151751      -0.0000000113     0.999982    0.00001678
  391      -16.3856151863      -0.0000000112     0.999982    0.00001675
  392      -16.3856151974      -0.0000000112     0.999982    0.00001672
  393      -16.3856152086      -0.0000000111     0.999982    0.00001668
  394      -16.3856152196      -0.0000000111     0.999982    0.00001665
  395      -16.3856152307      -0.0000000110     0.999982    0.00001662
  396      -16.3856152417      -0.0000000110     0.999982    0.00001658
  397      -16.3856152526      -0.0000000109     0.999982    0.00001655
  398      -16.3856152635      -0.0000000109     0.999982    0.00001652
  399      -16.3856152744      -0.0000000109     0.999982    0.00001649
  400      -16.3856152852      -0.0000000108     0.999982    0.00001645
  401      -16.3856152960      -0.0000000108     0.999982    0.00001642
  402      -16.3856153067      -0.0000000107     0.999982    0.00001639
  403      -16.3856153174      -0.0000000107     0.999982    0.00001635
  404      -16.3856153280      -0.0000000106     0.999982    0.00001632
  405      -16.3856153386      -0.0000000106     0.999982    0.00001629
  406      -16.3856153492      -0.0000000106     0.999982    0.00001625
  407      -16.3856153597      -0.0000000105     0.999982    0.00001622
  408      -16.3856153702      -0.0000000105     0.999982    0.00001619
  409      -16.3856153806      -0.0000000104     0.999982    0.00001615
  410      -16.3856153910      -0.0000000104     0.999982    0.00001612
  411      -16.3856154013      -0.0000000103     0.999982    0.00001608
  412      -16.3856154116      -0.0000000103     0.999982    0.00001605
  413      -16.3856154218      -0.0000000102     0.999982    0.00001602
  414      -16.3856154320      -0.0000000102     0.999982    0.00001598
  415      -16.3856154422      -0.0000000102     0.999982    0.00001595
  416      -16.3856154523      -0.0000000101     0.999982    0.00001592
  417      -16.3856154624      -0.0000000101     0.999982    0.00001588
  418      -16.3856154724      -0.0000000100     0.999982    0.00001585
  419      -16.3856154824      -0.0000000100     0.999982    0.00001581
  420      -16.3856154923      -0.0000000099     0.999982    0.00001578
  421      -16.3856155022      -0.0000000099     0.999982    0.00001575
  422      -16.3856155121      -0.0000000099     0.999982    0.00001571
  423      -16.3856155219      -0.0000000098     0.999982    0.00001568
  424      -16.3856155317      -0.0000000098     0.999982    0.00001564
  425      -16.3856155414      -0.0000000097     0.999982    0.00001561
  426      -16.3856155511      -0.0000000097     0.999982    0.00001557
  427      -16.3856155607      -0.0000000096     0.999982    0.00001554
  428      -16.3856155703      -0.0000000096     0.999982    0.00001551
  429      -16.3856155799      -0.0000000096     0.999982    0.00001547
  430      -16.3856155894      -0.0000000095     0.999982    0.00001544
  431      -16.3856155989      -0.0000000095     0.999982    0.00001540
  432      -16.3856156083      -0.0000000094     0.999982    0.00001537
  433      -16.3856156177      -0.0000000094     0.999982    0.00001533
  434      -16.3856156271      -0.0000000093     0.999982    0.00001530
  435      -16.3856156364      -0.0000000093     0.999982    0.00001527
  436      -16.3856156456      -0.0000000093     0.999982    0.00001523
  437      -16.3856156548      -0.0000000092     0.999982    0.00001520
  438      -16.3856156640      -0.0000000092     0.999982    0.00001516
  439      -16.3856156732      -0.0000000091     0.999982    0.00001513
  440      -16.3856156822      -0.0000000091     0.999982    0.00001509
  441      -16.3856156913      -0.0000000091     0.999982    0.00001506
  442      -16.3856157003      -0.0000000090     0.999982    0.00001502
  443      -16.3856157093      -0.0000000090     0.999982    0.00001499
  444      -16.3856157182      -0.0000000089     0.999982    0.00001495
  445      -16.3856157271      -0.0000000089     0.999982    0.00001492
  446      -16.3856157359      -0.0000000088     0.999982    0.00001488
  447      -16.3856157447      -0.0000000088     0.999982    0.00001485
  448      -16.3856157535      -0.0000000088     0.999982    0.00001482
  449      -16.3856157622      -0.0000000087     0.999982    0.00001478
  450      -16.3856157709      -0.0000000087     0.999982    0.00001475
  451      -16.3856157795      -0.0000000086     0.999982    0.00001471
  452      -16.3856157881      -0.0000000086     0.999982    0.00001468
  453      -16.3856157967      -0.0000000086     0.999982    0.00001464
  454      -16.3856158052      -0.0000000085     0.999982    0.00001461
  455      -16.3856158137      -0.0000000085     0.999982    0.00001457
  456      -16.3856158221      -0.0000000084     0.999982    0.00001454
  457      -16.3856158305      -0.0000000084     0.999982    0.00001450
  458      -16.3856158388      -0.0000000084     0.999982    0.00001447
  459      -16.3856158472      -0.0000000083     0.999982    0.00001443
  460      -16.3856158554      -0.0000000083     0.999982    0.00001440
  461      -16.3856158637      -0.0000000082     0.999982    0.00001436
  462      -16.3856158719      -0.0000000082     0.999982    0.00001433
  463      -16.3856158800      -0.0000000082     0.999982    0.00001429
  464      -16.3856158881      -0.0000000081     0.999982    0.00001426
  465      -16.3856158962      -0.0000000081     0.999982    0.00001422
  466      -16.3856159042      -0.0000000080     0.999982    0.00001419
  467      -16.3856159122      -0.0000000080     0.999982    0.00001415
  468      -16.3856159202      -0.0000000080     0.999982    0.00001412
  469      -16.3856159281      -0.0000000079     0.999982    0.00001408
  470      -16.3856159360      -0.0000000079     0.999982    0.00001405
  471      -16.3856159438      -0.0000000078     0.999982    0.00001402
  472      -16.3856159516      -0.0000000078     0.999982    0.00001398
  473      -16.3856159594      -0.0000000078     0.999982    0.00001395
  474      -16.3856159671      -0.0000000077     0.999982    0.00001391
  475      -16.3856159748      -0.0000000077     0.999982    0.00001388
  476      -16.3856159824      -0.0000000076     0.999982    0.00001384
  477      -16.3856159900      -0.0000000076     0.999982    0.00001381
  478      -16.3856159976      -0.0000000076     0.999982    0.00001377
  479      -16.3856160051      -0.0000000075     0.999982    0.00001374
  480      -16.3856160126      -0.0000000075     0.999982    0.00001370
  481      -16.3856160201      -0.0000000075     0.999982    0.00001367
  482      -16.3856160275      -0.0000000074     0.999982    0.00001363
  483      -16.3856160348      -0.0000000074     0.999982    0.00001360
  484      -16.3856160422      -0.0000000073     0.999982    0.00001356
  485      -16.3856160495      -0.0000000073     0.999982    0.00001353
  486      -16.3856160567      -0.0000000073     0.999982    0.00001349
  487      -16.3856160640      -0.0000000072     0.999982    0.00001346
  488      -16.3856160712      -0.0000000072     0.999982    0.00001342
  489      -16.3856160783      -0.0000000072     0.999982    0.00001339
  490      -16.3856160854      -0.0000000071     0.999982    0.00001336
  491      -16.3856160925      -0.0000000071     0.999982    0.00001332
  492      -16.3856160996      -0.0000000070     0.999982    0.00001329
  493      -16.3856161066      -0.0000000070     0.999982    0.00001325
  494      -16.3856161135      -0.0000000070     0.999982    0.00001322
  495      -16.3856161205      -0.0000000069     0.999982    0.00001318
  496      -16.3856161274      -0.0000000069     0.999982    0.00001315
  497      -16.3856161342      -0.0000000069     0.999982    0.00001311
  498      -16.3856161410      -0.0000000068     0.999982    0.00001308
  499      -16.3856161478      -0.0000000068     0.999982    0.00001304
  500      -16.3856161546      -0.0000000068     0.999982    0.00001301
  501      -16.3856161613      -0.0000000067     0.999982    0.00001298
  502      -16.3856161680      -0.0000000067     0.999982    0.00001294
  503      -16.3856161746      -0.0000000066     0.999982    0.00001291
  504      -16.3856161812      -0.0000000066     0.999982    0.00001287
  505      -16.3856161878      -0.0000000066     0.999982    0.00001284
  506      -16.3856161943      -0.0000000065     0.999982    0.00001280
  507      -16.3856162008      -0.0000000065     0.999982    0.00001277
  508      -16.3856162073      -0.0000000065     0.999982    0.00001274
  509      -16.3856162138      -0.0000000064     0.999982    0.00001270
  510      -16.3856162202      -0.0000000064     0.999983    0.00001267
  511      -16.3856162265      -0.0000000064     0.999983    0.00001263
  512      -16.3856162328      -0.0000000063     0.999983    0.00001260
  513      -16.3856162391      -0.0000000063     0.999983    0.00001256
  514      -16.3856162454      -0.0000000063     0.999983    0.00001253
  515      -16.3856162516      -0.0000000062     0.999983    0.00001250
  516      -16.3856162578      -0.0000000062     0.999983    0.00001246
  517      -16.3856162640      -0.0000000062     0.999983    0.00001243
  518      -16.3856162701      -0.0000000061     0.999983    0.00001239
  519      -16.3856162762      -0.0000000061     0.999983    0.00001236
  520      -16.3856162823      -0.0000000061     0.999983    0.00001233
  521      -16.3856162883      -0.0000000060     0.999983    0.00001229
  522      -16.3856162943      -0.0000000060     0.999983    0.00001226
  523      -16.3856163003      -0.0000000060     0.999983    0.00001222
  524      -16.3856163062      -0.0000000059     0.999983    0.00001219
  525      -16.3856163121      -0.0000000059     0.999983    0.00001216
  526      -16.3856163179      -0.0000000059     0.999983    0.00001212
  527      -16.3856163238      -0.0000000058     0.999983    0.00001209
  528      -16.3856163296      -0.0000000058     0.999983    0.00001206
  529      -16.3856163353      -0.0000000058     0.999983    0.00001202
  530      -16.3856163411      -0.0000000057     0.999983    0.00001199
  531      -16.3856163468      -0.0000000057     0.999983    0.00001196
  532      -16.3856163524      -0.0000000057     0.999983    0.00001192
  533      -16.3856163581      -0.0000000056     0.999983    0.00001189
  534      -16.3856163637      -0.0000000056     0.999983    0.00001186
  535      -16.3856163693      -0.0000000056     0.999983    0.00001182
  536      -16.3856163748      -0.0000000055     0.999983    0.00001179
  537      -16.3856163803      -0.0000000055     0.999983    0.00001176
  538      -16.3856163858      -0.0000000055     0.999983    0.00001172
  539      -16.3856163913      -0.0000000055     0.999983    0.00001169
  540      -16.3856163967      -0.0000000054     0.999983    0.00001166
  541      -16.3856164021      -0.0000000054     0.999983    0.00001162
  542      -16.3856164074      -0.0000000054     0.999983    0.00001159
  543      -16.3856164128      -0.0000000053     0.999983    0.00001156
  544      -16.3856164180      -0.0000000053     0.999983    0.00001152
  545      -16.3856164233      -0.0000000053     0.999983    0.00001149
  546      -16.3856164286      -0.0000000052     0.999983    0.00001146
  547      -16.3856164338      -0.0000000052     0.999983    0.00001142
  548      -16.3856164389      -0.0000000052     0.999983    0.00001139
  549      -16.3856164441      -0.0000000051     0.999983    0.00001136
  550      -16.3856164492      -0.0000000051     0.999983    0.00001133
  551      -16.3856164543      -0.0000000051     0.999983    0.00001129
  552      -16.3856164593      -0.0000000051     0.999983    0.00001126
  553      -16.3856164644      -0.0000000050     0.999983    0.00001123
  554      -16.3856164694      -0.0000000050     0.999983    0.00001120
  555      -16.3856164744      -0.0000000050     0.999983    0.00001116
  556      -16.3856164793      -0.0000000049     0.999983    0.00001113
  557      -16.3856164842      -0.0000000049     0.999983    0.00001110
  558      -16.3856164891      -0.0000000049     0.999983    0.00001107
  559      -16.3856164939      -0.0000000049     0.999983    0.00001103
  560      -16.3856164988      -0.0000000048     0.999983    0.00001100
  561      -16.3856165036      -0.0000000048     0.999983    0.00001097
  562      -16.3856165084      -0.0000000048     0.999983    0.00001094
  563      -16.3856165131      -0.0000000047     0.999983    0.00001090
  564      -16.3856165178      -0.0000000047     0.999983    0.00001087
  565      -16.3856165225      -0.0000000047     0.999983    0.00001084
  566      -16.3856165272      -0.0000000047     0.999983    0.00001081
  567      -16.3856165318      -0.0000000046     0.999983    0.00001078
  568      -16.3856165364      -0.0000000046     0.999983    0.00001074
  569      -16.3856165410      -0.0000000046     0.999983    0.00001071
  570      -16.3856165455      -0.0000000046     0.999983    0.00001068
  571      -16.3856165501      -0.0000000045     0.999983    0.00001065
  572      -16.3856165546      -0.0000000045     0.999983    0.00001062
  573      -16.3856165590      -0.0000000045     0.999983    0.00001059
  574      -16.3856165635      -0.0000000044     0.999983    0.00001055
  575      -16.3856165679      -0.0000000044     0.999983    0.00001052
  576      -16.3856165723      -0.0000000044     0.999983    0.00001049
  577      -16.3856165766      -0.0000000044     0.999983    0.00001046
  578      -16.3856165810      -0.0000000043     0.999983    0.00001043
  579      -16.3856165853      -0.0000000043     0.999983    0.00001040
  580      -16.3856165896      -0.0000000043     0.999983    0.00001037
  581      -16.3856165938      -0.0000000043     0.999983    0.00001033
  582      -16.3856165981      -0.0000000042     0.999983    0.00001030
  583      -16.3856166023      -0.0000000042     0.999983    0.00001027
  584      -16.3856166065      -0.0000000042     0.999983    0.00001024
  585      -16.3856166106      -0.0000000042     0.999983    0.00001021
  586      -16.3856166148      -0.0000000041     0.999983    0.00001018
  587      -16.3856166189      -0.0000000041     0.999983    0.00001015
  588      -16.3856166230      -0.0000000041     0.999983    0.00001012
  589      -16.3856166270      -0.0000000041     0.999983    0.00001009
  590      -16.3856166311      -0.0000000040     0.999983    0.00001006
  591      -16.3856166351      -0.0000000040     0.999983    0.00001003
  592      -16.3856166391      -0.0000000040     0.999983    0.00001000
  593      -16.3856166430      -0.0000000040     0.999983    0.00000996
  594      -16.3856166470      -0.0000000039     0.999983    0.00000993
  595      -16.3856166509      -0.0000000039     0.999983    0.00000990
  596      -16.3856166548      -0.0000000039     0.999983    0.00000987
  597      -16.3856166586      -0.0000000039     0.999983    0.00000984
  598      -16.3856166625      -0.0000000038     0.999983    0.00000981
  599      -16.3856166663      -0.0000000038     0.999983    0.00000978
  600      -16.3856166701      -0.0000000038     0.999983    0.00000975
  601      -16.3856166739      -0.0000000038     0.999983    0.00000972
  602      -16.3856166776      -0.0000000037     0.999983    0.00000969
  603      -16.3856166813      -0.0000000037     0.999983    0.00000966
  604      -16.3856166850      -0.0000000037     0.999983    0.00000963
  605      -16.3856166887      -0.0000000037     0.999983    0.00000960
  606      -16.3856166924      -0.0000000037     0.999983    0.00000957
  607      -16.3856166960      -0.0000000036     0.999983    0.00000954
  608      -16.3856166996      -0.0000000036     0.999983    0.00000951
  609      -16.3856167032      -0.0000000036     0.999983    0.00000948
  610      -16.3856167068      -0.0000000036     0.999983    0.00000945
  611      -16.3856167103      -0.0000000035     0.999983    0.00000942
  612      -16.3856167138      -0.0000000035     0.999983    0.00000939
  613      -16.3856167173      -0.0000000035     0.999983    0.00000937
  614      -16.3856167208      -0.0000000035     0.999983    0.00000934
  615      -16.3856167243      -0.0000000035     0.999983    0.00000931
  616      -16.3856167277      -0.0000000034     0.999983    0.00000928
  617      -16.3856167311      -0.0000000034     0.999983    0.00000925
  618      -16.3856167345      -0.0000000034     0.999983    0.00000922
  619      -16.3856167379      -0.0000000034     0.999983    0.00000919
  620      -16.3856167412      -0.0000000033     0.999983    0.00000916
  621      -16.3856167446      -0.0000000033     0.999983    0.00000913
  622      -16.3856167479      -0.0000000033     0.999983    0.00000910
  623      -16.3856167512      -0.0000000033     0.999983    0.00000907
  624      -16.3856167544      -0.0000000033     0.999983    0.00000905
  625      -16.3856167577      -0.0000000032     0.999983    0.00000902
  626      -16.3856167609      -0.0000000032     0.999983    0.00000899
  627      -16.3856167641      -0.0000000032     0.999983    0.00000896
  628      -16.3856167673      -0.0000000032     0.999983    0.00000893
  629      -16.3856167705      -0.0000000032     0.999983    0.00000890
  630      -16.3856167736      -0.0000000031     0.999983    0.00000887
  631      -16.3856167767      -0.0000000031     0.999983    0.00000885
  632      -16.3856167798      -0.0000000031     0.999983    0.00000882
  633      -16.3856167829      -0.0000000031     0.999983    0.00000879
  634      -16.3856167860      -0.0000000031     0.999983    0.00000876
  635      -16.3856167890      -0.0000000030     0.999983    0.00000873
  636      -16.3856167920      -0.0000000030     0.999983    0.00000871
  637      -16.3856167951      -0.0000000030     0.999983    0.00000868
  638      -16.3856167980      -0.0000000030     0.999983    0.00000865
  639      -16.3856168010      -0.0000000030     0.999983    0.00000862
  640      -16.3856168040      -0.0000000029     0.999983    0.00000859
  641      -16.3856168069      -0.0000000029     0.999983    0.00000857
  642      -16.3856168098      -0.0000000029     0.999983    0.00000854
  643      -16.3856168127      -0.0000000029     0.999983    0.00000851
  644      -16.3856168156      -0.0000000029     0.999983    0.00000848
  645      -16.3856168184      -0.0000000029     0.999983    0.00000846
  646      -16.3856168213      -0.0000000028     0.999983    0.00000843
  647      -16.3856168241      -0.0000000028     0.999983    0.00000840
  648      -16.3856168269      -0.0000000028     0.999983    0.00000837
  649      -16.3856168297      -0.0000000028     0.999983    0.00000835
  650      -16.3856168324      -0.0000000028     0.999983    0.00000832
  651      -16.3856168352      -0.0000000027     0.999983    0.00000829
  652      -16.3856168379      -0.0000000027     0.999983    0.00000827
  653      -16.3856168406      -0.0000000027     0.999983    0.00000824
  654      -16.3856168433      -0.0000000027     0.999983    0.00000821
  655      -16.3856168460      -0.0000000027     0.999983    0.00000819
  656      -16.3856168486      -0.0000000027     0.999983    0.00000816
  657      -16.3856168513      -0.0000000026     0.999983    0.00000813
  658      -16.3856168539      -0.0000000026     0.999983    0.00000811
  659      -16.3856168565      -0.0000000026     0.999983    0.00000808
  660      -16.3856168591      -0.0000000026     0.999983    0.00000805
  661      -16.3856168617      -0.0000000026     0.999983    0.00000803
  662      -16.3856168642      -0.0000000026     0.999983    0.00000800
  663      -16.3856168668      -0.0000000025     0.999983    0.00000797
  664      -16.3856168693      -0.0000000025     0.999983    0.00000795
  665      -16.3856168718      -0.0000000025     0.999983    0.00000792
  666      -16.3856168743      -0.0000000025     0.999983    0.00000789
  667      -16.3856168768      -0.0000000025     0.999983    0.00000787
  668      -16.3856168792      -0.0000000025     0.999983    0.00000784
  669      -16.3856168816      -0.0000000024     0.999983    0.00000782
  670      -16.3856168841      -0.0000000024     0.999983    0.00000779
  671      -16.3856168865      -0.0000000024     0.999983    0.00000777
  672      -16.3856168889      -0.0000000024     0.999983    0.00000774
  673      -16.3856168913      -0.0000000024     0.999983    0.00000771
  674      -16.3856168936      -0.0000000024     0.999983    0.00000769
  675      -16.3856168960      -0.0000000023     0.999983    0.00000766
  676      -16.3856168983      -0.0000000023     0.999983    0.00000764
  677      -16.3856169006      -0.0000000023     0.999983    0.00000761
  678      -16.3856169029      -0.0000000023     0.999983    0.00000759
  679      -16.3856169052      -0.0000000023     0.999983    0.00000756
  680      -16.3856169075      -0.0000000023     0.999983    0.00000754
  681      -16.3856169097      -0.0000000023     0.999983    0.00000751
  682      -16.3856169119      -0.0000000022     0.999983    0.00000749
  683      -16.3856169142      -0.0000000022     0.999983    0.00000746
  684      -16.3856169164      -0.0000000022     0.999983    0.00000744
  685      -16.3856169186      -0.0000000022     0.999983    0.00000741
  686      -16.3856169207      -0.0000000022     0.999983    0.00000739
  687      -16.3856169229      -0.0000000022     0.999983    0.00000736
  688      -16.3856169251      -0.0000000022     0.999983    0.00000734
  689      -16.3856169272      -0.0000000021     0.999983    0.00000731
  690      -16.3856169293      -0.0000000021     0.999983    0.00000729
  691      -16.3856169314      -0.0000000021     0.999983    0.00000726
  692      -16.3856169335      -0.0000000021     0.999983    0.00000724
  693      -16.3856169356      -0.0000000021     0.999983    0.00000721
  694      -16.3856169377      -0.0000000021     0.999983    0.00000719
  695      -16.3856169397      -0.0000000021     0.999983    0.00000717
  696      -16.3856169418      -0.0000000020     0.999983    0.00000714
  697      -16.3856169438      -0.0000000020     0.999983    0.00000712
  698      -16.3856169458      -0.0000000020     0.999983    0.00000709
  699      -16.3856169478      -0.0000000020     0.999983    0.00000707
  700      -16.3856169498      -0.0000000020     0.999983    0.00000704
  701      -16.3856169517      -0.0000000020     0.999983    0.00000702
  702      -16.3856169537      -0.0000000020     0.999983    0.00000700
  703      -16.3856169556      -0.0000000019     0.999983    0.00000697
  704      -16.3856169576      -0.0000000019     0.999983    0.00000695
  705      -16.3856169595      -0.0000000019     0.999983    0.00000693
  706      -16.3856169614      -0.0000000019     0.999983    0.00000690
  707      -16.3856169633      -0.0000000019     0.999983    0.00000688
  708      -16.3856169652      -0.0000000019     0.999983    0.00000686
  709      -16.3856169670      -0.0000000019     0.999983    0.00000683
  710      -16.3856169689      -0.0000000019     0.999983    0.00000681
  711      -16.3856169707      -0.0000000018     0.999983    0.00000679
  712      -16.3856169725      -0.0000000018     0.999983    0.00000676
  713      -16.3856169744      -0.0000000018     0.999983    0.00000674
  714      -16.3856169762      -0.0000000018     0.999983    0.00000672
  715      -16.3856169780      -0.0000000018     0.999983    0.00000669
  716      -16.3856169797      -0.0000000018     0.999983    0.00000667
  717      -16.3856169815      -0.0000000018     0.999983    0.00000665
  718      -16.3856169832      -0.0000000018     0.999983    0.00000662
  719      -16.3856169850      -0.0000000017     0.999983    0.00000660
  720      -16.3856169867      -0.0000000017     0.999983    0.00000658
  721      -16.3856169884      -0.0000000017     0.999983    0.00000656
  722      -16.3856169901      -0.0000000017     0.999983    0.00000653
  723      -16.3856169918      -0.0000000017     0.999983    0.00000651
  724      -16.3856169935      -0.0000000017     0.999983    0.00000649
  725      -16.3856169952      -0.0000000017     0.999983    0.00000647
  726      -16.3856169969      -0.0000000017     0.999984    0.00000644
  727      -16.3856169985      -0.0000000016     0.999984    0.00000642
  728      -16.3856170001      -0.0000000016     0.999984    0.00000640
  729      -16.3856170018      -0.0000000016     0.999984    0.00000638
  730      -16.3856170034      -0.0000000016     0.999984    0.00000636
  731      -16.3856170050      -0.0000000016     0.999984    0.00000633
  732      -16.3856170066      -0.0000000016     0.999984    0.00000631
  733      -16.3856170082      -0.0000000016     0.999984    0.00000629
  734      -16.3856170097      -0.0000000016     0.999984    0.00000627
  735      -16.3856170113      -0.0000000016     0.999984    0.00000625
  736      -16.3856170128      -0.0000000015     0.999984    0.00000623
  737      -16.3856170144      -0.0000000015     0.999984    0.00000620
  738      -16.3856170159      -0.0000000015     0.999984    0.00000618
  739      -16.3856170174      -0.0000000015     0.999984    0.00000616
  740      -16.3856170189      -0.0000000015     0.999984    0.00000614
  741      -16.3856170204      -0.0000000015     0.999984    0.00000612
  742      -16.3856170219      -0.0000000015     0.999984    0.00000610
  743      -16.3856170234      -0.0000000015     0.999984    0.00000608
  744      -16.3856170249      -0.0000000015     0.999984    0.00000605
  745      -16.3856170263      -0.0000000015     0.999984    0.00000603
  746      -16.3856170278      -0.0000000014     0.999984    0.00000601
  747      -16.3856170292      -0.0000000014     0.999984    0.00000599
  748      -16.3856170306      -0.0000000014     0.999984    0.00000597
  749      -16.3856170320      -0.0000000014     0.999984    0.00000595
  750      -16.3856170334      -0.0000000014     0.999984    0.00000593
  751      -16.3856170348      -0.0000000014     0.999984    0.00000591
  752      -16.3856170362      -0.0000000014     0.999984    0.00000589
  753      -16.3856170376      -0.0000000014     0.999984    0.00000587
  754      -16.3856170390      -0.0000000014     0.999984    0.00000585
  755      -16.3856170403      -0.0000000014     0.999984    0.00000583
  756      -16.3856170417      -0.0000000013     0.999984    0.00000580
  757      -16.3856170430      -0.0000000013     0.999984    0.00000578
  758      -16.3856170443      -0.0000000013     0.999984    0.00000576
  759      -16.3856170457      -0.0000000013     0.999984    0.00000574
  760      -16.3856170470      -0.0000000013     0.999984    0.00000572
  761      -16.3856170483      -0.0000000013     0.999984    0.00000570
  762      -16.3856170496      -0.0000000013     0.999984    0.00000568
  763      -16.3856170508      -0.0000000013     0.999984    0.00000566
  764      -16.3856170521      -0.0000000013     0.999984    0.00000564
  765      -16.3856170534      -0.0000000013     0.999984    0.00000562
  766      -16.3856170546      -0.0000000013     0.999984    0.00000560
  767      -16.3856170559      -0.0000000012     0.999984    0.00000558
  768      -16.3856170571      -0.0000000012     0.999984    0.00000556
  769      -16.3856170583      -0.0000000012     0.999984    0.00000554
  770      -16.3856170596      -0.0000000012     0.999984    0.00000552
  771      -16.3856170608      -0.0000000012     0.999984    0.00000551
  772      -16.3856170620      -0.0000000012     0.999984    0.00000549
  773      -16.3856170632      -0.0000000012     0.999984    0.00000547
  774      -16.3856170644      -0.0000000012     0.999984    0.00000545
  775      -16.3856170655      -0.0000000012     0.999984    0.00000543
  776      -16.3856170667      -0.0000000012     0.999984    0.00000541
  777      -16.3856170679      -0.0000000012     0.999984    0.00000539
  778      -16.3856170690      -0.0000000012     0.999984    0.00000537
  779      -16.3856170702      -0.0000000011     0.999984    0.00000535
  780      -16.3856170713      -0.0000000011     0.999984    0.00000533
  781      -16.3856170724      -0.0000000011     0.999984    0.00000531
  782      -16.3856170736      -0.0000000011     0.999984    0.00000529
  783      -16.3856170747      -0.0000000011     0.999984    0.00000528
  784      -16.3856170758      -0.0000000011     0.999984    0.00000526
  785      -16.3856170769      -0.0000000011     0.999984    0.00000524
  786      -16.3856170780      -0.0000000011     0.999984    0.00000522
  787      -16.3856170790      -0.0000000011     0.999984    0.00000520
  788      -16.3856170801      -0.0000000011     0.999984    0.00000518
  789      -16.3856170812      -0.0000000011     0.999984    0.00000516
  790      -16.3856170822      -0.0000000011     0.999984    0.00000514
  791      -16.3856170833      -0.0000000011     0.999984    0.00000513
  792      -16.3856170843      -0.0000000010     0.999984    0.00000511
  793      -16.3856170854      -0.0000000010     0.999984    0.00000509
  794      -16.3856170864      -0.0000000010     0.999984    0.00000507
  795      -16.3856170874      -0.0000000010     0.999984    0.00000505
  796      -16.3856170884      -0.0000000010     0.999984    0.00000504
  797      -16.3856170895      -0.0000000010     0.999984    0.00000502
  798      -16.3856170905      -0.0000000010     0.999984    0.00000500
  799      -16.3856170914      -0.0000000010     0.999984    0.00000498
  800      -16.3856170924      -0.0000000010     0.999984    0.00000496
  801      -16.3856170934      -0.0000000010     0.999984    0.00000495
  802      -16.3856170944      -0.0000000010     0.999984    0.00000493
  803      -16.3856170953      -0.0000000010     0.999984    0.00000491
  804      -16.3856170963      -0.0000000010     0.999984    0.00000489
  805      -16.3856170973      -0.0000000010     0.999984    0.00000488
  806      -16.3856170982      -0.0000000009     0.999984    0.00000486
  807      -16.3856170991      -0.0000000009     0.999984    0.00000484
  808      -16.3856171001      -0.0000000009     0.999984    0.00000482
  809      -16.3856171010      -0.0000000009     0.999984    0.00000481
  810      -16.3856171019      -0.0000000009     0.999984    0.00000479
  811      -16.3856171028      -0.0000000009     0.999984    0.00000477
  812      -16.3856171037      -0.0000000009     0.999984    0.00000475
  813      -16.3856171046      -0.0000000009     0.999984    0.00000474
  814      -16.3856171055      -0.0000000009     0.999984    0.00000472
  815      -16.3856171064      -0.0000000009     0.999984    0.00000470
  816      -16.3856171073      -0.0000000009     0.999984    0.00000469
  817      -16.3856171081      -0.0000000009     0.999984    0.00000467
  818      -16.3856171090      -0.0000000009     0.999984    0.00000465
  819      -16.3856171099      -0.0000000009     0.999984    0.00000463
  820      -16.3856171107      -0.0000000009     0.999984    0.00000462
  821      -16.3856171116      -0.0000000008     0.999984    0.00000460
  822      -16.3856171124      -0.0000000008     0.999984    0.00000458
  823      -16.3856171133      -0.0000000008     0.999984    0.00000457
  824      -16.3856171141      -0.0000000008     0.999984    0.00000455
  825      -16.3856171149      -0.0000000008     0.999984    0.00000453
  826      -16.3856171157      -0.0000000008     0.999984    0.00000452
  827      -16.3856171165      -0.0000000008     0.999984    0.00000450
  828      -16.3856171173      -0.0000000008     0.999984    0.00000449
  829      -16.3856171181      -0.0000000008     0.999984    0.00000447
  830      -16.3856171189      -0.0000000008     0.999984    0.00000445
  831      -16.3856171197      -0.0000000008     0.999984    0.00000444
  832      -16.3856171205      -0.0000000008     0.999984    0.00000442
  833      -16.3856171213      -0.0000000008     0.999984    0.00000440
  834      -16.3856171220      -0.0000000008     0.999984    0.00000439
  835      -16.3856171228      -0.0000000008     0.999984    0.00000437
  836      -16.3856171236      -0.0000000008     0.999984    0.00000436
  837      -16.3856171243      -0.0000000008     0.999984    0.00000434
  838      -16.3856171251      -0.0000000007     0.999984    0.00000432
  839      -16.3856171258      -0.0000000007     0.999984    0.00000431
  840      -16.3856171266      -0.0000000007     0.999984    0.00000429
  841      -16.3856171273      -0.0000000007     0.999984    0.00000428
  842      -16.3856171280      -0.0000000007     0.999984    0.00000426
  843      -16.3856171287      -0.0000000007     0.999984    0.00000425
  844      -16.3856171295      -0.0000000007     0.999984    0.00000423
  845      -16.3856171302      -0.0000000007     0.999984    0.00000422
  846      -16.3856171309      -0.0000000007     0.999984    0.00000420
  847      -16.3856171316      -0.0000000007     0.999984    0.00000418
  848      -16.3856171323      -0.0000000007     0.999984    0.00000417
  849      -16.3856171330      -0.0000000007     0.999984    0.00000415
  850      -16.3856171336      -0.0000000007     0.999984    0.00000414
  851      -16.3856171343      -0.0000000007     0.999984    0.00000412
  852      -16.3856171350      -0.0000000007     0.999984    0.00000411
  853      -16.3856171357      -0.0000000007     0.999984    0.00000409
  854      -16.3856171363      -0.0000000007     0.999984    0.00000408
  855      -16.3856171370      -0.0000000007     0.999984    0.00000406
  856      -16.3856171377      -0.0000000007     0.999984    0.00000405
  857      -16.3856171383      -0.0000000007     0.999984    0.00000403
  858      -16.3856171390      -0.0000000006     0.999984    0.00000402
  859      -16.3856171396      -0.0000000006     0.999984    0.00000400
  860      -16.3856171402      -0.0000000006     0.999984    0.00000399
  861      -16.3856171409      -0.0000000006     0.999984    0.00000397
  862      -16.3856171415      -0.0000000006     0.999984    0.00000396
  863      -16.3856171421      -0.0000000006     0.999984    0.00000395
  864      -16.3856171427      -0.0000000006     0.999984    0.00000393
  865      -16.3856171434      -0.0000000006     0.999984    0.00000392
  866      -16.3856171440      -0.0000000006     0.999984    0.00000390
  867      -16.3856171446      -0.0000000006     0.999984    0.00000389
  868      -16.3856171452      -0.0000000006     0.999984    0.00000387
  869      -16.3856171458      -0.0000000006     0.999984    0.00000386
  870      -16.3856171464      -0.0000000006     0.999984    0.00000384
  871      -16.3856171469      -0.0000000006     0.999984    0.00000383
  872      -16.3856171475      -0.0000000006     0.999984    0.00000382
  873      -16.3856171481      -0.0000000006     0.999984    0.00000380
  874      -16.3856171487      -0.0000000006     0.999984    0.00000379
  875      -16.3856171493      -0.0000000006     0.999984    0.00000377
  876      -16.3856171498      -0.0000000006     0.999984    0.00000376
  877      -16.3856171504      -0.0000000006     0.999984    0.00000375
  878      -16.3856171509      -0.0000000006     0.999984    0.00000373
  879      -16.3856171515      -0.0000000006     0.999984    0.00000372
  880      -16.3856171520      -0.0000000005     0.999984    0.00000371
  881      -16.3856171526      -0.0000000005     0.999984    0.00000369
  882      -16.3856171531      -0.0000000005     0.999984    0.00000368
  883      -16.3856171537      -0.0000000005     0.999984    0.00000366
  884      -16.3856171542      -0.0000000005     0.999984    0.00000365
  885      -16.3856171547      -0.0000000005     0.999984    0.00000364
  886      -16.3856171553      -0.0000000005     0.999984    0.00000362
  887      -16.3856171558      -0.0000000005     0.999984    0.00000361
  888      -16.3856171563      -0.0000000005     0.999984    0.00000360
  889      -16.3856171568      -0.0000000005     0.999984    0.00000358
  890      -16.3856171573      -0.0000000005     0.999984    0.00000357
  891      -16.3856171578      -0.0000000005     0.999984    0.00000356
  892      -16.3856171583      -0.0000000005     0.999984    0.00000354
  893      -16.3856171588      -0.0000000005     0.999984    0.00000353
  894      -16.3856171593      -0.0000000005     0.999984    0.00000352
  895      -16.3856171598      -0.0000000005     0.999984    0.00000350
  896      -16.3856171603      -0.0000000005     0.999984    0.00000349
  897      -16.3856171608      -0.0000000005     0.999984    0.00000348
  898      -16.3856171613      -0.0000000005     0.999984    0.00000347
  899      -16.3856171617      -0.0000000005     0.999984    0.00000345
  900      -16.3856171622      -0.0000000005     0.999984    0.00000344
  901      -16.3856171627      -0.0000000005     0.999984    0.00000343
  902      -16.3856171632      -0.0000000005     0.999984    0.00000341
  903      -16.3856171636      -0.0000000005     0.999984    0.00000340
  904      -16.3856171641      -0.0000000005     0.999984    0.00000339
  905      -16.3856171645      -0.0000000005     0.999984    0.00000338
  906      -16.3856171650      -0.0000000005     0.999984    0.00000336
  907      -16.3856171654      -0.0000000004     0.999984    0.00000335
  908      -16.3856171659      -0.0000000004     0.999984    0.00000334
  909      -16.3856171663      -0.0000000004     0.999984    0.00000333
  910      -16.3856171668      -0.0000000004     0.999984    0.00000331
  911      -16.3856171672      -0.0000000004     0.999984    0.00000330
  912      -16.3856171676      -0.0000000004     0.999984    0.00000329
  913      -16.3856171681      -0.0000000004     0.999984    0.00000328
  914      -16.3856171685      -0.0000000004     0.999984    0.00000326
  915      -16.3856171689      -0.0000000004     0.999984    0.00000325
  916      -16.3856171693      -0.0000000004     0.999984    0.00000324
  917      -16.3856171698      -0.0000000004     0.999984    0.00000323
  918      -16.3856171702      -0.0000000004     0.999984    0.00000322
  919      -16.3856171706      -0.0000000004     0.999984    0.00000320
  920      -16.3856171710      -0.0000000004     0.999984    0.00000319
  921      -16.3856171714      -0.0000000004     0.999984    0.00000318
  922      -16.3856171718      -0.0000000004     0.999984    0.00000317
  923      -16.3856171722      -0.0000000004     0.999984    0.00000316
  924      -16.3856171726      -0.0000000004     0.999984    0.00000314
  925      -16.3856171730      -0.0000000004     0.999984    0.00000313
  926      -16.3856171734      -0.0000000004     0.999984    0.00000312
  927      -16.3856171738      -0.0000000004     0.999984    0.00000311
  928      -16.3856171741      -0.0000000004     0.999984    0.00000310
  929      -16.3856171745      -0.0000000004     0.999984    0.00000309
  930      -16.3856171749      -0.0000000004     0.999984    0.00000307
  931      -16.3856171753      -0.0000000004     0.999984    0.00000306
  932      -16.3856171757      -0.0000000004     0.999984    0.00000305
  933      -16.3856171760      -0.0000000004     0.999984    0.00000304
  934      -16.3856171764      -0.0000000004     0.999984    0.00000303
  935      -16.3856171768      -0.0000000004     0.999984    0.00000302
  936      -16.3856171771      -0.0000000004     0.999984    0.00000301
  937      -16.3856171775      -0.0000000004     0.999984    0.00000299
  938      -16.3856171778      -0.0000000004     0.999984    0.00000298
  939      -16.3856171782      -0.0000000004     0.999984    0.00000297
  940      -16.3856171785      -0.0000000004     0.999984    0.00000296
  941      -16.3856171789      -0.0000000003     0.999984    0.00000295
  942      -16.3856171792      -0.0000000003     0.999984    0.00000294
  943      -16.3856171796      -0.0000000003     0.999984    0.00000293
  944      -16.3856171799      -0.0000000003     0.999984    0.00000292
  945      -16.3856171803      -0.0000000003     0.999984    0.00000290
  946      -16.3856171806      -0.0000000003     0.999984    0.00000289
  947      -16.3856171809      -0.0000000003     0.999984    0.00000288
  948      -16.3856171813      -0.0000000003     0.999984    0.00000287
  949      -16.3856171816      -0.0000000003     0.999984    0.00000286
  950      -16.3856171819      -0.0000000003     0.999984    0.00000285
  951      -16.3856171822      -0.0000000003     0.999984    0.00000284
  952      -16.3856171826      -0.0000000003     0.999984    0.00000283
  953      -16.3856171829      -0.0000000003     0.999984    0.00000282
  954      -16.3856171832      -0.0000000003     0.999984    0.00000281
  955      -16.3856171835      -0.0000000003     0.999984    0.00000280
  956      -16.3856171838      -0.0000000003     0.999984    0.00000279
  957      -16.3856171841      -0.0000000003     0.999984    0.00000278
  958      -16.3856171844      -0.0000000003     0.999984    0.00000277
  959      -16.3856171847      -0.0000000003     0.999984    0.00000275
  960      -16.3856171850      -0.0000000003     0.999984    0.00000274
  961      -16.3856171853      -0.0000000003     0.999984    0.00000273
  962      -16.3856171856      -0.0000000003     0.999984    0.00000272
  963      -16.3856171859      -0.0000000003     0.999984    0.00000271
  964      -16.3856171862      -0.0000000003     0.999984    0.00000270
  965      -16.3856171865      -0.0000000003     0.999984    0.00000269
  966      -16.3856171868      -0.0000000003     0.999984    0.00000268
  967      -16.3856171871      -0.0000000003     0.999984    0.00000267
  968      -16.3856171874      -0.0000000003     0.999984    0.00000266
  969      -16.3856171877      -0.0000000003     0.999984    0.00000265
  970      -16.3856171879      -0.0000000003     0.999984    0.00000264
  971      -16.3856171882      -0.0000000003     0.999984    0.00000263
  972      -16.3856171885      -0.0000000003     0.999984    0.00000262
  973      -16.3856171888      -0.0000000003     0.999984    0.00000261
  974      -16.3856171890      -0.0000000003     0.999984    0.00000260
  975      -16.3856171893      -0.0000000003     0.999984    0.00000259
  976      -16.3856171896      -0.0000000003     0.999984    0.00000258
  977      -16.3856171898      -0.0000000003     0.999984    0.00000257
  978      -16.3856171901      -0.0000000003     0.999984    0.00000256
  979      -16.3856171904      -0.0000000003     0.999984    0.00000255
  980      -16.3856171906      -0.0000000003     0.999984    0.00000254
  981      -16.3856171909      -0.0000000003     0.999984    0.00000253
  982      -16.3856171911      -0.0000000003     0.999984    0.00000252
  983      -16.3856171914      -0.0000000003     0.999984    0.00000251
  984      -16.3856171916      -0.0000000003     0.999984    0.00000251
  985      -16.3856171919      -0.0000000002     0.999984    0.00000250
  986      -16.3856171921      -0.0000000002     0.999984    0.00000249
  987      -16.3856171924      -0.0000000002     0.999984    0.00000248
  988      -16.3856171926      -0.0000000002     0.999984    0.00000247
  989      -16.3856171929      -0.0000000002     0.999984    0.00000246
  990      -16.3856171931      -0.0000000002     0.999984    0.00000245
  991      -16.3856171933      -0.0000000002     0.999984    0.00000244
  992      -16.3856171936      -0.0000000002     0.999984    0.00000243
  993      -16.3856171938      -0.0000000002     0.999984    0.00000242
  994      -16.3856171940      -0.0000000002     0.999984    0.00000241
  995      -16.3856171943      -0.0000000002     0.999984    0.00000240
  996      -16.3856171945      -0.0000000002     0.999984    0.00000239
  997      -16.3856171947      -0.0000000002     0.999984    0.00000238
  998      -16.3856171950      -0.0000000002     0.999984    0.00000237
  999      -16.3856171952      -0.0000000002     0.999984    0.00000237
 1000      -16.3856171954      -0.0000000002     0.999984    0.00000236

Total Energy:                      -16.3856171954 H         -445.8753 eV
Extrapolated to 0:                 -16.3570233666 H         -445.0973 eV

----------------------------------------------------------------------------------
 Solving CP-REKS equation for  1 state vector...
----------------------------------------------------------------------------------
  CG solver: Constructing Y initial guess
  CG solver: Iteration    1    eps =    0.027840875393
  CG solver: Iteration    2    eps =    0.007640327985
  CG solver: Iteration    3    eps =    0.001422368589
  CG solver: Iteration    4    eps =    0.001290874171
  CG solver: Iteration    5    eps =    0.002013644592
  CG solver: Iteration    6    eps =    0.002700141063
  CG solver: Iteration    7    eps =    0.004942818202
  CG solver: Iteration    8    eps =    0.008822764614
  CG solver: Iteration    9    eps =    0.006043624383
  CG solver: Iteration   10    eps =    0.000872229460
  CG solver: Iteration   11    eps =    0.000162161930
  CG solver: Iteration   12    eps =    0.000062188034
  CG solver: Iteration   13    eps =    0.000009584786
  CG solver: Iteration   14    eps =    0.000001708861
  CG solver: Iteration   15    eps =    0.000000473195
  CG solver: Iteration   16    eps =    0.000000016665
  CG solver: Iteration   17    eps =    0.000000001720
  Convergence reached in CG solver after   17 iterations
  CG solver: Calculating converged R, Z, Q2 matrix
----------------------------------------------------------------------------------

----------------------------------------------------------------------------------
 Solving CP-REKS equation for SI between  1 and  2 state vectors...
----------------------------------------------------------------------------------
  CG solver: Constructing Y initial guess
  CG solver: Iteration    1    eps =    0.070093323143
  CG solver: Iteration    2    eps =    0.006946215962
  CG solver: Iteration    3    eps =    0.003639374817
  CG solver: Iteration    4    eps =    0.001568075714
  CG solver: Iteration    5    eps =    0.006485822369
  CG solver: Iteration    6    eps =    0.029055500161
  CG solver: Iteration    7    eps =    0.025704552920
  CG solver: Iteration    8    eps =    0.003591873331
  CG solver: Iteration    9    eps =    0.001713835347
  CG solver: Iteration   10    eps =    0.000266485018
  CG solver: Iteration   11    eps =    0.000033886980
  CG solver: Iteration   12    eps =    0.000005310097
  CG solver: Iteration   13    eps =    0.000000824262
  CG solver: Iteration   14    eps =    0.000000043632
  CG solver: Iteration   15    eps =    0.000000001316
  Convergence reached in CG solver after   15 iterations
  CG solver: Calculating converged R, Z, Q2 matrix
----------------------------------------------------------------------------------

--------------------------------------------------
 Gradient Information
--------------------------------------------------
           1 st state (SSR)
     0.00000000     0.00000000     0.00000000
     0.00000000     0.00000000     0.00000000
     0.00000000     0.00000000     0.00000000
     0.00000000     0.00000000     0.00000000
     0.00000000     0.00000000     0.00000000
     0.00000000     0.00000000     0.00000000
     0.00000000     0.00000000     0.00000000
     0.00000000     0.00000000     0.00000000
     0.00000000     0.00000000     0.00000000
     0.00000000     0.00000000     0.00000000
     0.00000000     0.00000000     0.00000000
     0.00000000     0.00000000     0.00000000
     0.00000000     0.00000000     0.00000000
     0.00000000     0.00000000     0.00000000

           2 st state (SSR)
     0.00000000     0.00000000     0.00000000
     0.00000000     0.00000000     0.00000000
     0.00000000     0.00000000     0.00000000
     0.00000000     0.00000000     0.00000000
     0.00000000     0.00000000     0.00000000
     0.00000000     0.00000000     0.00000000
     0.00000000     0.00000000     0.00000000
     0.00000000     0.00000000     0.00000000
     0.00000000     0.00000000     0.00000000
     0.00000000     0.00000000     0.00000000
     0.00000000     0.00000000     0.00000000
     0.00000000     0.00000000     0.00000000
     0.00000000     0.00000000     0.00000000
     0.00000000     0.00000000     0.00000000
--------------------------------------------------
 Coupling Information
--------------------------------------------------
 between  1 and  2 states
--------------------------------------------------
 g vector - difference gradient
    -0.08415338    -0.09988751    -0.28344684
     0.08203159     0.09694178     0.70821353
     0.11297484    -0.10922679     0.05102442
    -0.10547163     0.14053057    -0.14908921
     0.00586004    -0.03733869    -0.10109732
    -0.05138989     0.01999790    -0.30992861
     0.00689324     0.02630816    -0.13260314
     0.01940280    -0.01075950     0.02291509
     0.13368201    -0.18839202     0.12458766
    -0.25513619     0.18097474     0.28431960
    -0.02438111    -0.17915001    -0.08420298
     0.10582930     0.14585856    -0.21220896
    -0.09801457     0.05421788    -0.00373086
     0.15187298    -0.04007507     0.08524763

 h vector - derivative coupling
     0.07442804     0.10311967     0.25737634
    -0.09871884     0.07718563    -0.62298745
    -0.15482653     0.10858071    -0.08432984
     0.14151576    -0.18787140     0.14064786
    -0.11613773     0.11486405     0.03548061
     0.05164274    -0.22037886     0.27275086
     0.15957177    -0.05505928     0.11920651
    -0.00970211    -0.01022243    -0.00427283
    -0.09756617     0.16178518    -0.13882106
     0.19015477    -0.06863742    -0.06856122
    -0.02602575     0.00774515    -0.00949929
    -0.12810055    -0.03608099     0.11634669
    -0.01716923    -0.00177190    -0.02921450
     0.03093383     0.00674189     0.01587733

 G vector - GDV
     0.00000000     0.00000000     0.00000000
     0.00000000     0.00000000     0.00000000
     0.00000000     0.00000000     0.00000000
     0.00000000     0.00000000     0.00000000
     0.00000000     0.00000000     0.00000000
     0.00000000     0.00000000     0.00000000
     0.00000000     0.00000000     0.00000000
     0.00000000     0.00000000     0.00000000
     0.00000000     0.00000000     0.00000000
     0.00000000     0.00000000     0.00000000
     0.00000000     0.00000000     0.00000000
     0.00000000     0.00000000     0.00000000
     0.00000000     0.00000000     0.00000000
     0.00000000     0.00000000     0.00000000

 H vector - DCV - non-adiabatic coupling
     0.00000000     0.00000000     0.00000000
     0.00000000     0.00000000     0.00000000
     0.00000000     0.00000000     0.00000000
     0.00000000     0.00000000     0.00000000
     0.00000000     0.00000000     0.00000000
     0.00000000     0.00000000     0.00000000
     0.00000000     0.00000000     0.00000000
     0.00000000     0.00000000     0.00000000
     0.00000000     0.00000000     0.00000000
     0.00000000     0.00000000     0.00000000
     0.00000000     0.00000000     0.00000000
     0.00000000     0.00000000     0.00000000
     0.00000000     0.00000000     0.00000000
     0.00000000     0.00000000     0.00000000
--------------------------------------------------

WARNING!
-> SCC is NOT converged, maximal SCC iterations exceeded

--------------------------------------------------------------------------------
DFTB+ running times                          cpu [s]             wall clock [s]
--------------------------------------------------------------------------------
SCC                                    +     1.41  ( 77.1%)      1.42  ( 77.0%)
      Sparse to dense                        0.08  (  4.1%)      0.09  (  4.6%)
      Dense to sparse                        0.26  ( 14.5%)      0.27  ( 14.8%)
      Range separated Hamiltonian            0.12  (  6.8%)      0.13  (  7.2%)
  Density matrix creation                    0.16  (  8.6%)      0.16  (  8.6%)
  Force calculation                          0.42  ( 22.8%)      0.42  ( 22.8%)
--------------------------------------------------------------------------------
Missing                                +     0.42  ( 22.9%)      0.42  ( 23.0%)
Total                                  =     1.83  (100.0%)      1.84  (100.0%)
--------------------------------------------------------------------------------
