|===============================================================================
|
|  DFTB+ release 20.1
|
|  Copyright (C) 2006 - 2020  DFTB+ developers group
|
|===============================================================================
|
|  When publishing results obtained with DFTB+, please cite the following
|  reference:
|
|  * DFTB+, a software package for efficient approximate density functional
|    theory based atomistic simulations, J. Chem. Phys. 152, 124101 (2020).
|    [doi: 10.1063/1.5143190]
|
|  You should also cite additional publications crediting the parametrization
|  data you use. Please consult the documentation of the SK-files for the
|  references.
|
|===============================================================================

Reading input file 'dftb_in.hsd'
Parser version: 8

--------------------------------------------------------------------------------
Reading SK-files:
Done.


Processed input in HSD format written to 'dftb_pin.hsd'

Starting initialization...
--------------------------------------------------------------------------------
OpenMP threads:              1
Chosen random seed:          452283808
Mode:                        Static calculation
Self consistent charges:     Yes
SCC-tolerance:                 0.100000E-05
Max. scc iterations:                   1000
Shell resolved Hubbard:      No
Spin polarisation:           No
Nr. of up electrons:             6.000000
Nr. of down electrons:           6.000000
Periodic boundaries:         No
Electronic solver:           Relatively robust
Maximal SCC-cycles:                    1000
Initial charges:             Set automatically (system chrg:   0.100E+01)
Included shells:             C:  s, p
                             N:  s, p
                             H:  s
Spin coupling constants:     C   1(s)-1(s):  -0.455900E-01
                             C   1(s)-2(p):  -0.293000E-01
                             C   2(p)-1(s):  -0.293000E-01
                             C   2(p)-2(p):  -0.275500E-01
                             N   1(s)-1(s):  -0.468700E-01
                             N   1(s)-2(p):  -0.317000E-01
                             N   2(p)-1(s):  -0.317000E-01
                             N   2(p)-2(p):  -0.307200E-01
                             H   1(s)-1(s):  -0.792500E-01
Range separated hybrid:      Yes
  Screening parameter omega:   0.300000E+00
  Range separated algorithm:   MatrixBased
Extra options:
                             Mulliken analysis
                             Force calculation
Force type                   original
                             Eigenvector printing


REKS Calcuation:             Yes
SSR(2,2) Calcuation:         Yes
Energy Functional:           (PPS+OSS)/2
Number of Core Orbitals:                  5
Number of Active Orbitals:                2
Number of Basis:                         12
Number of States:                         2
State-Averaging Weight:          0.500000
                                 0.500000
State of Interest:                        1
Initial Guess:               Diagonalize H0 matrix
Newton-Raphson for FON opt:  Yes
NR max. Iterations:                      50
Level Shifting:              Yes
Shift Value:                     0.300000
W Scale Factor:              C  =    3.200000
                             N  =    3.200000
                             H  =    3.200000
Transition Dipole:           No
Gradient of Microstate:      No
CP-REKS Solver:              Preconditioned Conjugate-Gradient
CG max. Iterations:                     100
CG Tolerance:                  0.100000E-07
Memory for A and Hxc:        Direct Updating Without Saving
Non-Adiabatic Coupling:      Yes

--------------------------------------------------------------------------------

***  Geometry step: 0

  iSCC       reks energy        Diff energy         x_a       SCC error   
    1       -6.2040448444       0.0000000000     0.997337    1.12527103
    2       -6.2116214332      -0.0075765888     0.999031    0.04437286
    3       -6.2136325327      -0.0020110995     0.999488    0.01543525
    4       -6.2142594296      -0.0006268969     0.999652    0.00779011
    5       -6.2144802829      -0.0002208534     0.999725    0.00455176
    6       -6.2145670434      -0.0000867605     0.999762    0.00364667
    7       -6.2146044040      -0.0000373605     0.999784    0.00274719
    8       -6.2146218757      -0.0000174717     0.999797    0.00203191
    9       -6.2146306985      -0.0000088228     0.999805    0.00150331
   10       -6.2146354801      -0.0000047817     0.999811    0.00112136
   11       -6.2146382402      -0.0000027601     0.999815    0.00084575
   12       -6.2146399220      -0.0000016818     0.999818    0.00064530
   13       -6.2146409937      -0.0000010718     0.999820    0.00049786
   14       -6.2146417019      -0.0000007081     0.999822    0.00038807
   15       -6.2146421832      -0.0000004814     0.999823    0.00030533
   16       -6.2146425178      -0.0000003345     0.999824    0.00024227
   17       -6.2146427542      -0.0000002364     0.999825    0.00019372
   18       -6.2146429235      -0.0000001693     0.999826    0.00015599
   19       -6.2146430459      -0.0000001224     0.999826    0.00012775
   20       -6.2146431350      -0.0000000891     0.999827    0.00010760
   21       -6.2146432003      -0.0000000653     0.999827    0.00009093
   22       -6.2146432484      -0.0000000480     0.999827    0.00007705
   23       -6.2146432838      -0.0000000355     0.999828    0.00006546
   24       -6.2146433100      -0.0000000262     0.999828    0.00005573
   25       -6.2146433295      -0.0000000194     0.999828    0.00004754
   26       -6.2146433439      -0.0000000144     0.999828    0.00004075
   27       -6.2146433546      -0.0000000107     0.999828    0.00003504
   28       -6.2146433626      -0.0000000080     0.999828    0.00003015
   29       -6.2146433685      -0.0000000059     0.999829    0.00002595
   30       -6.2146433729      -0.0000000044     0.999829    0.00002235
   31       -6.2146433762      -0.0000000033     0.999829    0.00001925
   32       -6.2146433787      -0.0000000024     0.999829    0.00001659
   33       -6.2146433805      -0.0000000018     0.999829    0.00001430
   34       -6.2146433819      -0.0000000014     0.999829    0.00001233
   35       -6.2146433829      -0.0000000010     0.999829    0.00001063
   36       -6.2146433836      -0.0000000008     0.999829    0.00000917
   37       -6.2146433842      -0.0000000006     0.999829    0.00000791
   38       -6.2146433846      -0.0000000004     0.999829    0.00000682
   39       -6.2146433849      -0.0000000003     0.999829    0.00000589
   40       -6.2146433852      -0.0000000002     0.999829    0.00000508
   41       -6.2146433853      -0.0000000002     0.999829    0.00000438
   42       -6.2146433855      -0.0000000001     0.999829    0.00000378
   43       -6.2146433856      -0.0000000001     0.999829    0.00000327
   44       -6.2146433856      -0.0000000001     0.999829    0.00000282
   45       -6.2146433857      -0.0000000001     0.999829    0.00000243
   46       -6.2146433857      -0.0000000000     0.999829    0.00000210
   47       -6.2146433858      -0.0000000000     0.999829    0.00000181
   48       -6.2146433858      -0.0000000000     0.999829    0.00000157
   49       -6.2146433858      -0.0000000000     0.999829    0.00000135
   50       -6.2146433858      -0.0000000000     0.999829    0.00000117
   51       -6.2146433858      -0.0000000000     0.999829    0.00000101
   52       -6.2146433858      -0.0000000000     0.999829    0.00000087
  
--------------------------------------------------
 Final SA-REKS(2,2) energy:      -6.21464339
  
 State     Energy      FON(1)    FON(2)   Spin
  PPS   -6.28846842   1.999658  0.000342  0.00
  OSS   -6.14081835   1.000000  1.000000  0.00
 Trip   -6.20599828   1.000000  1.000000  1.00
--------------------------------------------------

 Lagrangian Wab:  -0.01770238 -0.01770277

--------------------------------------------------
 SSR: 2SI-2SA-REKS(2,2) Hamiltonian matrix
               PPS           OSS
   PPS    -6.28846842   -0.02470555
   OSS    -0.02470555   -6.14081835
--------------------------------------------------

----------------------------------------------------------------
 SSR: 2SI-2SA-REKS(2,2) states
                    E_n       C_{PPS}    C_{OSS}
 SSR state  1   -6.29249260  -0.986992  -0.160767
 SSR state  2   -6.13679417   0.160767  -0.986992
----------------------------------------------------------------

 unrelaxed SSR FONs for S0:  1.973821  0.026179

Total Energy:                       -6.2924925997 H         -171.2274 eV
Extrapolated to 0:                  -6.2924925997 H         -171.2274 eV

----------------------------------------------------------------------------------
 Solving CP-REKS equation for  1 state vector...
----------------------------------------------------------------------------------
  CG solver: Constructing Y initial guess
  CG solver: Iteration    1    eps =    0.000588825610
  CG solver: Iteration    2    eps =    0.000215087864
  CG solver: Iteration    3    eps =    0.000070321263
  CG solver: Iteration    4    eps =    0.000013573859
  CG solver: Iteration    5    eps =    0.000001337151
  CG solver: Iteration    6    eps =    0.000000081570
  CG solver: Iteration    7    eps =    0.000000005030
  Convergence reached in CG solver after    7 iterations
  CG solver: Calculating converged R, Z, Q2 matrix
----------------------------------------------------------------------------------

----------------------------------------------------------------------------------
 Solving CP-REKS equation for SI between  1 and  2 state vectors...
----------------------------------------------------------------------------------
  CG solver: Constructing Y initial guess
  CG solver: Iteration    1    eps =    0.012702019300
  CG solver: Iteration    2    eps =    0.007135036971
  CG solver: Iteration    3    eps =    0.000517747016
  CG solver: Iteration    4    eps =    0.000060267462
  CG solver: Iteration    5    eps =    0.000003901769
  CG solver: Iteration    6    eps =    0.000000107606
  CG solver: Iteration    7    eps =    0.000000014082
  CG solver: Iteration    8    eps =    0.000000001276
  Convergence reached in CG solver after    8 iterations
  CG solver: Calculating converged R, Z, Q2 matrix
----------------------------------------------------------------------------------

--------------------------------------------------
 Gradient Information
--------------------------------------------------
           1 st state (SSR)
    -0.11859836    -0.06096632     0.06675421
     0.15293699     0.00930239     0.04846998
     0.04029085    -0.00245449    -0.02057959
    -0.09504566     0.00190529    -0.01035973
    -0.02780525     0.00791527    -0.03714852
     0.04822142     0.04429787    -0.04713635

           2 st state (SSR)
    -0.04493726    -0.04505138     0.12447169
     0.08484461    -0.01907272    -0.06556001
     0.01299978     0.02524637     0.00094144
    -0.08136839    -0.01111237    -0.00234811
    -0.00371808     0.05155861    -0.02477923
     0.03217933    -0.00156850    -0.03272578
--------------------------------------------------
 Coupling Information
--------------------------------------------------
 between  1 and  2 states
--------------------------------------------------
 g vector - difference gradient
    -0.03016822    -0.00728885    -0.04274106
     0.02684778     0.01091755     0.06886773
     0.01396231    -0.01870707    -0.01058824
    -0.00398192     0.01237335    -0.00124419
    -0.01210573    -0.02572004    -0.00856093
     0.00544578     0.02842506    -0.00573331

 h vector - derivative coupling
    -0.02590751    -0.00329414     0.03678244
     0.02705590     0.01208236    -0.02613139
     0.00127607     0.01225656    -0.00226752
    -0.00965034    -0.01646415    -0.00890475
    -0.00177603     0.00809467     0.00609341
     0.00900190    -0.01267531    -0.00557220

 G vector - GDV
    -0.03683055    -0.00795747    -0.02885874
     0.03404619     0.01418755     0.05701499
     0.01364553    -0.01385043    -0.01076052
    -0.00683863     0.00650883    -0.00400581
    -0.01204359    -0.02182167    -0.00618465
     0.00802105     0.02293319    -0.00720529

 H vector - DCV - non-adiabatic coupling
    -0.09630394    -0.00520705     0.31114650
     0.11006630     0.05133710    -0.29952693
    -0.02068649     0.11278025     0.00777071
    -0.05066091    -0.12549761    -0.05169994
     0.01385723     0.10172567     0.05456221
     0.04372781    -0.13513836    -0.02225256
--------------------------------------------------


--------------------------------------------------------------------------------
DFTB+ running times                          cpu [s]             wall clock [s]
--------------------------------------------------------------------------------
SCC                                    +     0.02  ( 65.6%)      0.02  ( 60.0%)
Post-SCC processing                    +     0.01  ( 31.2%)      0.01  ( 30.0%)
  Force calculation                          0.01  ( 30.6%)      0.01  ( 25.0%)
--------------------------------------------------------------------------------
Missing                                +     0.00  (  3.3%)      0.00  ( 10.0%)
Total                                  =     0.03  (100.0%)      0.04  (100.0%)
--------------------------------------------------------------------------------
