|===============================================================================
|
|  DFTB+ release 20.1
|
|  Copyright (C) 2006 - 2020  DFTB+ developers group
|
|===============================================================================
|
|  When publishing results obtained with DFTB+, please cite the following
|  reference:
|
|  * DFTB+, a software package for efficient approximate density functional
|    theory based atomistic simulations, J. Chem. Phys. 152, 124101 (2020).
|    [doi: 10.1063/1.5143190]
|
|  You should also cite additional publications crediting the parametrization
|  data you use. Please consult the documentation of the SK-files for the
|  references.
|
|===============================================================================

Reading input file 'dftb_in.hsd'
Parser version: 8

--------------------------------------------------------------------------------
Reading SK-files:
Done.


Processed input in HSD format written to 'dftb_pin.hsd'

Starting initialization...
--------------------------------------------------------------------------------
OpenMP threads:              1
Chosen random seed:          508212769
Mode:                        Static calculation
Self consistent charges:     Yes
SCC-tolerance:                 0.100000E-05
Max. scc iterations:                   1000
Shell resolved Hubbard:      No
Spin polarisation:           No
Nr. of up electrons:             6.000000
Nr. of down electrons:           6.000000
Periodic boundaries:         No
Electronic solver:           Relatively robust
Maximal SCC-cycles:                    1000
Initial charges:             Set automatically (system chrg:   0.100E+01)
Included shells:             C:  s, p
                             N:  s, p
                             H:  s
Spin coupling constants:     C   1(s)-1(s):  -0.455900E-01
                             C   1(s)-2(p):  -0.293000E-01
                             C   2(p)-1(s):  -0.293000E-01
                             C   2(p)-2(p):  -0.275500E-01
                             N   1(s)-1(s):  -0.468700E-01
                             N   1(s)-2(p):  -0.317000E-01
                             N   2(p)-1(s):  -0.317000E-01
                             N   2(p)-2(p):  -0.307200E-01
                             H   1(s)-1(s):  -0.792500E-01
Range separated hybrid:      Yes
  Screening parameter omega:   0.300000E+00
  Range separated algorithm:   MatrixBased
Extra options:
                             Mulliken analysis
                             Force calculation
Force type                   original
                             Eigenvector printing


REKS Calcuation:             Yes
SSR(2,2) Calcuation:         Yes
Energy Functional:           (PPS+OSS)/2
Number of Core Orbitals:                  5
Number of Active Orbitals:                2
Number of Basis:                         12
Number of States:                         2
State-Averaging Weight:          0.500000
                                 0.500000
State of Interest:                        1
Initial Guess:               Diagonalize H0 matrix
Newton-Raphson for FON opt:  Yes
NR max. Iterations:                      50
Level Shifting:              Yes
Shift Value:                     0.300000
W Scale Factor:              C  =    3.000000
                             N  =    3.000000
                             H  =    3.000000
Transition Dipole:           No
Gradient of Microstate:      No
CP-REKS Solver:              Preconditioned Conjugate-Gradient
CG max. Iterations:                     100
CG Tolerance:                  0.100000E-07
Memory for A and Hxc:        Direct Updating Without Saving
Non-Adiabatic Coupling:      Yes

--------------------------------------------------------------------------------

***  Geometry step: 0

  iSCC       reks energy        Diff energy         x_a       SCC error   
    1       -6.2601967280       0.0000000000     0.999253    1.18770040
    2       -6.2740854751      -0.0138887471     0.999701    0.10379044
    3       -6.2789018343      -0.0048163592     0.999838    0.04775326
    4       -6.2817243594      -0.0028225251     0.999898    0.02359032
    5       -6.2836302339      -0.0019058745     0.999928    0.01216294
    6       -6.2849617829      -0.0013315490     0.999944    0.01052661
    7       -6.2858817273      -0.0009199444     0.999953    0.00975998
    8       -6.2865001672      -0.0006184399     0.999959    0.00858074
    9       -6.2869040429      -0.0004038757     0.999962    0.00730351
   10       -6.2871613785      -0.0002573356     0.999964    0.00608779
   11       -6.2873223305      -0.0001609520     0.999966    0.00500611
   12       -6.2874217362      -0.0000994057     0.999966    0.00408113
   13       -6.2874826679      -0.0000609316     0.999967    0.00330910
   14       -6.2875198851      -0.0000372172     0.999967    0.00267424
   15       -6.2875426069      -0.0000227219     0.999967    0.00215689
   16       -6.2875565035      -0.0000138966     0.999967    0.00173759
   17       -6.2875650304      -0.0000085269     0.999967    0.00139883
   18       -6.2875702845      -0.0000052541     0.999967    0.00112566
   19       -6.2875735373      -0.0000032528     0.999967    0.00090561
   20       -6.2875755608      -0.0000020235     0.999967    0.00072845
   21       -6.2875768255      -0.0000012648     0.999967    0.00058589
   22       -6.2875776196      -0.0000007941     0.999967    0.00047118
   23       -6.2875781202      -0.0000005006     0.999967    0.00037890
   24       -6.2875784369      -0.0000003167     0.999967    0.00030467
   25       -6.2875786380      -0.0000002010     0.999967    0.00024496
   26       -6.2875787660      -0.0000001280     0.999967    0.00019695
   27       -6.2875788476      -0.0000000817     0.999967    0.00015833
   28       -6.2875788998      -0.0000000522     0.999967    0.00012728
   29       -6.2875789333      -0.0000000334     0.999967    0.00010269
   30       -6.2875789547      -0.0000000214     0.999967    0.00008299
   31       -6.2875789685      -0.0000000138     0.999967    0.00006703
   32       -6.2875789773      -0.0000000089     0.999967    0.00005411
   33       -6.2875789830      -0.0000000057     0.999967    0.00004366
   34       -6.2875789867      -0.0000000037     0.999967    0.00003521
   35       -6.2875789890      -0.0000000024     0.999967    0.00002839
   36       -6.2875789906      -0.0000000015     0.999967    0.00002288
   37       -6.2875789915      -0.0000000010     0.999967    0.00001843
   38       -6.2875789922      -0.0000000006     0.999967    0.00001485
   39       -6.2875789926      -0.0000000004     0.999967    0.00001195
   40       -6.2875789928      -0.0000000003     0.999967    0.00000962
   41       -6.2875789930      -0.0000000002     0.999967    0.00000775
   42       -6.2875789931      -0.0000000001     0.999967    0.00000623
   43       -6.2875789932      -0.0000000001     0.999967    0.00000502
   44       -6.2875789932      -0.0000000000     0.999967    0.00000404
   45       -6.2875789933      -0.0000000000     0.999967    0.00000325
   46       -6.2875789933      -0.0000000000     0.999967    0.00000261
   47       -6.2875789933      -0.0000000000     0.999967    0.00000210
   48       -6.2875789933      -0.0000000000     0.999967    0.00000169
   49       -6.2875789933      -0.0000000000     0.999967    0.00000136
   50       -6.2875789933      -0.0000000000     0.999967    0.00000109
   51       -6.2875789933      -0.0000000000     0.999967    0.00000088
  
--------------------------------------------------
 Final SA-REKS(2,2) energy:      -6.28757899
  
 State     Energy      FON(1)    FON(2)   Spin
  PPS   -6.41643798   1.999934  0.000066  0.00
  OSS   -6.15872000   1.000000  1.000000  0.00
 Trip   -6.23773359   1.000000  1.000000  1.00
--------------------------------------------------

 Lagrangian Wab:  -0.00231099 -0.00231090

--------------------------------------------------
 SSR: 2SI-2SA-REKS(2,2) Hamiltonian matrix
               PPS           OSS
   PPS    -6.41643798   -0.00324937
   OSS    -0.00324937   -6.15872000
--------------------------------------------------

----------------------------------------------------------------
 SSR: 2SI-2SA-REKS(2,2) states
                    E_n       C_{PPS}    C_{OSS}
 SSR state  1   -6.41647895  -0.999921  -0.012605
 SSR state  2   -6.15867904   0.012605  -0.999921
----------------------------------------------------------------

 unrelaxed SSR FONs for S0:  1.999775  0.000225

Total Energy:                       -6.4164789453 H         -174.6013 eV
Extrapolated to 0:                  -6.4164789453 H         -174.6013 eV

----------------------------------------------------------------------------------
 Solving CP-REKS equation for  1 state vector...
----------------------------------------------------------------------------------
  CG solver: Constructing Y initial guess
  CG solver: Iteration    1    eps =    0.000040339162
  CG solver: Iteration    2    eps =    0.000006712376
  CG solver: Iteration    3    eps =    0.000000356227
  CG solver: Iteration    4    eps =    0.000000042860
  CG solver: Iteration    5    eps =    0.000000006155
  Convergence reached in CG solver after    5 iterations
  CG solver: Calculating converged R, Z, Q2 matrix
----------------------------------------------------------------------------------

----------------------------------------------------------------------------------
 Solving CP-REKS equation for SI between  1 and  2 state vectors...
----------------------------------------------------------------------------------
  CG solver: Constructing Y initial guess
  CG solver: Iteration    1    eps =    0.000693383557
  CG solver: Iteration    2    eps =    0.000598781489
  CG solver: Iteration    3    eps =    0.000145524443
  CG solver: Iteration    4    eps =    0.000002117377
  CG solver: Iteration    5    eps =    0.000000310980
  CG solver: Iteration    6    eps =    0.000000010852
  CG solver: Iteration    7    eps =    0.000000000309
  Convergence reached in CG solver after    7 iterations
  CG solver: Calculating converged R, Z, Q2 matrix
----------------------------------------------------------------------------------

--------------------------------------------------
 Gradient Information
--------------------------------------------------
           1 st state (SSR)
     0.00477458    -0.00045458    -0.01148654
    -0.01412053     0.00511132     0.00751471
    -0.00575616     0.00132919     0.00120825
    -0.00087943    -0.00512073     0.00496757
     0.01055170     0.00150481    -0.00001358
     0.00542983    -0.00237001    -0.00219041

           2 st state (SSR)
    -0.00620165    -0.00850705     0.08551638
     0.01047824     0.01099657    -0.10789868
     0.00389847     0.01637102     0.02026007
     0.00317205    -0.00914064    -0.00636372
    -0.00858011     0.00708647    -0.00786400
    -0.00276700    -0.01680636     0.01634995
--------------------------------------------------
 Coupling Information
--------------------------------------------------
 between  1 and  2 states
--------------------------------------------------
 g vector - difference gradient
     0.00548333     0.00407407    -0.04860293
    -0.01230904    -0.00303837     0.05775778
    -0.00500399    -0.00755779    -0.00952565
    -0.00220302     0.00200198     0.00569640
     0.00975957    -0.00270993     0.00393431
     0.00427315     0.00723004    -0.00925990

 h vector - derivative coupling
     0.00025910    -0.00184636     0.00341258
     0.00022796     0.00376002    -0.00129837
     0.00694551     0.00136741    -0.00013019
     0.00700455     0.00034184    -0.00114809
    -0.00755919    -0.00324343    -0.00031156
    -0.00687793    -0.00037947    -0.00052437

 G vector - GDV
     0.00548812     0.00402624    -0.04850146
    -0.01229938    -0.00294262     0.05770669
    -0.00482731    -0.00752091    -0.00952591
    -0.00202574     0.00200996     0.00566565
     0.00956591    -0.00279083     0.00392521
     0.00409841     0.00721817    -0.00927018

 H vector - DCV - non-adiabatic coupling
     0.00046856    -0.00755810     0.01798566
     0.00208758     0.01487749    -0.01068248
     0.02742221     0.00604148     0.00042662
     0.02737727     0.00112981    -0.00500901
    -0.03026693    -0.01231220    -0.00159287
    -0.02708869    -0.00217848    -0.00112791
--------------------------------------------------


--------------------------------------------------------------------------------
DFTB+ running times                          cpu [s]             wall clock [s]
--------------------------------------------------------------------------------
SCC                                    +     0.02  ( 67.2%)      0.02  ( 63.3%)
--------------------------------------------------------------------------------
Missing                                +     0.01  ( 32.8%)      0.01  ( 36.7%)
Total                                  =     0.03  (100.0%)      0.03  (100.0%)
--------------------------------------------------------------------------------
