 Fermi distribution function

Calculation with static geometry


********************************************************************************
 iSCC Total electronic   Diff electronic      SCC error    
   11   -0.53791558E+01   -0.14348522E-10    0.70007386E-07
********************************************************************************

 Total charge:     1.00000000

 Atomic gross charges (e)
 Atom           Charge
    1       0.30569148
    2      -0.20463459
    3       0.14480954
    4       0.29960017
    5       0.28920505
    6       0.16532835

Nr. of electrons (up):     12.00000000
Atom populations (up)
 Atom       Population
    1       3.69430852
    2       5.20463459
    3       0.85519046
    4       0.70039983
    5       0.71079495
    6       0.83467165

l-shell populations (up)
 Atom Sh.   l       Population
    1   1   0       1.30997534
    1   2   1       2.38433318
    2   1   0       1.41219229
    2   2   1       3.79244230
    3   1   0       0.85519046
    4   1   0       0.70039983
    5   1   0       0.71079495
    6   1   0       0.83467165

Orbital populations (up)
 Atom Sh.   l   m       Population  Label
    1   1   0   0       1.30997534  s
    1   2   1  -1       0.52430873  p_y
    1   2   1   0       0.88858365  p_z
    1   2   1   1       0.97144079  p_x
    2   1   0   0       1.41219229  s
    2   2   1  -1       1.32397055  p_y
    2   2   1   0       1.07640395  p_z
    2   2   1   1       1.39206780  p_x
    3   1   0   0       0.85519046  s
    4   1   0   0       0.70039983  s
    5   1   0   0       0.71079495  s
    6   1   0   0       0.83467165  s

Fermi level:                        -0.4852765068 H          -13.2050 eV
Band energy:                        -8.8180653614 H         -239.9518 eV
TS:                                  0.0000000000 H            0.0000 eV
Band free energy (E-TS):            -8.8180653614 H         -239.9518 eV
Extrapolated E(0K):                 -8.8180653614 H         -239.9518 eV
Input / Output electrons (q):     12.0000000000     12.0000000000

Energy H0:                          -5.5110578449 H         -149.9635 eV
Energy SCC:                          0.1319020850 H            3.5892 eV
Total Electronic energy:            -5.3791557600 H         -146.3743 eV
Repulsive energy:                    0.1871062690 H            5.0914 eV
Total energy:                       -5.1920494910 H         -141.2829 eV
Extrapolated to 0:                  -5.1920494910 H         -141.2829 eV
Total Mermin free energy:           -5.1920494910 H         -141.2829 eV
Force related energy:               -5.1920494910 H         -141.2829 eV

SCC converged

Excitation Energy:                   0.0868116903 H            2.3623 eV

Total Forces
    1     -0.004656538947     -0.010689820823      0.036227235534
    2      0.009544262723      0.000720124188     -0.040850201543
    3     -0.006844643179      0.015707540094      0.006565925351
    4     -0.015326271409     -0.008061478174     -0.003004779018
    5      0.009354271645      0.012821348924      0.000154100321
    6      0.007928919166     -0.010497714209      0.000907719355

Maximal derivative component:        0.408502E-01 au


