|===============================================================================
|
|  DFTB+ release 20.2.1
|
|  Copyright (C) 2006 - 2020  DFTB+ developers group
|
|===============================================================================
|
|  When publishing results obtained with DFTB+, please cite the following
|  reference:
|
|  * DFTB+, a software package for efficient approximate density functional
|    theory based atomistic simulations, J. Chem. Phys. 152, 124101 (2020).
|    [doi: 10.1063/1.5143190]
|
|  You should also cite additional publications crediting the parametrization
|  data you use. Please consult the documentation of the SK-files for the
|  references.
|
|===============================================================================

Reading input file 'dftb_in.hsd'
Parser version: 9

--------------------------------------------------------------------------------
***  Converting input from parser version  8 to parser version  9 ...
***  Done.

Reading SK-files:
Done.


Processed input in HSD format written to 'dftb_pin.hsd'

Starting initialization...
--------------------------------------------------------------------------------
OpenMP threads:              1
Chosen random seed:          114080585
Mode:                        Static calculation
Self consistent charges:     Yes
SCC-tolerance:                 0.100000E-05
Max. scc iterations:                    100
Shell resolved Hubbard:      No
Spin polarisation:           No
Nr. of up electrons:           120.000000
Nr. of down electrons:         120.000000
Periodic boundaries:         No
Electronic solver:           Relatively robust
Mixer:                       Broyden mixer
Mixing parameter:                  0.200000
Maximal SCC-cycles:                     100
Nr. of chrg. vec. in memory:              0
Electronic temperature:        0.100000E-07 H      0.272114E-06 eV
Initial charges:             Set automatically (system chrg:   0.000E+00)
Included shells:             C:  s, p
Extra options:
                             Mulliken analysis
                             Force calculation
Force type                   original
                             Eigenvector printing

--------------------------------------------------------------------------------

***  Geometry step: 0

 iSCC Total electronic   Diff electronic      SCC error    
    1    0.00000000E+00    0.00000000E+00    0.51763256E-01
    2   -0.10741650E+03   -0.10741650E+03    0.37634191E-01
    3   -0.10741696E+03   -0.46419024E-03    0.77338853E-02
    4   -0.10741708E+03   -0.11583101E-03    0.28849948E-02
    5   -0.10741711E+03   -0.31754686E-04    0.44782392E-03
    6   -0.10741712E+03   -0.32955127E-05    0.23357588E-03
    7   -0.10741712E+03   -0.21194126E-07    0.36068596E-04
    8   -0.10741712E+03   -0.80905380E-08    0.16805189E-04
    9   -0.10741712E+03   -0.35539927E-09    0.27809477E-05
   10   -0.10741712E+03   -0.39534598E-10    0.45398609E-06
>> Charges saved for restart in charges.bin
 
Total Energy:                     -103.1633635571 H        -2807.2180 eV
Extrapolated to 0K:               -103.1633635571 H        -2807.2180 eV
Total Mermin free energy:         -103.1633635571 H        -2807.2180 eV
Force related energy:             -103.1633635571 H        -2807.2180 eV
 
 
--------------------------------------------------------------------------------
DFTB+ running times                          cpu [s]             wall clock [s]
--------------------------------------------------------------------------------
SCC                                    +     0.29  ( 85.2%)      0.47  ( 81.9%)
  Diagonalisation                            0.19  ( 54.1%)      0.19  ( 33.6%)
Post-SCC processing                    +     0.04  ( 11.1%)      0.07  ( 13.1%)
  Eigenvector writing                        0.00  (  1.3%)      0.04  (  7.0%)
  Force calculation                          0.03  (  9.7%)      0.03  (  5.9%)
Post-geometry optimisation             +     0.00  (  0.6%)      0.01  (  2.0%)
--------------------------------------------------------------------------------
Missing                                +     0.01  (  3.1%)      0.02  (  3.0%)
Total                                  =     0.35  (100.0%)      0.57  (100.0%)
--------------------------------------------------------------------------------
