     6
  Step:   300            Position(A)                                  Velocity(au)
C        -0.02890565     0.01101470     0.03067784     0.00002227    -0.00002926    -0.00004665
N        -0.03578459    -0.04743718     1.28451472    -0.00000579    -0.00005564     0.00006306
H         0.06105933     0.94600727    -0.52219817    -0.00143600    -0.00000343    -0.00010938
H        -0.38559820    -0.89019814     1.76942003    -0.00150912     0.00088514     0.00015536
H        -0.02246130     0.72927970     1.95066774     0.00136867    -0.00008560     0.00010709
H        -0.02422109    -0.92689492    -0.52147335     0.00139144     0.00032576    -0.00047352
