 Fermi distribution function

Calculation with static geometry


********************************************************************************
 iSCC Total electronic   Diff electronic      SCC error    
    9   -0.54386778E+01   -0.63948846E-13    0.73656830E-06
********************************************************************************

 Total charge:     1.00000000

 Atomic gross charges (e)
 Atom           Charge
    1       0.13290609
    2      -0.01142438
    3       0.16127935
    4       0.27196530
    5       0.27065935
    6       0.17461429

Nr. of electrons (up):     12.00000000
Atom populations (up)
 Atom       Population
    1       3.86709391
    2       5.01142438
    3       0.83872065
    4       0.72803470
    5       0.72934065
    6       0.82538571

l-shell populations (up)
 Atom Sh.   l       Population
    1   1   0       1.30246345
    1   2   1       2.56463046
    2   1   0       1.41481303
    2   2   1       3.59661135
    3   1   0       0.83872065
    4   1   0       0.72803470
    5   1   0       0.72934065
    6   1   0       0.82538571

Orbital populations (up)
 Atom Sh.   l   m       Population  Label
    1   1   0   0       1.30246345  s
    1   2   1  -1       0.63127029  p_y
    1   2   1   0       0.87903256  p_z
    1   2   1   1       1.05432761  p_x
    2   1   0   0       1.41481303  s
    2   2   1  -1       1.34245588  p_y
    2   2   1   0       1.10628187  p_z
    2   2   1   1       1.14787359  p_x
    3   1   0   0       0.83872065  s
    4   1   0   0       0.72803470  s
    5   1   0   0       0.72934065  s
    6   1   0   0       0.82538571  s

Fermi level:                        -0.4927309849 H          -13.4079 eV
Band energy:                        -8.9886955582 H         -244.5949 eV
TS:                                  0.0000000000 H            0.0000 eV
Band free energy (E-TS):            -8.9886955582 H         -244.5949 eV
Extrapolated E(0K):                 -8.9886955582 H         -244.5949 eV
Input / Output electrons (q):     12.0000000000     12.0000000000

Energy H0:                          -5.5733431397 H         -151.6584 eV
Energy SCC:                          0.1346653558 H            3.6644 eV
Total Electronic energy:            -5.4386777840 H         -147.9940 eV
Repulsive energy:                    0.2011944545 H            5.4748 eV
Total energy:                       -5.2374833294 H         -142.5192 eV
Extrapolated to 0:                  -5.2374833294 H         -142.5192 eV
Total Mermin free energy:           -5.2374833294 H         -142.5192 eV
Force related energy:               -5.2374833294 H         -142.5192 eV

SCC converged

Excitation Energy:                   0.1633554136 H            4.4451 eV

Total Forces
    1     -0.002509974624     -0.005586697345     -0.018430685701
    2     -0.005356678833      0.010251679388      0.001047361163
    3     -0.003733431383     -0.002443996501      0.004515686206
    4     -0.001285774396      0.000768613486      0.006311814138
    5      0.007863922324     -0.005714891926      0.002781315363
    6      0.005021936911      0.002725292897      0.003774508832

Maximal derivative component:        0.184307E-01 au


