     6
  Step:     0            Position(A)                                  Velocity(au)
C        -0.03921990     0.02592536     0.00799294     0.00007273     0.00004339    -0.00011032
N        -0.04533766    -0.05757468     1.31143539     0.00007954    -0.00015015     0.00005855
H         0.90839965    -0.05791086    -0.55143780    -0.00093733     0.00012649     0.00054476
H         0.87509139    -0.16713926     1.87739784    -0.00005314     0.00063084     0.00011301
H        -0.91008844     0.01186226     1.75129170    -0.00071576     0.00083919    -0.00011892
H        -0.98896548     0.03455962    -0.50462268    -0.00026571    -0.00002702    -0.00003786
     6
  Step:     1            Position(A)                                  Velocity(au)
C        -0.03879706     0.02617190     0.00732620     0.00008102     0.00004686    -0.00013279
N        -0.04481527    -0.05841140     1.31182012     0.00011036    -0.00015589     0.00008219
H         0.90334521    -0.05722077    -0.54865473    -0.00090231     0.00012515     0.00046721
H         0.87426581    -0.16363530     1.87779821    -0.00024682     0.00065057     0.00003499
H        -0.91474845     0.01653137     1.75125860    -0.00097530     0.00086882     0.00009992
H        -0.99072315     0.03438603    -0.50517422    -0.00037462    -0.00003666    -0.00016178
     6
  Step:     2            Position(A)                                  Velocity(au)
C        -0.03833393     0.02643783     0.00654081     0.00008741     0.00005052    -0.00015381
N        -0.04413081    -0.05927938     1.31233411     0.00013849    -0.00016167     0.00010592
H         0.89853271    -0.05654229    -0.54632878    -0.00084966     0.00012235     0.00037801
H         0.87239233    -0.16002516     1.87778041    -0.00043498     0.00067008    -0.00003881
H        -0.92075360     0.02136301     1.75238434    -0.00120417     0.00089884     0.00030264
H        -0.99306200     0.03415874    -0.50639178    -0.00047726    -0.00004671    -0.00028089
     6
  Step:     3            Position(A)                                  Velocity(au)
C        -0.03784166     0.02672415     0.00564494     0.00009160     0.00005433    -0.00017322
N        -0.04330147    -0.06017852     1.31297791     0.00016304    -0.00016726     0.00012967
H         0.89405798    -0.05588339    -0.54452288    -0.00077919     0.00011803     0.00027724
H         0.86951127    -0.15631099     1.87737396    -0.00061377     0.00068859    -0.00010607
H        -0.92791066     0.02635614     1.75456663    -0.00139348     0.00092751     0.00048464
H        -0.99593989     0.03387543    -0.50824448    -0.00057068    -0.00005718    -0.00039354
     6
  Step:     4            Position(A)                                  Velocity(au)
C        -0.03733275     0.02703160     0.00464757     0.00009338     0.00005821    -0.00019082
N        -0.04234889    -0.06110748     1.31375132     0.00018320    -0.00017243     0.00015318
H         0.89001639    -0.05525227    -0.54329866    -0.00069137     0.00011217     0.00016550
H         0.86568404    -0.15249913     1.87662111    -0.00077890     0.00070528    -0.00016429
H        -0.93598387     0.03150040     1.75768134    -0.00153621     0.00095309     0.00064218
H        -0.99929927     0.03353381    -0.51069307    -0.00065199    -0.00006801    -0.00049806
     6
  Step:     5            Position(A)                                  Velocity(au)
C        -0.03682077     0.02736057     0.00355868     0.00009259     0.00006211    -0.00020642
N        -0.04129857    -0.06206369     1.31465256     0.00019833    -0.00017695     0.00017608
H         0.88649928    -0.05465706    -0.54271353    -0.00058746     0.00010482     0.00004401
H         0.86099565    -0.14860027     1.87557784    -0.00092571     0.00071935    -0.00021084
H        -0.94470584     0.03677613     1.76158751    -0.00162758     0.00097390     0.00077252
H        -1.00306802     0.03313185    -0.51368971    -0.00071861    -0.00007915    -0.00059279
     6
  Step:     6            Position(A)                                  Velocity(au)
C        -0.03631980     0.02771106     0.00238931     0.00008921     0.00006593    -0.00021981
N        -0.04017909    -0.06304338     1.31567763     0.00020796    -0.00018062     0.00019789
H         0.88358943    -0.05410556    -0.54281714    -0.00046966     0.00009609    -0.00008530
H         0.85555648    -0.14462930     1.87431447    -0.00104947     0.00073009    -0.00024312
H        -0.95379005     0.04215513     1.76613289    -0.00166534     0.00098855     0.00087405
H        -1.00716104     0.03266794    -0.51717832    -0.00076839    -0.00009047    -0.00067624
     6
  Step:     7            Position(A)                                  Velocity(au)
C        -0.03584380     0.02808262     0.00115149     0.00008334     0.00006960    -0.00023085
N        -0.03902116    -0.06404170     1.31681968     0.00021180    -0.00018327     0.00021806
H         0.88135591    -0.05360470    -0.54364770    -0.00034109     0.00008621    -0.00021991
H         0.84950254    -0.14060477     1.87291538    -0.00114564     0.00073697    -0.00025868
H        -0.96294360     0.04760211     1.77115958    -0.00164977     0.00099600     0.00094635
H        -1.01148292     0.03214111    -0.52109548    -0.00079981    -0.00010185    -0.00074723
     6
  Step:     8            Position(A)                                  Velocity(au)
C        -0.03540593     0.02847430    -0.00014203     0.00007521     0.00007304    -0.00023945
N        -0.03785658    -0.06505299     1.31806880     0.00020980    -0.00018479     0.00023606
H         0.87984918    -0.05316017    -0.54522859    -0.00020568     0.00007546    -0.00035678
H         0.84299395    -0.13654800     1.87147790    -0.00121029     0.00073967    -0.00025546
H        -0.97188065     0.05307675     1.77651016    -0.00158352     0.00099563     0.00099012
H        -1.01593135     0.03155112    -0.52537206    -0.00081207    -0.00011315    -0.00080494
     6
  Step:     9            Position(A)                                  Velocity(au)
C        -0.03501789     0.02888474    -0.00147811     0.00006515     0.00007617    -0.00024562
N        -0.03671718    -0.06607109     1.31941207     0.00020210    -0.00018516     0.00025139
H         0.87909715    -0.05277599    -0.54756586    -0.00006787     0.00006418    -0.00049260
H         0.83621126    -0.13248177     1.87010998    -0.00124049     0.00073813    -0.00023196
H        -0.98033367     0.05853599     1.78203300    -0.00147122     0.00098730     0.00100706
H        -1.02040103     0.03089852    -0.52993528    -0.00080515    -0.00012424    -0.00084904
     6
  Step:    10            Position(A)                                  Velocity(au)
C        -0.03468933     0.02931217    -0.00284367     0.00005359     0.00007895    -0.00024943
N        -0.03563362    -0.06708966     1.32083391     0.00018905    -0.00018439     0.00026365
H         0.87910268    -0.05245423    -0.55064697     0.00006771     0.00005275    -0.00062401
H         0.82934923    -0.12842895     1.86892648    -0.00123463     0.00073255    -0.00018747
H        -0.98806329     0.06393653     1.78758726    -0.00131895     0.00097129     0.00099966
H        -1.02478753     0.03018460    -0.53471105    -0.00077968    -0.00013499    -0.00087962
     6
  Step:    11            Position(A)                                  Velocity(au)
C        -0.03442750     0.02975451    -0.00422617     0.00004099     0.00008132    -0.00025105
N        -0.03463441    -0.06810255     1.32231674     0.00017114    -0.00018256     0.00027258
H         0.87984309    -0.05219487    -0.55444085     0.00019655     0.00004153    -0.00074788
H         0.82260890    -0.12441100     1.86804455    -0.00119266     0.00072337    -0.00012217
H        -0.99486498     0.06923701     1.79304658    -0.00113361     0.00094823     0.00097096
H        -1.02899102     0.02941130    -0.53962639    -0.00073697    -0.00014529    -0.00089725
     6
  Step:    12            Position(A)                                  Velocity(au)
C        -0.03423701     0.03020950    -0.00561391     0.00002784     0.00008328    -0.00025069
N        -0.03374510    -0.06910408     1.32384174     0.00014904    -0.00017979     0.00027809
H         0.88127148    -0.05199593    -0.55889949     0.00031461     0.00003090    -0.00086144
H         0.81618867    -0.12044684     1.86757839    -0.00111616     0.00071124    -0.00003718
H        -1.00057224     0.07439987     1.79830141    -0.00092250     0.00091903     0.00092434
H        -1.03291975     0.02858138    -0.54461183    -0.00067881    -0.00015508    -0.00090285
     6
  Step:    13            Position(A)                                  Velocity(au)
C        -0.03411987     0.03067476    -0.00699647     0.00001458     0.00008482    -0.00024863
N        -0.03298739    -0.07008933     1.32538980     0.00012350    -0.00017625     0.00028023
H         0.88331970    -0.05185339    -0.56396020     0.00041855     0.00002118    -0.00096249
H         0.81027475    -0.11655139     1.86763364    -0.00100833     0.00069697     0.00006538
H        -1.00505913     0.07939284     1.80326098    -0.00069284     0.00088479     0.00086327
H        -1.03649229     0.02769760    -0.54960337    -0.00060729    -0.00016436    -0.00089764
     6
  Step:    14            Position(A)                                  Velocity(au)
C        -0.03407567     0.03114797    -0.00836485     0.00000162     0.00008596    -0.00024512
N        -0.03237864    -0.07105425     1.32694235     0.00009532    -0.00017212     0.00027918
H         0.88590257    -0.05176159    -0.56954903     0.00050585     0.00001262    -0.00104943
H         0.80503190    -0.11273516     1.86830178    -0.00087384     0.00068139     0.00018252
H        -1.00823820     0.08418973     1.80785319    -0.00045127     0.00084665     0.00079113
H        -1.03963918     0.02676282    -0.55454387    -0.00052464    -0.00017314    -0.00088298
     6
  Step:    15            Position(A)                                  Velocity(au)
C        -0.03410189     0.03162685    -0.00971153    -0.00001070     0.00008671    -0.00024043
N        -0.03193160    -0.07199577     1.32848218     0.00006535    -0.00016755     0.00027526
H         0.88892280    -0.05171359    -0.57558426     0.00057488     0.00000541    -0.00112128
H         0.80059565    -0.10900397     1.86965529    -0.00071852     0.00066532     0.00031047
H        -1.01005768     0.08877079     1.81202398    -0.00020383     0.00080576     0.00071106
H        -1.04230344     0.02577986    -0.55938375    -0.00043309    -0.00018144    -0.00086029
     6
  Step:    16            Position(A)                                  Velocity(au)
C        -0.03419429     0.03210930    -0.01103036    -0.00002212     0.00008712    -0.00023481
N        -0.03165420    -0.07291176     1.32999394     0.00003443    -0.00016272     0.00026883
H         0.89227584    -0.05170156    -0.58197986     0.00062479    -0.00000032    -0.00117758
H         0.79706621    -0.10535925     1.87174369    -0.00054905     0.00064948     0.00044487
H        -1.01049787     0.09312260     1.81573614     0.00004419     0.00076320     0.00062591
H        -1.04444050     0.02475137    -0.56408123    -0.00033480    -0.00018930    -0.00083094
     6
  Step:    17            Position(A)                                  Velocity(au)
C        -0.03434728     0.03259338    -0.01231646    -0.00003244     0.00008721    -0.00022843
N        -0.03154961    -0.07380098     1.33146455     0.00000341    -0.00015776     0.00026030
H         0.89585422    -0.05171715    -0.58864831     0.00065544    -0.00000452    -0.00121828
H         0.79450445    -0.10179865     1.87459068    -0.00037260     0.00063443     0.00058099
H        -1.00956740     0.09723775     1.81896782     0.00028811     0.00071997     0.00053827
H        -1.04601767     0.02367975    -0.56860213    -0.00023179    -0.00019678    -0.00079622
     6
  Step:    18            Position(A)                                  Velocity(au)
C        -0.03455432     0.03307734    -0.01356594    -0.00004150     0.00008700    -0.00022145
N        -0.03161636    -0.07466292     1.33288331    -0.00002692    -0.00015279     0.00025010
H         0.89955123    -0.05175175    -0.59550286     0.00066725    -0.00000718    -0.00124368
H         0.79293032    -0.09831697     1.87819268    -0.00019639     0.00062057     0.00071391
H        -1.00729979     0.10111434     1.82171097     0.00052378     0.00067697     0.00045045
H        -1.04701343     0.02256712    -0.57291933    -0.00012596    -0.00020391    -0.00075731
     6
  Step:    19            Position(A)                                  Velocity(au)
C        -0.03480818     0.03355957    -0.01477565    -0.00004923     0.00008653    -0.00021397
N        -0.03184856    -0.07549770     1.33424189    -0.00005580    -0.00014789     0.00023861
H         0.90326404    -0.05179687    -0.60245938     0.00066115    -0.00000833    -0.00125433
H         0.79232355    -0.09490721     1.88251873    -0.00002735     0.00060808     0.00083886
H        -1.00375085     0.10475551     1.82397010     0.00074738     0.00063503     0.00036458
H        -1.04741650     0.02141532    -0.57701212    -0.00001906    -0.00021074    -0.00071527
     6
  Step:    20            Position(A)                                  Velocity(au)
C        -0.03510127     0.03403865    -0.01594298    -0.00005558     0.00008582    -0.00020605
N        -0.03223626    -0.07630591     1.33553413    -0.00008254    -0.00014315     0.00022620
H         0.90689615    -0.05184426    -0.60943764     0.00063842    -0.00000803    -0.00125102
H         0.79262645    -0.09156162     1.88751184     0.00012822     0.00059699     0.00095139
H        -0.99899688     0.10816907     1.82576124     0.00095538     0.00059495     0.00028266
H        -1.04722513     0.02022593    -0.58086549     0.00008729    -0.00021730    -0.00067104
     6
  Step:    21            Position(A)                                  Velocity(au)
C        -0.03542581     0.03451327    -0.01706558    -0.00006051     0.00008488    -0.00019775
N        -0.03276587    -0.07708851     1.33675573    -0.00010654    -0.00013861     0.00021317
H         0.91035901    -0.05188614    -0.61636229     0.00060061    -0.00000639    -0.00123466
H         0.79374854    -0.08827265     1.89309177     0.00026502     0.00058720     0.00104767
H        -0.99313345     0.11136731     1.82711136     0.00114440     0.00055752     0.00020659
H        -1.04644642     0.01900035    -0.58446955     0.00019154    -0.00022364    -0.00062550
     6
  Step:    22            Position(A)                                  Velocity(au)
C        -0.03577400     0.03498226    -0.01814134    -0.00006406     0.00008375    -0.00018908
N        -0.03342063    -0.07784680     1.33790396    -0.00012727    -0.00013433     0.00019976
H         0.91357318    -0.05191525    -0.62316355     0.00054945    -0.00000349    -0.00120638
H         0.79557272    -0.08503364     1.89915894     0.00037892     0.00057850     0.00112472
H        -0.98627446     0.11436703     1.82805797     0.00131129     0.00052355     0.00013824
H        -1.04509576     0.01773969    -0.58781920     0.00029226    -0.00022980    -0.00057948
     6
  Step:    23            Position(A)                                  Velocity(au)
C        -0.03613818     0.03544458    -0.01916827    -0.00006625     0.00008245    -0.00018008
N        -0.03418121    -0.07858235     1.33897725    -0.00014436    -0.00013037     0.00018618
H         0.91646936    -0.05192498    -0.62977811     0.00048688     0.00000052    -0.00116744
H         0.79796246    -0.08183925     1.90559952     0.00046718     0.00057067     0.00118054
H        -0.97855088     0.11718963     1.82864874     0.00145322     0.00049392     0.00007939
H        -1.04319621     0.01644482    -0.59091380     0.00038817    -0.00023584    -0.00053380
     6
  Step:    24            Position(A)                                  Velocity(au)
C        -0.03651093     0.03589941    -0.02014452    -0.00006714     0.00008103    -0.00017078
N        -0.03502642    -0.07929707     1.33997496    -0.00015753    -0.00012681     0.00017254
H         0.91898918    -0.05190941    -0.63615005     0.00041489     0.00000554    -0.00111932
H         0.80076957    -0.07868556     1.91229112     0.00052844     0.00056349     0.00121420
H        -0.97010898     0.11986132     1.82894110     0.00156777     0.00046951     0.00003172
H        -1.04077782     0.01511619    -0.59375710     0.00047813    -0.00024187    -0.00048924
     6
  Step:    25            Position(A)                                  Velocity(au)
C        -0.03688522     0.03634611    -0.02106840    -0.00006683     0.00007953    -0.00016123
N        -0.03593389    -0.07999324     1.34089696    -0.00016667    -0.00012371     0.00015895
H         0.92108546    -0.05186333    -0.64223158     0.00033549     0.00001143    -0.00106355
H         0.80384182    -0.07556991     1.91910868     0.00056266     0.00055679     0.00122583
H        -0.96110792     0.12241336     1.82900169     0.00165307     0.00045126    -0.00000322
H        -1.03787656     0.01375373    -0.59635711     0.00056124    -0.00024802    -0.00044659
     6
  Step:    26            Position(A)                                  Velocity(au)
C        -0.03725450     0.03678433    -0.02193844    -0.00006540     0.00007802    -0.00015148
N        -0.03688082    -0.08067356     1.34174347    -0.00017177    -0.00012117     0.00014543
H         0.92272190    -0.05178220    -0.64798343     0.00025053     0.00001809    -0.00100173
H         0.80702989    -0.07249056     1.92593004     0.00057096     0.00055048     0.00121645
H        -0.95171638     0.12488212     1.82890531     0.00170795     0.00044008    -0.00002411
H        -1.03453323     0.01235661    -0.59872597     0.00063686    -0.00025446    -0.00040655
     6
  Step:    27            Position(A)                                  Velocity(au)
C        -0.03761275     0.03721401    -0.02275345    -0.00006295     0.00007654    -0.00014156
N        -0.03784469    -0.08134121     1.34251477    -0.00017295    -0.00011928     0.00013199
H         0.92387243    -0.05166205    -0.65337510     0.00016174     0.00002543    -0.00093542
H         0.81019334    -0.06944623     1.93264078     0.00055535     0.00054454     0.00118783
H        -0.94210825     0.12730892     1.82873346     0.00173193     0.00043687    -0.00002991
H        -1.03079199     0.01092307    -0.60087968     0.00070457    -0.00026138    -0.00036978
     6
  Step:    28            Position(A)                                  Velocity(au)
C        -0.03795450     0.03763543    -0.02351246    -0.00005959     0.00007517    -0.00013152
N        -0.03880390    -0.08199985     1.34321104    -0.00017042    -0.00011812     0.00011857
H         0.92452031    -0.05149947    -0.65838453     0.00007059     0.00003336    -0.00086602
H         0.81320498    -0.06643567     1.93913778     0.00051840     0.00053900     0.00114215
H        -0.93245868     0.12973974     1.82857277     0.00172517     0.00044242    -0.00001984
H        -1.02669903     0.00945024    -0.60283767     0.00076417    -0.00026902    -0.00033684
     6
  Step:    29            Position(A)                                  Velocity(au)
C        -0.03827490     0.03804918    -0.02421472    -0.00005542     0.00007394    -0.00012137
N        -0.03973818    -0.08265365     1.34383223    -0.00016443    -0.00011778     0.00010513
H         0.92465674    -0.05129140    -0.66299737    -0.00002169     0.00004184    -0.00079475
H         0.81595328    -0.06345739     1.94533112     0.00046293     0.00053392     0.00108175
H        -0.92293993     0.13222468     1.82851302     0.00168848     0.00045743     0.00000650
H        -1.02230140     0.00793401    -0.60462234     0.00081561    -0.00027760    -0.00030819
     6
  Step:    30            Position(A)                                  Velocity(au)
C        -0.03856960     0.03845617    -0.02485957    -0.00005050     0.00007292    -0.00011111
N        -0.04062898    -0.08330715     1.34437793    -0.00015530    -0.00011832     0.00009158
H         0.92427952    -0.05103508    -0.66720586    -0.00011413     0.00005083    -0.00072258
H         0.81834329    -0.06050943     1.95114469     0.00039184     0.00052933     0.00100897
H        -0.91371733     0.13481703     1.82864489     0.00162318     0.00048243     0.00004914
H        -1.01764613     0.00636899    -0.60625839     0.00085893    -0.00028736    -0.00028415
     6
  Step:    31            Position(A)                                  Velocity(au)
C        -0.03883469     0.03885754    -0.02544639    -0.00004491     0.00007214    -0.00010071
N        -0.04145971    -0.08396523     1.34484740    -0.00014336    -0.00011977     0.00007784
H         0.92339158    -0.05072789    -0.67100740    -0.00020592     0.00006033    -0.00065022
H         0.82029695    -0.05758954     1.95651591     0.00030789     0.00052527     0.00092594
H        -0.90494629     0.13757265     1.82905780     0.00153115     0.00051773     0.00010771
H        -1.01277984     0.00474849    -0.60777223     0.00089413    -0.00029851    -0.00026498
     6
  Step:    32            Position(A)                                  Velocity(au)
C        -0.03906667     0.03925466    -0.02597437    -0.00003870     0.00007162    -0.00009013
N        -0.04221581    -0.08463294     1.34523953    -0.00012896    -0.00012216     0.00006384
H         0.92200018    -0.05036728    -0.67440332    -0.00029637     0.00007032    -0.00057821
H         0.82175136    -0.05469511     1.96139415     0.00021362     0.00052173     0.00083456
H        -0.89676870     0.14054794     1.82983714     0.00141484     0.00056334     0.00018130
H        -1.00774882     0.00306471    -0.60919147     0.00092115    -0.00031123    -0.00025084
     6
  Step:    33            Position(A)                                  Velocity(au)
C        -0.03926237     0.03964904    -0.02644245    -0.00003192     0.00007138    -0.00007929
N        -0.04288497    -0.08531530     1.34555296    -0.00011251    -0.00012545     0.00004955
H         0.92011618    -0.04995071    -0.67739765    -0.00038483     0.00008080    -0.00050688
H         0.82265786    -0.05182348     1.96573937     0.00011142     0.00051866     0.00073649
H        -0.88930967     0.14379860     1.83106145     0.00127735     0.00061897     0.00026845
H        -1.00259942     0.00130881    -0.61054447     0.00093984    -0.00032568    -0.00024183
     6
  Step:    34            Position(A)                                  Velocity(au)
C        -0.03941885     0.04004228    -0.02684927    -0.00002461     0.00007144    -0.00006814
N        -0.04345722    -0.08601719     1.34578631    -0.00009442    -0.00012960     0.00003498
H         0.91775387    -0.04947567    -0.67999629    -0.00047065     0.00009178    -0.00043650
H         0.82298076    -0.04897216     1.96952070     0.00000351     0.00051597     0.00063321
H        -0.88267420     0.14737780     1.83279931     0.00112245     0.00068401     0.00036714
H        -0.99737850    -0.00052886    -0.61185988     0.00094996    -0.00034197    -0.00023798
     6
  Step:    35            Position(A)                                  Velocity(au)
C        -0.03953345     0.04043603    -0.02719312    -0.00001681     0.00007179    -0.00005660
N        -0.04392514    -0.08674313     1.34593832    -0.00007516    -0.00013453     0.00002017
H         0.91493106    -0.04893963    -0.68220650    -0.00055307     0.00010322    -0.00036729
H         0.82269648    -0.04613908     1.97271539    -0.00010796     0.00051355     0.00052609
H        -0.87694373     0.15133428     1.83510622     0.00095460     0.00075744     0.00047470
H        -0.99213378    -0.00245861    -0.61316626     0.00095124    -0.00036018    -0.00023923
     6
  Step:    36            Position(A)                                  Velocity(au)
C        -0.03960382     0.04083199    -0.02747198    -0.00000860     0.00007243    -0.00004464
N        -0.04428403    -0.08749712     1.34600817    -0.00005525    -0.00014011     0.00000522
H         0.91166957    -0.04834012    -0.68403675    -0.00063126     0.00011513    -0.00029949
H         0.82179310    -0.04332265     1.97530820    -0.00022085     0.00051128     0.00041650
H        -0.87217277     0.15571034     1.83802140     0.00077893     0.00083791     0.00058788
H        -0.98691397    -0.00449120    -0.61449158     0.00094344    -0.00038038    -0.00024544
     6
  Step:    37            Position(A)                                  Velocity(au)
C        -0.03962797     0.04123183    -0.02768356    -0.00000005     0.00007337    -0.00003221
N        -0.04453211    -0.08828248     1.34599564    -0.00003523    -0.00014622    -0.00000973
H         0.90799578    -0.04767477    -0.68549681    -0.00070422     0.00012746    -0.00023339
H         0.82027017    -0.04052192     1.97729124    -0.00033298     0.00050903     0.00030580
H        -0.86838599     0.16053992     1.84156500     0.00060108     0.00092367     0.00070297
H        -0.98176873    -0.00663763    -0.61586278     0.00092634    -0.00040256    -0.00025638
     6
  Step:    38            Position(A)                                  Velocity(au)
C        -0.03960436     0.04163719    -0.02782541     0.00000875     0.00007459    -0.00001929
N        -0.04467068    -0.08910174     1.34590139    -0.00001569    -0.00015268    -0.00002450
H         0.90394133    -0.04694137    -0.68659803    -0.00077089     0.00014017    -0.00016937
H         0.81813894    -0.03773650     1.97866407    -0.00044212     0.00050669     0.00019545
H        -0.86557645     0.16584680     1.84573588     0.00042693     0.00101270     0.00081589
H        -0.97674822    -0.00890893    -0.61730516     0.00089986    -0.00042670    -0.00027171
     6
  Step:    39            Position(A)                                  Velocity(au)
C        -0.03953205     0.04204967    -0.02789502     0.00001767     0.00007609    -0.00000589
N        -0.04470412    -0.08995649     1.34572706     0.00000281    -0.00015932    -0.00003889
H         0.89954374    -0.04613798    -0.68735375    -0.00083004     0.00015319    -0.00010786
H         0.81542274    -0.03496658     1.97943415    -0.00054594     0.00050415     0.00008701
H        -0.86370515     0.17164323     1.85051043     0.00026233     0.00110275     0.00092242
H        -0.97190260    -0.01131593    -0.61884180     0.00086407    -0.00045271    -0.00029095
     6
  Step:    40            Position(A)                                  Velocity(au)
C        -0.03941077     0.04247082    -0.02788994     0.00002657     0.00007784     0.00000795
N        -0.04463988    -0.09084736     1.34547531     0.00001971    -0.00016596    -0.00005271
H         0.89484701    -0.04526295    -0.68777976    -0.00088042     0.00016646    -0.00004940
H         0.81215740    -0.03221284     1.97961737    -0.00064202     0.00050134    -0.00001784
H        -0.86270222     0.17792904     1.85584232     0.00011281     0.00119145     0.00101842
H        -0.96728112    -0.01386900    -0.62049288     0.00081922    -0.00048047    -0.00031349
     6
  Step:    41            Position(A)                                  Velocity(au)
C        -0.03924110     0.04290207    -0.02780794     0.00003528     0.00007982     0.00002218
N        -0.04448830    -0.09177399     1.34514986     0.00003449    -0.00017241    -0.00006576
H         0.88990190    -0.04431505    -0.68789476    -0.00092073     0.00017988     0.00000539
H         0.80839175    -0.02947628     1.97923873    -0.00072790     0.00049820    -0.00011733
H        -0.86246972     0.18469125     1.86166355    -0.00001678     0.00127643     0.00110007
H        -0.96293102    -0.01657776    -0.62227492     0.00076584    -0.00050981    -0.00033858
     6
  Step:    42            Position(A)                                  Velocity(au)
C        -0.03902455     0.04334478    -0.02764714     0.00004361     0.00008203     0.00003670
N        -0.04426230    -0.09273504     1.34475535     0.00004670    -0.00017850    -0.00007788
H         0.88476610    -0.04329350    -0.68772076    -0.00094972     0.00019337     0.00005585
H         0.80418781    -0.02675812     1.97833279    -0.00080112     0.00049475    -0.00020959
H        -0.86288593     0.19190444     1.86788672    -0.00012248     0.00135547     0.00116405
H        -0.95889611    -0.01945084    -0.62419994     0.00070472    -0.00054052    -0.00036534
     6
  Step:    43            Position(A)                                  Velocity(au)
C        -0.03876366     0.04380014    -0.02740616     0.00005137     0.00008442     0.00005140
N        -0.04397699    -0.09372829     1.34429720     0.00005599    -0.00018408    -0.00008894
H         0.87950384    -0.04219797    -0.68728329    -0.00096625     0.00020683     0.00010129
H         0.79962060    -0.02405952     1.97694404    -0.00085936     0.00049101    -0.00029278
H        -0.86381072     0.19953166     1.87440818    -0.00020143     0.00142657     0.00120776
H        -0.95521534    -0.02249563    -0.62627482     0.00063694    -0.00057233    -0.00039275
     6
  Step:    44            Position(A)                                  Velocity(au)
C        -0.03846204     0.04426922    -0.02708430     0.00005836     0.00008698     0.00006615
N        -0.04364923    -0.09475080     1.34378139     0.00006208    -0.00018904    -0.00009886
H         0.87418528    -0.04102861    -0.68661155    -0.00096936     0.00022020     0.00014104
H         0.79477747    -0.02138137     1.97512674    -0.00090048     0.00048708    -0.00036513
H        -0.86509166     0.20752604     1.88111219    -0.00025195     0.00148816     0.00122945
H        -0.95192139    -0.02571808    -0.62850068     0.00056382    -0.00060498    -0.00041973
     6