     6
  Step:   120            Position(A)                                  Velocity(au)
C        -0.03114594     0.05571461    -0.19140870     0.00001341     0.00014225     0.00015383
N        -0.03468890    -0.00223554     1.49721386     0.00012026     0.00009240    -0.00008728
H         0.92616684    -0.06140357    -0.71985844    -0.00002996     0.00027003     0.00002735
H         0.68244516    -0.71566079     1.79615608    -0.00162939    -0.00135465    -0.00146269
H        -0.97397570    -0.16225715     1.90337387    -0.00058320     0.00029767     0.00012989
H        -0.99437992    -0.36328587    -0.61260924     0.00041162    -0.00219213     0.00068528
