 Fermi distribution function

Calculation with static geometry


********************************************************************************
 iSCC Total electronic   Diff electronic      SCC error    
   10   -0.53960384E+01   -0.39968029E-12    0.18589429E-06
********************************************************************************

 Total charge:     1.00000000

 Atomic gross charges (e)
 Atom           Charge
    1       0.17313525
    2      -0.07065287
    3       0.14410755
    4       0.28435695
    5       0.27341603
    6       0.19563709

Nr. of electrons (up):     12.00000000
Atom populations (up)
 Atom       Population
    1       3.82686475
    2       5.07065287
    3       0.85589245
    4       0.71564305
    5       0.72658397
    6       0.80436291

l-shell populations (up)
 Atom Sh.   l       Population
    1   1   0       1.31703797
    1   2   1       2.50982678
    2   1   0       1.42397114
    2   2   1       3.64668173
    3   1   0       0.85589245
    4   1   0       0.71564305
    5   1   0       0.72658397
    6   1   0       0.80436291

Orbital populations (up)
 Atom Sh.   l   m       Population  Label
    1   1   0   0       1.31703797  s
    1   2   1  -1       0.58709311  p_y
    1   2   1   0       0.88018662  p_z
    1   2   1   1       1.04254705  p_x
    2   1   0   0       1.42397114  s
    2   2   1  -1       1.30200227  p_y
    2   2   1   0       1.11693632  p_z
    2   2   1   1       1.22774313  p_x
    3   1   0   0       0.85589245  s
    4   1   0   0       0.71564305  s
    5   1   0   0       0.72658397  s
    6   1   0   0       0.80436291  s

Fermi level:                        -0.4948230444 H          -13.4648 eV
Band energy:                        -8.9047857784 H         -242.3115 eV
TS:                                  0.0000000000 H            0.0000 eV
Band free energy (E-TS):            -8.9047857784 H         -242.3115 eV
Extrapolated E(0K):                 -8.9047857784 H         -242.3115 eV
Input / Output electrons (q):     12.0000000000     12.0000000000

Energy H0:                          -5.5292795593 H         -150.4594 eV
Energy SCC:                          0.1332411687 H            3.6257 eV
Total Electronic energy:            -5.3960383906 H         -146.8337 eV
Repulsive energy:                    0.1843019261 H            5.0151 eV
Total energy:                       -5.2117364645 H         -141.8186 eV
Extrapolated to 0:                  -5.2117364645 H         -141.8186 eV
Total Mermin free energy:           -5.2117364645 H         -141.8186 eV
Force related energy:               -5.2117364645 H         -141.8186 eV

SCC converged

Excitation Energy:                   0.1260424126 H            3.4298 eV

Total Forces
    1     -0.008058837804     -0.013275334396      0.039855972783
    2      0.005030973203      0.000302947418     -0.047469743692
    3     -0.000452212361      0.009065801883      0.000102316846
    4     -0.013514822790     -0.001694019162     -0.001196405197
    5      0.007524180935      0.007760187741      0.006879090457
    6      0.009470718817     -0.002159583483      0.001828768804

Maximal derivative component:        0.474697E-01 au


