    14
  Step:     0            Position(A)                                  Velocity(au)
C        -6.02060096    -0.84867248    -0.09716287     0.00030933     0.00032518     0.00017481
C        -4.69859866    -0.70051561     0.24406668     0.00006828    -0.00024428     0.00003041
H        -6.55909443     0.00859716    -0.49945831    -0.00046482    -0.00016020    -0.00035270
H        -6.53924315    -1.75623431    -0.00876316     0.00085991    -0.00105257    -0.00002983
H        -4.21611806    -1.52254424     0.75920207     0.00006268     0.00015081     0.00028230
C        -3.93255132     0.47147820    -0.14061930    -0.00010884     0.00003966    -0.00025817
C        -2.59789259     0.58172196     0.12272082     0.00000434     0.00017396    -0.00006853
H        -4.41234754     1.35732566    -0.54920407    -0.00123521     0.00119272     0.00036295
H        -2.04381709    -0.33723457     0.54822522     0.00005072    -0.00073911     0.00044473
C        -1.79052443     1.68983571    -0.12768816    -0.00057624    -0.00024266    -0.00026368
H        -2.10841427     2.49967599    -0.82469788     0.00132936     0.00104628     0.00011385
N        -0.50399779     1.75538329     0.31362784     0.00021968    -0.00003379     0.00042689
H         0.02572752     2.61828897     0.12765227     0.00023193    -0.00080807    -0.00079628
H        -0.23260209     1.15362585     1.08683903    -0.00027514     0.00022170    -0.00136760
    14
  Step:     1            Position(A)                                  Velocity(au)
C        -6.01721040    -0.84495777    -0.09528910     0.00030624     0.00034896     0.00016753
C        -4.69780703    -0.70311701     0.24435525     0.00007820    -0.00022877     0.00002224
H        -6.56438807     0.00674832    -0.50335543    -0.00049498    -0.00018238    -0.00035542
H        -6.53070490    -1.76935510    -0.00883380     0.00072307    -0.00129715     0.00001213
H        -4.21493648    -1.52097136     0.76245251     0.00015513     0.00013099     0.00031168
C        -3.93410235     0.47183804    -0.14344131    -0.00017676     0.00002820    -0.00025848
C        -2.59743412     0.58340674     0.12212053     0.00007802     0.00013179    -0.00004107
H        -4.42642095     1.37010777    -0.54563520    -0.00131281     0.00110514     0.00030585
H        -2.04428440    -0.34379769     0.55250005    -0.00014228    -0.00044287     0.00033043
C        -1.79680638     1.68732889    -0.13067084    -0.00056489    -0.00021299    -0.00028024
H        -2.09376970     2.51052891    -0.82264189     0.00133422     0.00092830     0.00026280
N        -0.50155599     1.75506571     0.31828916     0.00021991    -0.00002231     0.00041903
H         0.02806783     2.60862141     0.11929977     0.00020992    -0.00093935    -0.00073212
H        -0.23536399     1.15627255     1.07178981    -0.00020122     0.00020669    -0.00131075
    14
  Step:     2            Position(A)                                  Velocity(au)
C        -6.01390127    -0.84103836    -0.09349776     0.00029429     0.00036194     0.00015982
C        -4.69688797    -0.70552043     0.24455319     0.00009173    -0.00020824     0.00001398
H        -6.56992317     0.00460732    -0.50723390    -0.00050914    -0.00021287    -0.00034988
H        -6.52342457    -1.78461185    -0.00849771     0.00063247    -0.00143588     0.00004444
H        -4.21272438    -1.51967853     0.76602060     0.00024921     0.00010219     0.00033802
C        -3.93641820     0.47209505    -0.14627411    -0.00024839     0.00002032    -0.00025987
C        -2.59618581     0.58460517     0.12182240     0.00014847     0.00008627    -0.00001378
H        -4.44106779     1.38150271    -0.54251301    -0.00134209     0.00094464     0.00027826
H        -2.04692971    -0.34692324     0.55545405    -0.00034173    -0.00011974     0.00020823
C        -1.80288257     1.68517609    -0.13381896    -0.00053958    -0.00017890    -0.00029371
H        -2.07922556     2.51998435    -0.81894859     0.00130968     0.00079589     0.00040979
N        -0.49918693     1.75489533     0.32279485     0.00020682    -0.00000719     0.00039901
H         0.03031988     2.59773892     0.11163569     0.00021932    -0.00102490    -0.00067302
H        -0.23700415     1.15814751     1.05816380    -0.00007128     0.00008051    -0.00111094
    14
  Step:     3            Position(A)                                  Velocity(au)
C        -6.01077216    -0.83703956    -0.09179266     0.00027360     0.00036343     0.00015182
C        -4.69580036    -0.70767257     0.24466105     0.00010910    -0.00018302     0.00000588
H        -6.57552643     0.00209138    -0.51100964    -0.00050787    -0.00024990    -0.00033744
H        -6.51686834    -1.80076772    -0.00786161     0.00058924    -0.00146171     0.00006761
H        -4.20948453    -1.51873586     0.76984745     0.00034113     0.00006977     0.00035655
C        -3.93953639     0.47228268    -0.14912644    -0.00032310     0.00001484    -0.00026173
C        -2.59418598     0.58529411     0.12181912     0.00021527     0.00003995     0.00001234
H        -4.45578179     1.39077361    -0.53954769    -0.00132828     0.00072404     0.00027374
H        -2.05176046    -0.34641718     0.55705555    -0.00053636     0.00021213     0.00008811
C        -1.80861070     1.68341515    -0.13709624    -0.00050245    -0.00014243    -0.00030366
H        -2.06511786     2.52794058    -0.81367699     0.00125365     0.00065949     0.00054802
N        -0.49703134     1.75490841     0.32701818     0.00018185     0.00001035     0.00036891
H         0.03286584     2.58619975     0.10457619     0.00026572    -0.00105651    -0.00062387
H        -0.23692337     1.15803378     1.04748587     0.00010758    -0.00014642    -0.00078811
    14
  Step:     4            Position(A)                                  Velocity(au)
C        -6.00791569    -0.83308772    -0.09017633     0.00024503     0.00035374     0.00014365
C        -4.69450128    -0.70952438     0.24468187     0.00013036    -0.00015355    -0.00000186
H        -6.58103382    -0.00085979    -0.51461603    -0.00049240    -0.00029116    -0.00031970
H        -6.51053386    -1.81658947    -0.00701853     0.00058798    -0.00138024     0.00008314
H        -4.20526157    -1.51815227     0.77382074     0.00042707     0.00003924     0.00036273
C        -3.94348663     0.47241962    -0.15200003    -0.00039996     0.00001036    -0.00026342
C        -2.59147630     0.58547912     0.12209233     0.00027798    -0.00000452     0.00003623
H        -4.47012636     1.39734247    -0.53652439    -0.00127844     0.00045859     0.00028538
H        -2.05866361    -0.34228244     0.55738164    -0.00071504     0.00053422    -0.00001999
C        -1.81387456     1.68206011    -0.14046220    -0.00045591    -0.00010576    -0.00030973
H        -2.05179966     2.53441185    -0.80695971     0.00116508     0.00052953     0.00067084
N        -0.49520860     1.75512169     0.33086544     0.00014741     0.00002800     0.00033254
H         0.03613300     2.57462578     0.09798739     0.00035115    -0.00103162    -0.00058846
H        -0.23465069     1.15494430     1.04092234     0.00031921    -0.00044252    -0.00038667
    14
  Step:     5            Position(A)                                  Velocity(au)
C        -6.00541173    -0.82930078    -0.08864993     0.00020989     0.00033392     0.00013545
C        -4.69294839    -0.71103178     0.24462037     0.00015531    -0.00012040    -0.00000912
H        -6.58629853    -0.00427837    -0.51800376    -0.00046450    -0.00033393    -0.00029836
H        -6.50400511    -1.83096317    -0.00604271     0.00061956    -0.00120561     0.00009292
H        -4.20014146    -1.51787736     0.77778287     0.00050356     0.00001567     0.00035303
C        -3.94828621     0.47250928    -0.15488931    -0.00047740     0.00000566    -0.00026426
C        -2.58810474     0.58519517     0.12261174     0.00033555    -0.00004458     0.00005677
H        -4.48375012     1.40080604    -0.53330453    -0.00120082     0.00016454     0.00030653
H        -2.06740337    -0.33473007     0.55661813    -0.00086626     0.00082662    -0.00010598
C        -1.81858466     1.68110151    -0.14387216    -0.00040217    -0.00007081    -0.00031156
H        -2.03962953     2.53952516    -0.79900118     0.00104415     0.00041587     0.00077182
N        -0.49380645     1.75552098     0.33429320     0.00010662     0.00004275     0.00029481
H         0.04054800     2.56363114     0.09170242     0.00047304    -0.00095466    -0.00056855
H        -0.22994002     1.14835274     1.03902662     0.00054048    -0.00075928     0.00003142
    14
  Step:     6            Position(A)                                  Velocity(au)
C        -6.00332389    -0.82578265    -0.08721303     0.00016978     0.00030534     0.00012739
C        -4.69110361    -0.71215834     0.24448229     0.00018331    -0.00008437    -0.00001583
H        -6.59119569    -0.00816512    -0.52114312    -0.00042647    -0.00037517    -0.00027500
H        -6.49697975    -1.84296455    -0.00498583     0.00067347    -0.00095651     0.00009875
H        -4.19424528    -1.51780949     0.78154392     0.00056778     0.00000313     0.00032537
C        -3.95393065     0.47254337    -0.15778127    -0.00055304    -0.00000016    -0.00026358
C        -2.58413552     0.58450377     0.12333438     0.00038603    -0.00007799     0.00007278
H        -4.49639649     1.40094203    -0.52981841    -0.00110431    -0.00014168     0.00033101
H        -2.07761460    -0.32419856     0.55506320    -0.00097779     0.00106742    -0.00015956
C        -1.82267279     1.68051106    -0.14727808    -0.00034271    -0.00003898    -0.00030880
H        -2.02895684     2.54350985    -0.79007471     0.00089226     0.00032700     0.00084503
N        -0.49287602     1.75605690     0.33731503     0.00006277     0.00005168     0.00026054
H         0.04648168     2.55374086     0.08554919     0.00062343    -0.00083755    -0.00056303
H        -0.22282676     1.13833370     1.04160968     0.00074577    -0.00104227     0.00040089
    14
  Step:     7            Position(A)                                  Velocity(au)
C        -6.00169739    -0.82262093    -0.08586312     0.00012645     0.00026954     0.00011966
C        -4.68893810    -0.71287762     0.24427402     0.00021337    -0.00004643    -0.00002194
H        -6.59562838    -0.01248594    -0.52401987    -0.00038105    -0.00041169    -0.00025099
H        -6.48927156    -1.85188866    -0.00388229     0.00073928    -0.00065347     0.00010207
H        -4.18772012    -1.51780879     0.78490087     0.00061784     0.00000439     0.00027927
C        -3.96038504     0.47250575    -0.16065572    -0.00062397    -0.00000770    -0.00026078
C        -2.57965965     0.58348906     0.12420403     0.00042678    -0.00010280     0.00008306
H        -4.50790907     1.39770655    -0.52606296    -0.00099833    -0.00044381     0.00035281
H        -2.08879432    -0.31137826     0.55312746    -0.00103703     0.00123291    -0.00017033
C        -1.82608210     1.68024883    -0.15062781    -0.00027828    -0.00001104    -0.00030115
H        -2.02010969     2.54667883    -0.78051442     0.00071191     0.00026937     0.00088576
N        -0.49243317     1.75665168     0.33999306     0.00001887     0.00005295     0.00023330
H         0.05418676     2.54530822     0.07938517     0.00078915    -0.00069896    -0.00056767
H        -0.21362492     1.12555109     1.04779684     0.00091255    -0.00124490     0.00066889
    14
  Step:     8            Position(A)                                  Velocity(au)
C        -6.00055755    -0.81988586    -0.08459523     0.00008169     0.00022813     0.00011250
C        -4.68643565    -0.71317407     0.24400223     0.00024426    -0.00000753    -0.00002747
H        -6.59953199    -0.01717162    -0.52663399    -0.00033120    -0.00044038    -0.00022765
H        -6.48080653    -1.85726043    -0.00275289     0.00080719    -0.00031735     0.00010408
H        -4.18072891    -1.51771350     0.78765339     0.00065290     0.00002059     0.00021548
C        -3.96758124     0.47237487    -0.16348624    -0.00068731    -0.00001745    -0.00025530
C        -2.57479888     0.58225485     0.12515144     0.00045523    -0.00011733     0.00008648
H        -4.51823688     1.39123276    -0.52209992    -0.00089274    -0.00072562     0.00036604
H        -2.10030155    -0.29722636     0.55133688    -0.00103225     0.00129948    -0.00012794
C        -1.82876075     1.68026945    -0.15386624    -0.00020929     0.00001266    -0.00028843
H        -2.01338242     2.54940293    -0.77069701     0.00050674     0.00024679     0.00089142
N        -0.49246327     1.75721527     0.34241892    -0.00002260     0.00004628     0.00021477
H         0.06374579     2.53844985     0.07313031     0.00095329    -0.00056170    -0.00057577
H        -0.20286307     1.11109917     1.05624288     0.00102559    -0.00133849     0.00080522
    14
  Step:     9            Position(A)                                  Velocity(au)
C        -5.99991023    -0.81763004    -0.08340191     0.00003726     0.00018275     0.00010613
C        -4.68359438    -0.71304235     0.24367316     0.00027466     0.00003147    -0.00003247
H        -6.60287403    -0.02212019    -0.52900005    -0.00027975    -0.00045850    -0.00020626
H        -6.47161278    -1.85883138    -0.00160539     0.00086820     0.00003118     0.00010595
H        -4.17343676    -1.51735826     0.78961489     0.00067332     0.00005131     0.00013572
C        -3.97542130     0.47212390    -0.16624094    -0.00074062    -0.00002995    -0.00024672
C        -2.56970072     0.58092221     0.12609595     0.00046950    -0.00012027     0.00008218
H        -4.52743954     1.38183222    -0.51805520    -0.00079780    -0.00097080     0.00036484
H        -2.11137680    -0.28294961     0.55032843    -0.00095498     0.00124787    -0.00002366
C        -1.83066077     1.68052585    -0.15693774    -0.00013616     0.00003212    -0.00027073
H        -2.00902370     2.55207781    -0.76101282     0.00028137     0.00025966     0.00086232
N        -0.49292754     1.75766416     0.34469152    -0.00005973     0.00003294     0.00020477
H         0.07504183     2.53301985     0.06678906     0.00109774    -0.00044880    -0.00057943
H        -0.19118826     1.09626917     1.06541253     0.00107839    -0.00131521     0.00080396
    14
  Step:    10            Position(A)                                  Velocity(au)
C        -5.99974243    -0.81588776    -0.08227344    -0.00000519     0.00013512     0.00010072
C        -4.68042702    -0.71248571     0.24329193     0.00030325     0.00006984    -0.00003708
H        -6.60565215    -0.02720224    -0.53114637    -0.00022929    -0.00046388    -0.00018798
H        -6.46181301    -1.85657832    -0.00043506     0.00091388     0.00037144     0.00010885
H        -4.16599878    -1.51659093     0.79062242     0.00068046     0.00009471     0.00004251
C        -3.98378373     0.47171973    -0.16888371    -0.00078201    -0.00004577    -0.00023470
C        -2.56452758     0.57962374     0.12694927     0.00046886    -0.00011113     0.00006978
H        -4.53569039     1.36999474    -0.51411835    -0.00072384    -0.00116339     0.00034356
H        -2.12119355    -0.26992680     0.55081928    -0.00080326     0.00106960     0.00014659
C        -1.83173962     1.68097219    -0.15978896    -0.00005948     0.00004761    -0.00024841
H        -2.00722683     2.55508349    -0.75183203     0.00004131     0.00030439     0.00080195
N        -0.49376999     1.75793598     0.34689867    -0.00009130     0.00001519     0.00020180
H         0.08776093     2.52863157     0.06045416     0.00120607    -0.00037927    -0.00057121
H        -0.17927114     1.08232643     1.07383102     0.00107211    -0.00118469     0.00067824
    14
  Step:    11            Position(A)                                  Velocity(au)
C        -6.00002381    -0.81467397    -0.08119843    -0.00004415     0.00008708     0.00009639
C        -4.67696020    -0.71151454     0.24286205     0.00032881     0.00010696    -0.00004144
H        -6.60789023    -0.03226843    -0.53311248    -0.00018193    -0.00045511    -0.00017365
H        -6.45161990    -1.85070550     0.00077584     0.00093616     0.00068233     0.00011401
H        -4.15855032    -1.51528633     0.79054483     0.00067651     0.00014784    -0.00006091
C        -3.99252936     0.47112269    -0.17137539    -0.00081012    -0.00006545    -0.00021903
C        -2.55944346     0.57849099     0.12762259     0.00045384    -0.00009089     0.00004972
H        -4.54327482     1.35638083    -0.51053922    -0.00068067    -0.00128869     0.00029701
H        -2.12894970    -0.25955010     0.55353528    -0.00058492     0.00077400     0.00037844
C        -1.83196212     1.68156742    -0.16237212     0.00001998     0.00005974    -0.00022212
H        -2.00811995     2.55873697    -0.74346865    -0.00020708     0.00037306     0.00071691
N        -0.49492484     1.75799637     0.34910633    -0.00011671    -0.00000445     0.00020370
H         0.10142682     2.52472263     0.05429270     0.00126607    -0.00036512    -0.00054556
H        -0.16773381     1.07035171     1.08025035     0.00101316    -0.00096760     0.00045244
    14
  Step:    12            Position(A)                                  Velocity(au)
C        -6.00070840    -0.81398272    -0.08016464    -0.00007830     0.00004062     0.00009318
C        -4.67323370    -0.71014575     0.24238528     0.00035019     0.00014225    -0.00004572
H        -6.60963212    -0.03715864    -0.53494529    -0.00013915    -0.00043169    -0.00016370
H        -6.44133273    -1.84165095     0.00205916     0.00092718     0.00094206     0.00012281
H        -4.15119874    -1.51335660     0.78928996     0.00066427     0.00020698    -0.00017074
C        -4.00150658     0.47028794    -0.17367532    -0.00082403    -0.00008928    -0.00019967
C        -2.55459899     0.57763545     0.12803710     0.00042628    -0.00006233     0.00002347
H        -4.55058124     1.34180220    -0.50762075    -0.00067652    -0.00133498     0.00022109
H        -2.13398986    -0.25299414     0.55909827    -0.00031908     0.00039248     0.00065630
C        -1.83130258     1.68227902    -0.16464816     0.00010128     0.00006943    -0.00019276
H        -2.01175710     2.56324488    -0.73614834    -0.00045671     0.00045391     0.00061628
N        -0.49632318     1.75783855     0.35135505    -0.00013596    -0.00002366     0.00020820
H         0.11545858     2.52064396     0.04851888     0.00127127    -0.00041002    -0.00049970
H        -0.15710638     1.06115836     1.08372901     0.00091096    -0.00068975     0.00015556
    14
  Step:    13            Position(A)                                  Velocity(au)
C        -6.00173681    -0.81378535    -0.07915999    -0.00010653    -0.00000214     0.00009101
C        -4.66929917    -0.70840248     0.24186187     0.00036638     0.00017514    -0.00005002
H        -6.61093434    -0.04171243    -0.53669384    -0.00010176    -0.00039409    -0.00015807
H        -6.43133613    -1.83009616     0.00346253     0.00087938     0.00112846     0.00013676
H        -4.14401809    -1.51075821     0.78680948     0.00064691     0.00026791    -0.00028288
C        -4.01055659     0.46916944    -0.17574362    -0.00082337    -0.00011708    -0.00017684
C        -2.55011769     0.57712746     0.12813596     0.00038908    -0.00002989    -0.00000655
H        -4.55807496     1.32717562    -0.50570247    -0.00071634    -0.00129611     0.00011367
H        -2.13593012    -0.25096387     0.56789310    -0.00003413    -0.00002404     0.00095373
C        -1.82974632     1.68308626    -0.16658901     0.00018338     0.00007784    -0.00016139
H        -2.01811128     2.56866706    -0.72998641    -0.00069996     0.00053271     0.00051050
N        -0.49789914     1.75747869     0.35366110    -0.00014955    -0.00004061     0.00021322
H         0.12923820     2.51575269     0.04336077     0.00122123    -0.00050977    -0.00043383
H        -0.14780486     1.05526218     1.08365347     0.00077638    -0.00037837    -0.00018283
    14
  Step:    14            Position(A)                                  Velocity(au)
C        -6.00303892    -0.81402954    -0.07817372    -0.00012801    -0.00003906     0.00008971
C        -4.66521843    -0.70631433     0.24129100     0.00037655     0.00020500    -0.00005440
H        -6.61185821    -0.04578011    -0.53840340    -0.00006982    -0.00034377    -0.00015618
H        -6.42209452    -1.81696379     0.00505103     0.00078607     0.00122041     0.00015745
H        -4.13704638    -1.50749562     0.78310144     0.00062776     0.00032617    -0.00039310
C        -4.01951933     0.46772665    -0.17754400    -0.00080836    -0.00014790    -0.00015104
C        -2.54608706     0.57698156     0.12789374     0.00034563     0.00000127    -0.00003733
H        -4.56625265     1.31344726    -0.50513394    -0.00079985    -0.00117430    -0.00002429
H        -2.13473648    -0.25352000     0.57996287     0.00023791    -0.00041564     0.00123799
C        -1.82729082     1.68398181    -0.16817879     0.00026508     0.00008613    -0.00012909
H        -2.02707004     2.57489888    -0.72498028    -0.00092903     0.00059475     0.00041002
N        -0.49959492     1.75695008     0.35601970    -0.00015841    -0.00005395     0.00021698
H         0.14217524     2.50949178     0.03902799     0.00112091    -0.00065395    -0.00035084
H        -0.14012154     1.05288077     1.07972927     0.00062108    -0.00006050    -0.00053420
    14
  Step:    15            Position(A)                                  Velocity(au)
C        -6.00453724    -0.81463997    -0.07719733    -0.00014228    -0.00006827     0.00008907
C        -4.66106153    -0.70391764     0.24067167     0.00038003     0.00023122    -0.00005885
H        -6.61246184    -0.04923312    -0.54011064    -0.00004277    -0.00028307    -0.00015702
H        -6.41413927    -1.80339742     0.00690695     0.00064247     0.00120078     0.00018631
H        -4.13028470    -1.50362269     0.77820973     0.00061009     0.00037735    -0.00049731
C        -4.02824103     0.46593383    -0.17904794    -0.00077993    -0.00017992    -0.00012318
C        -2.54255627     0.57715533     0.12731930     0.00029920     0.00002655    -0.00006594
H        -4.57557328     1.30148562    -0.50623391    -0.00091994    -0.00098218    -0.00018791
H        -2.13072548    -0.26005673     0.59497648     0.00046858    -0.00072795     0.00147738
C        -1.82394719     1.68497062    -0.16941304     0.00034511     0.00009531    -0.00009683
H        -2.03843561     2.58167837    -0.72101637    -0.00113629     0.00062697     0.00032401
N        -0.50136472     1.75629844     0.35840806    -0.00016378    -0.00006266     0.00021795
H         0.15376028     2.50144633     0.03568558     0.00097949    -0.00082799    -0.00025565
H        -0.13421758     1.05393859     1.07196685     0.00045748     0.00023708    -0.00087110
    14
  Step:    16            Position(A)                                  Velocity(au)
C        -6.00615156    -0.81552314    -0.07622517    -0.00014936    -0.00008854     0.00008881
C        -4.65690464    -0.70125597     0.24000346     0.00037636     0.00025310    -0.00006328
H        -6.61279380    -0.05197274    -0.54183856    -0.00001949    -0.00021497    -0.00015920
H        -6.40803921    -1.79069452     0.00912695     0.00044741     0.00106100     0.00022433
H        -4.12369952    -1.49924035     0.77222192     0.00059687     0.00041739    -0.00059174
C        -4.03658177     0.46379056    -0.18023870    -0.00073964    -0.00021041    -0.00009449
C        -2.53954153     0.57756228     0.12645116     0.00025237     0.00004288    -0.00009014
H        -4.58637803     1.29196020    -0.50924476    -0.00106246    -0.00074276    -0.00036823
H        -2.12448542    -0.26944529     0.61228331     0.00063862    -0.00092427     0.00164808
C        -1.81974080     1.68606691    -0.17029720     0.00042214     0.00010599    -0.00006542
H        -2.05192862     2.58861498    -0.71789195    -0.00131469     0.00061970     0.00025923
N        -0.50317803     1.75557917     0.36078774    -0.00016717    -0.00006593     0.00021476
H         0.16360350     2.49137797     0.03343519     0.00080915    -0.00101494    -0.00015465
H        -0.13011339     1.05806738     1.06067232     0.00029897     0.00048747    -0.00116678
    14
  Step:    17            Position(A)                                  Velocity(au)
C        -6.00780479    -0.81657699    -0.07525450    -0.00014986    -0.00009976     0.00008870
C        -4.65282800    -0.69838070     0.23928736     0.00036526     0.00026990    -0.00006751
H        -6.61288828    -0.05393608    -0.54359348     0.00000142    -0.00014289    -0.00016114
H        -6.40435133    -1.78018607     0.01181452     0.00020518     0.00080614     0.00027149
H        -4.11722710    -1.49449139     0.76526431     0.00059053     0.00044286    -0.00067319
C        -4.04442213     0.46133079    -0.18111513    -0.00068957    -0.00023601    -0.00006651
C        -2.53703529     0.57809347     0.12534727     0.00020689     0.00004924    -0.00010869
H        -4.59881663     1.28523632    -0.51428971    -0.00120784    -0.00048649    -0.00055309
H        -2.11675435    -0.28027691     0.63103134     0.00073981    -0.00099022     0.00173778
C        -1.81471214     1.68728932    -0.17084417     0.00049474     0.00011832    -0.00003540
H        -2.06719702     2.59523551    -0.71534527    -0.00145819     0.00056782     0.00021957
N        -0.50502180     1.75485605     0.36310643    -0.00017021    -0.00006302     0.00020625
H         0.17146207     2.47924251     0.03230222     0.00062415    -0.00119685    -0.00005518
H        -0.12767697     1.06460303     1.04644121     0.00015993     0.00066372    -0.00139537
    14
  Step:    18            Position(A)                                  Velocity(au)
C        -6.00943009    -0.81770566    -0.07428462    -0.00014505    -0.00010328     0.00008863
C        -4.64891381    -0.69535131     0.23852663     0.00034666     0.00028090    -0.00007131
H        -6.61276280    -0.05509869    -0.54536381     0.00002149    -0.00007029    -0.00016124
H        -6.40355052    -1.77305861     0.01506633    -0.00007311     0.00045858     0.00032635
H        -4.11078057    -1.48955201     0.75749454     0.00059276     0.00045122    -0.00073925
C        -4.05166751     0.45862736    -0.18169376    -0.00063200    -0.00025326    -0.00004085
C        -2.53501546     0.57863945     0.12407338     0.00016377     0.00004631    -0.00012131
H        -4.61280190     1.28131726    -0.52134468    -0.00133442    -0.00024593    -0.00072887
H        -2.10830065    -0.29110833     0.65030061     0.00077333    -0.00093095     0.00174528
C        -1.80891735     1.68865531    -0.17107166     0.00056148     0.00013197    -0.00000713
H        -2.08382941     2.60103716    -0.71308846    -0.00156211     0.00047087     0.00020609
N        -0.50690172     1.75420044     0.36529986    -0.00017460    -0.00005334     0.00019149
H         0.17725804     2.46519462     0.03222806     0.00044003    -0.00135575     0.00003494
H        -0.12661457     1.07258757     1.03014598     0.00005483     0.00074036    -0.00153345
    14
  Step:    19            Position(A)                                  Velocity(au)
C        -6.01097808    -0.81883651    -0.07331557    -0.00013678    -0.00010189     0.00008860
C        -4.64524411    -0.69223540     0.23772741     0.00032066     0.00028538    -0.00007439
H        -6.61241822    -0.05547379    -0.54712091     0.00004215    -0.00000046    -0.00015804
H        -6.40595085    -1.77015366     0.01895416    -0.00036975     0.00005749     0.00038583
H        -4.10425939    -1.48462003     0.74909181     0.00060428     0.00044118    -0.00078846
C        -4.05824835     0.45579028    -0.18200877    -0.00056908    -0.00025912    -0.00001899
C        -2.53345242     0.57910659     0.12269340     0.00012354     0.00003594    -0.00012844
H        -4.62800961     1.27985621    -0.53023516    -0.00142259    -0.00004952    -0.00088287
H        -2.09983624    -0.30064331     0.66921272     0.00074645    -0.00076425     0.00167745
C        -1.80242870     1.69017632    -0.17100018     0.00062087     0.00014620     0.00001921
H        -2.10137109     2.60553675    -0.71083676    -0.00162330     0.00033260     0.00021737
N        -0.50884154     1.75368918     0.36729569    -0.00018182    -0.00003661     0.00017007
H         0.18108849     2.44958296     0.03306653     0.00027284    -0.00147460     0.00010775
H        -0.12647742     1.08079991     1.01289396    -0.00000381     0.00069707    -0.00156372
    14
  Step:    20            Position(A)                                  Velocity(au)
C        -6.01242235    -0.81993464    -0.07234640    -0.00012723    -0.00009932     0.00008875
C        -4.64189874    -0.68910816     0.23689922     0.00028756     0.00028270    -0.00007645
H        -6.61184076    -0.05510878    -0.54882132     0.00006459     0.00006370    -0.00015034
H        -6.41163953    -1.77180083     0.02350705    -0.00066267    -0.00034719     0.00044549
H        -4.09756085    -1.47990028     0.74024540     0.00062470     0.00041285    -0.00082048
C        -4.06411716     0.45295859    -0.18210923    -0.00050259    -0.00025150    -0.00000210
C        -2.53231273     0.57942576     0.12126343     0.00008647     0.00002048    -0.00013093
H        -4.64392370     1.28023392    -0.54065906    -0.00145814     0.00008303    -0.00100524
H        -2.09197069    -0.30782770     0.68699804     0.00066916    -0.00051348     0.00154558
C        -1.79533456     1.69185378    -0.17065146     0.00067145     0.00016000     0.00004353
H        -2.11934228     2.60831341    -0.70833311    -0.00164035     0.00016016     0.00025006
N        -0.51087948     1.75339948     0.36902056    -0.00019284    -0.00001324     0.00014243