 Fermi distribution function

Calculation with static geometry


********************************************************************************
 iSCC Total electronic   Diff electronic      SCC error    
    9   -0.54127839E+01   -0.28147262E-10    0.23537883E-06
********************************************************************************

 Total charge:     1.00000000

 Atomic gross charges (e)
 Atom           Charge
    1       0.21747087
    2      -0.10381721
    3       0.16630966
    4       0.27150005
    5       0.28902227
    6       0.15951436

Nr. of electrons (up):     12.00000000
Atom populations (up)
 Atom       Population
    1       3.78252913
    2       5.10381721
    3       0.83369034
    4       0.72849995
    5       0.71097773
    6       0.84048564

l-shell populations (up)
 Atom Sh.   l       Population
    1   1   0       1.31309106
    1   2   1       2.46943807
    2   1   0       1.42425789
    2   2   1       3.67955932
    3   1   0       0.83369034
    4   1   0       0.72849995
    5   1   0       0.71097773
    6   1   0       0.84048564

Orbital populations (up)
 Atom Sh.   l   m       Population  Label
    1   1   0   0       1.31309106  s
    1   2   1  -1       0.56703834  p_y
    1   2   1   0       0.88085421  p_z
    1   2   1   1       1.02154551  p_x
    2   1   0   0       1.42425789  s
    2   2   1  -1       1.35570948  p_y
    2   2   1   0       1.08516259  p_z
    2   2   1   1       1.23868725  p_x
    3   1   0   0       0.83369034  s
    4   1   0   0       0.72849995  s
    5   1   0   0       0.71097773  s
    6   1   0   0       0.84048564  s

Fermi level:                        -0.4875682387 H          -13.2674 eV
Band energy:                        -8.8936211016 H         -242.0077 eV
TS:                                  0.0000000000 H            0.0000 eV
Band free energy (E-TS):            -8.8936211016 H         -242.0077 eV
Extrapolated E(0K):                 -8.8936211016 H         -242.0077 eV
Input / Output electrons (q):     12.0000000000     12.0000000000

Energy H0:                          -5.5449931454 H         -150.8869 eV
Energy SCC:                          0.1322092429 H            3.5976 eV
Total Electronic energy:            -5.4127839025 H         -147.2893 eV
Repulsive energy:                    0.1813431287 H            4.9346 eV
Total energy:                       -5.2314407738 H         -142.3547 eV
Extrapolated to 0:                  -5.2314407738 H         -142.3547 eV
Total Mermin free energy:           -5.2314407738 H         -142.3547 eV
Force related energy:               -5.2314407738 H         -142.3547 eV

SCC converged

Excitation Energy:                   0.1489532032 H            4.0532 eV

Total Forces
    1     -0.000892787453     -0.004550120647      0.034071584707
    2     -0.013206997863      0.014345476062     -0.049139094124
    3     -0.010093412966      0.009053607988      0.004813962475
    4     -0.004768192874     -0.011083989558      0.006814059310
    5      0.018837354574      0.001306805775     -0.001870379180
    6      0.010124036583     -0.009071779619      0.005309866813

Maximal derivative component:        0.491391E-01 au


