|===============================================================================
|
|  DFTB+ release 20.1
|
|  Copyright (C) 2006 - 2020  DFTB+ developers group
|
|===============================================================================
|
|  When publishing results obtained with DFTB+, please cite the following
|  reference:
|
|  * DFTB+, a software package for efficient approximate density functional
|    theory based atomistic simulations, J. Chem. Phys. 152, 124101 (2020).
|    [doi: 10.1063/1.5143190]
|
|  You should also cite additional publications crediting the parametrization
|  data you use. Please consult the documentation of the SK-files for the
|  references.
|
|===============================================================================

Reading input file 'dftb_in.hsd'
Parser version: 8

--------------------------------------------------------------------------------
Reading SK-files:
Done.


Processed input in HSD format written to 'dftb_pin.hsd'

Starting initialization...
--------------------------------------------------------------------------------
WARNING!
-> Excited state forces are not implemented yet for fractional occupations, kT=  0.3158E-02K
OpenMP threads:              1
Chosen random seed:          435832888
Mode:                        Static calculation
Self consistent charges:     Yes
SCC-tolerance:                 0.100000E-05
Max. scc iterations:                    100
Shell resolved Hubbard:      No
Spin polarisation:           No
Nr. of up electrons:             6.000000
Nr. of down electrons:           6.000000
Periodic boundaries:         No
Electronic solver:           Relatively robust
Mixer:                       Broyden mixer
Mixing parameter:                  0.200000
Maximal SCC-cycles:                     100
Nr. of chrg. vec. in memory:              0
Electronic temperature:        0.100000E-07 H      0.272114E-06 eV
Initial charges:             Set automatically (system chrg:   0.100E+01)
Included shells:             C:  s, p
                             N:  s, p
                             H:  s
Extra options:
                             Mulliken analysis
                             Force calculation
Force type                   original
                             Eigenvector printing

--------------------------------------------------------------------------------

***  Geometry step: 0

 iSCC Total electronic   Diff electronic      SCC error    
    1   -0.54036555E+01    0.00000000E+00    0.74675675E+00
    2   -0.54089566E+01   -0.53011337E-02    0.50523502E+00
    3   -0.54124220E+01   -0.34654044E-02    0.88309628E-01
    4   -0.54126787E+01   -0.25669122E-03    0.49781035E-01
    5   -0.54127834E+01   -0.10466946E-03    0.89482596E-02
    6   -0.54127838E+01   -0.42143747E-06    0.20110426E-02
    7   -0.54127839E+01   -0.71157553E-07    0.17877212E-04
    8   -0.54127839E+01   -0.18438584E-11    0.24794950E-04
    9   -0.54127839E+01   -0.28147262E-10    0.23537883E-06
>> Charges saved for restart in charges.bin

Total Energy:                       -5.0824875706 H         -138.3015 eV
Extrapolated to 0:                  -5.2314407738 H         -142.3547 eV
Total Mermin free energy:           -5.0824875706 H         -138.3015 eV
Force related energy:               -5.2314407738 H         -142.3547 eV

--------------------------------------------------------------------------------
DFTB+ running times                          cpu [s]             wall clock [s]
--------------------------------------------------------------------------------
SCC                                    +     0.01  ( 54.3%)      0.03  ( 60.5%)
Post-SCC processing                    +     0.00  ( 36.5%)      0.01  ( 30.2%)
--------------------------------------------------------------------------------
Missing                                +     0.00  (  9.2%)      0.00  (  9.3%)
Total                                  =     0.01  (100.0%)      0.04  (100.0%)
--------------------------------------------------------------------------------
