     6
  Step:     0            Position(A)                                  Velocity(au)
C        -0.03496298     0.01369517     0.00310497    -0.00009234    -0.00011364     0.00008601
N        -0.04129974    -0.05863526     1.30681243    -0.00014523     0.00009334    -0.00003988
H         0.92600237     0.01755893    -0.54351028     0.00078768     0.00035340    -0.00057432
H         0.80699197    -0.11173710     1.88337109     0.00129412    -0.00032629     0.00065817
H        -0.94211195     0.00547230     1.84120179     0.00070689    -0.00039149    -0.00053995
H        -1.01328369     0.07055187    -0.48594567     0.00032970     0.00042135    -0.00001453
     6
  Step:     1            Position(A)                                  Velocity(au)
C        -0.03546142     0.01307849     0.00350713    -0.00008903    -0.00011194     0.00006047
N        -0.04210864    -0.05813087     1.30668298    -0.00014866     0.00009103    -0.00000689
H         0.93034229     0.01951182    -0.54683953     0.00079100     0.00036087    -0.00063769
H         0.81412421    -0.11352950     1.88705793     0.00129712    -0.00032826     0.00067821
H        -0.93807732     0.00334265     1.83821928     0.00075858    -0.00038680    -0.00054411
H        -1.01161089     0.07285975    -0.48631363     0.00028000     0.00042307    -0.00012118
     6
  Step:     2            Position(A)                                  Velocity(au)
C        -0.03593682     0.01247077     0.00376635    -0.00008401    -0.00011039     0.00003387
N        -0.04292580    -0.05763963     1.30673711    -0.00014830     0.00008856     0.00002703
H         0.93465417     0.02150604    -0.55048522     0.00077787     0.00036855    -0.00069030
H         0.82117971    -0.11532755     1.89078927     0.00126742    -0.00032843     0.00067537
H        -0.93381466     0.00124158     1.83525045     0.00078955    -0.00038112    -0.00053453
H        -1.01022111     0.07517936    -0.48727111     0.00022699     0.00042569    -0.00022968
     6
  Step:     3            Position(A)                                  Velocity(au)
C        -0.03638023     0.01187116     0.00387752    -0.00007745    -0.00010900     0.00000646
N        -0.04373055    -0.05716231     1.30697863    -0.00014422     0.00008597     0.00006142
H         0.93884953     0.02354250    -0.55438907     0.00074897     0.00037637    -0.00073247
H         0.82798553    -0.11712142     1.89444420     0.00120751    -0.00032684     0.00065144
H        -0.92944229    -0.00082555     1.83237335     0.00079824    -0.00037449    -0.00051030
H        -1.00912843     0.07751541    -0.48882551     0.00017216     0.00042914    -0.00033906
     6
  Step:     4            Position(A)                                  Velocity(au)
C        -0.03678375     0.01127882     0.00383694    -0.00006955    -0.00010777    -0.00002151
N        -0.04450286    -0.05669957     1.30740879    -0.00013657     0.00008327     0.00009583
H         0.94284441     0.02562172    -0.55849502     0.00070528     0.00038427    -0.00076472
H         0.83438417    -0.11890167     1.89791289     0.00112045    -0.00032361     0.00060860
H        -0.92508569    -0.00285357     1.82967018     0.00078363    -0.00036697    -0.00047085
H        -1.00833848     0.07987211    -0.49097882     0.00011709     0.00043332    -0.00044834
     6
  Step:     5            Position(A)                                  Velocity(au)
C        -0.03714065     0.01069284     0.00364233    -0.00006054    -0.00010671    -0.00004977
N        -0.04522374    -0.05625190     1.30802641    -0.00012557     0.00008050     0.00012983
H         0.94656076     0.02774392    -0.56275017     0.00064795     0.00039221    -0.00078768
H         0.84023612    -0.12065961     1.90109843     0.00100963    -0.00031888     0.00054929
H        -0.92087436    -0.00483785     1.82722524     0.00074533    -0.00035868    -0.00041602
H        -1.00784820     0.08225315    -0.49372744     0.00006335     0.00043814    -0.00055651
     6
  Step:     6            Position(A)                                  Velocity(au)
C        -0.03744553     0.01011230     0.00329283    -0.00005066    -0.00010583    -0.00007808
N        -0.04587555    -0.05581955     1.30882799    -0.00011150     0.00007771     0.00016302
H         0.94992751     0.02990919    -0.56710552     0.00057831     0.00040018    -0.00080210
H         0.84542092    -0.12238751     1.90391749     0.00087854    -0.00031286     0.00047601
H        -0.91693810    -0.00677450     1.82512241     0.00068366    -0.00034979    -0.00034613
H        -1.00764593     0.08466163    -0.49706235     0.00001249     0.00044349    -0.00066263
     6
  Step:     7            Position(A)                                  Velocity(au)
C        -0.03769429     0.00953624     0.00278898    -0.00004015    -0.00010513    -0.00010619
N        -0.04644233    -0.05540256     1.30980803    -0.00009469     0.00007494     0.00019507
H         0.95288109     0.03211750    -0.57151637     0.00049771     0.00040817    -0.00080880
H         0.84983763    -0.12407883     1.90630069     0.00073071    -0.00030576     0.00039127
H        -0.91340262    -0.00866066     1.82344243     0.00059978    -0.00034049    -0.00026198
H        -1.00771175     0.08710009    -0.50096928    -0.00003406     0.00044927    -0.00076576
     6
  Step:     8            Position(A)                                  Velocity(au)
C        -0.03788418     0.00896367     0.00213259    -0.00002924    -0.00010461    -0.00013388
N        -0.04691014    -0.05500072     1.31095931    -0.00007553     0.00007223     0.00022570
H         0.95536554     0.03436883    -0.57594246     0.00040754     0.00041617    -0.00080857
H         0.85340470    -0.12572828     1.90819250     0.00056963    -0.00029783     0.00029756
H        -0.91038493    -0.01049467     1.82225997     0.00049566    -0.00033101    -0.00016496
H        -1.00801808     0.08957039    -0.50542906    -0.00007496     0.00045535    -0.00086506
     6
  Step:     9            Position(A)                                  Velocity(au)
C        -0.03801365     0.00839360     0.00132669    -0.00001815    -0.00010428    -0.00016092
N        -0.04726731    -0.05461357     1.31227325    -0.00005445     0.00006963     0.00025468
H         0.95733253     0.03666317    -0.58034805     0.00030917     0.00042418    -0.00080220
H         0.85605954    -0.12733195     1.90955086     0.00039869    -0.00028931     0.00019730
H        -0.90798871    -0.01227618     1.82164067     0.00037411    -0.00032160    -0.00005692
H        -1.00853055     0.09207368    -0.51041800    -0.00010906     0.00046157    -0.00095971
     6
  Step:    10            Position(A)                                  Velocity(au)
C        -0.03808239     0.00782506     0.00037547    -0.00000710    -0.00010412    -0.00018711
N        -0.04750473    -0.05424040     1.31374021    -0.00003195     0.00006718     0.00028184
H         0.95874139     0.03900050    -0.58470181     0.00020397     0.00043220    -0.00079048
H         0.85775799    -0.12888727     1.91034681     0.00022118    -0.00028044     0.00009282
H        -0.90629998    -0.01400622     1.82163845     0.00023870    -0.00031249     0.00005976
H        -1.00920889     0.09461035    -0.51590826    -0.00013536     0.00046780    -0.00104897
     6
  Step:    11            Position(A)                                  Velocity(au)
C        -0.03809118     0.00725711    -0.00071576     0.00000372    -0.00010412    -0.00021225
N        -0.04761606    -0.05388029     1.31534974    -0.00000855     0.00006491     0.00030704
H         0.95955896     0.04138084    -0.58897666     0.00009330     0.00044019    -0.00077414
H         0.85847389    -0.13039314     1.91056409     0.00004042    -0.00027149    -0.00001354
H        -0.90538311    -0.01568717     1.82229303     0.00009370    -0.00030391     0.00018230
H        -1.01000804     0.09717995    -0.52186815    -0.00015307     0.00047384    -0.00113212
     6
  Step:    12            Position(A)                                  Velocity(au)
C        -0.03804179     0.00668886    -0.00194064     0.00001414    -0.00010427    -0.00023611
N        -0.04759803    -0.05353210     1.31709074     0.00001517     0.00006286     0.00033014
H         0.95975957     0.04380408    -0.59314955    -0.00002144     0.00044814    -0.00075386
H         0.85819910    -0.13184987     1.91019906    -0.00014023    -0.00026272    -0.00011945
H        -0.90527749    -0.01732263     1.82362779    -0.00005610    -0.00029607     0.00030755
H        -1.01087922     0.09978109    -0.52826244    -0.00016161     0.00047951    -0.00120848
     6
  Step:    13            Position(A)                                  Velocity(au)
C        -0.03793694     0.00611955    -0.00329165     0.00002398    -0.00010454    -0.00025848
N        -0.04745057    -0.05319450     1.31895155     0.00003860     0.00006106     0.00035104
H         0.95932510     0.04627000    -0.59720119    -0.00013883     0.00045599    -0.00073030
H         0.85694395    -0.13325933     1.90926086    -0.00031729    -0.00025441    -0.00022251
H        -0.90599519    -0.01891725     1.82564836    -0.00020556    -0.00028913     0.00043215
H        -1.01177112     0.10241138    -0.53505251    -0.00016059     0.00048461    -0.00127739
     6
  Step:    14            Position(A)                                  Velocity(au)
C        -0.03778019     0.00554851    -0.00476018     0.00003310    -0.00010491    -0.00027914
N        -0.04717698    -0.05286601     1.32091996     0.00006110     0.00005955     0.00036960
H         0.95824517     0.04877812    -0.60111582    -0.00025740     0.00046368    -0.00070408
H         0.85473805    -0.13462499     1.90777183    -0.00048703    -0.00024687    -0.00032021
H        -0.90751981    -0.02047651     1.82834173    -0.00034941    -0.00028321     0.00055264
H        -1.01263097     0.10506734    -0.54219644    -0.00014985     0.00048892    -0.00133819
     6
  Step:    15            Position(A)                                  Velocity(au)
C        -0.03757589     0.00497523    -0.00633638     0.00004135    -0.00010534    -0.00029784
N        -0.04678406    -0.05254497     1.32298305     0.00008204     0.00005834     0.00038567
H         0.95651750     0.05132763    -0.60488109    -0.00037556     0.00047112    -0.00067581
H         0.85163157    -0.13595211     1.90576813    -0.00064549    -0.00024044    -0.00040989
H        -0.90980647    -0.02200638     1.83167636    -0.00048251    -0.00027836     0.00066564
H        -1.01340560     0.10774435    -0.54964908    -0.00012940     0.00049220    -0.00139025
     6
  Step:    16            Position(A)                                  Velocity(au)
C        -0.03732910     0.00439936    -0.00800915     0.00004860    -0.00010581    -0.00031434
N        -0.04628202    -0.05222962     1.32512709     0.00010078     0.00005745     0.00039907
H         0.95414839     0.05391734    -0.60848800    -0.00049163     0.00047823    -0.00064611
H         0.84769664    -0.13724788     1.90330048    -0.00078847    -0.00023550    -0.00048881
H        -0.91278333    -0.02351304     1.83560288    -0.00060010    -0.00027460     0.00076798
H        -1.01404256     0.11043656    -0.55736214    -0.00009951     0.00049424    -0.00143298
     6
  Step:    17            Position(A)                                  Velocity(au)
C        -0.03704557     0.00382072    -0.00976611     0.00005474    -0.00010628    -0.00032840
N        -0.04568448    -0.05191810     1.32733736     0.00011670     0.00005691     0.00040961
H         0.95115333     0.05654564    -0.61193090    -0.00060383     0.00048494    -0.00061563
H         0.84302850    -0.13852163     1.90043471    -0.00091162    -0.00023244    -0.00055415
H        -0.91635425    -0.02500253     1.84005580    -0.00069805    -0.00027186     0.00085687
H        -1.01449136     0.11313699    -0.56528447    -0.00006066     0.00049482    -0.00146588
     6
  Step:    18            Position(A)                                  Velocity(au)
C        -0.03673160     0.00323932    -0.01159363     0.00005966    -0.00010672    -0.00033979
N        -0.04500819    -0.05160842     1.32959801     0.00012928     0.00005673     0.00041707
H         0.94755745     0.05921052    -0.61520766    -0.00071033     0.00049118    -0.00058503
H         0.83774613    -0.13978501     1.89725188    -0.00101060    -0.00023171    -0.00060315
H        -0.92040261    -0.02648048     1.84495577    -0.00077300    -0.00027006     0.00093004
H        -1.01470463     0.11583756    -0.57336245    -0.00001354     0.00049376    -0.00148856
     6
  Step:    19            Position(A)                                  Velocity(au)
C        -0.03639405     0.00265530    -0.01347688     0.00006327    -0.00010710    -0.00034832
N        -0.04427270    -0.05129853     1.33189206     0.00013803     0.00005693     0.00042126
H         0.94339592     0.06190967    -0.61831983    -0.00080926     0.00049691    -0.00055503
H         0.83199199    -0.14105208     1.89384788    -0.00108124    -0.00023376    -0.00063321
H        -0.92479605    -0.02795183     1.85021255    -0.00082261    -0.00026906     0.00098581
H        -1.01463926     0.11852924    -0.58154065     0.00004092     0.00049093    -0.00150078
     6
  Step:    20            Position(A)                                  Velocity(au)
C        -0.03604015     0.00206896    -0.01540004     0.00006553    -0.00010741    -0.00035385
N        -0.04349987    -0.05098632     1.33420141     0.00014260     0.00005751     0.00042200
H         0.93871408     0.06464059    -0.62127285    -0.00089877     0.00050212    -0.00052637
H         0.82593063    -0.14233944     1.89033227    -0.00111986    -0.00023903    -0.00064211
H        -0.92939195    -0.02942069     1.85572847    -0.00084558    -0.00026869     0.00102320
H        -1.01425748     0.12120233    -0.58976260     0.00010165     0.00048624    -0.00150250
     6
  Step:    21            Position(A)                                  Velocity(au)
C        -0.03567747     0.00148068    -0.01734650     0.00006637    -0.00010764    -0.00035626
N        -0.04271324    -0.05066961     1.33650704     0.00014277     0.00005849     0.00041919
H         0.93356709     0.06740082    -0.62407616    -0.00097716     0.00050687    -0.00049982
H         0.81974530    -0.14366608     1.88682585    -0.00112364    -0.00024794    -0.00062817
H        -0.93404321    -0.03089018     1.86140211    -0.00084168    -0.00026878     0.00104192
H        -1.01352765     0.12384667    -0.59797183     0.00016744     0.00047965    -0.00149390
     6
  Step:    22            Position(A)                                  Velocity(au)
C        -0.03531372     0.00089088    -0.01929917     0.00006547    -0.00010449    -0.00040844
N        -0.04193726    -0.05034620     1.33878935     0.00013845     0.00005786     0.00045369
H         0.92801930     0.07018815    -0.62674327    -0.00106661     0.00055157    -0.00042593
H         0.81363270    -0.14505313     1.88345708    -0.00111025    -0.00031008    -0.00060846
H        -0.93860397    -0.03236245     1.86713202    -0.00079147    -0.00021385     0.00103214
H        -1.01242493     0.12645196    -0.60611298     0.00026405     0.00041328    -0.00143529
     6
  Step:    23            Position(A)                                  Velocity(au)
C        -0.03496023     0.00033605    -0.02182089     0.00006283    -0.00009769    -0.00051283
N        -0.04119654    -0.05003575     1.34147710     0.00012947     0.00005546     0.00052766
H         0.92188273     0.07344312    -0.62874205    -0.00116530     0.00062157    -0.00030474
H         0.80758280    -0.14706296     1.88016038    -0.00107825    -0.00040973    -0.00058455
H        -0.94271355    -0.03323285     1.87270891    -0.00069528    -0.00011897     0.00099162
H        -1.01063511     0.12837406    -0.61369501     0.00039091     0.00030038    -0.00132392
     6
  Step:    24            Position(A)                                  Velocity(au)
C        -0.03462465    -0.00018050    -0.02492341     0.00005875    -0.00009044    -0.00061550
N        -0.04051740    -0.04973792     1.34457624     0.00011586     0.00005325     0.00059939
H         0.91523939     0.07700495    -0.63008535    -0.00124560     0.00066955    -0.00018814
H         0.80180744    -0.14954672     1.87704632    -0.00100638    -0.00049050    -0.00053850
H        -0.94622920    -0.03366716     1.87800721    -0.00057628    -0.00004622     0.00093142
H        -1.00813778     0.12974622    -0.62063245     0.00051802     0.00020478    -0.00119976
     6
  Step:    25            Position(A)                                  Velocity(au)
C        -0.03431502    -0.00065729    -0.02858095     0.00005318    -0.00008297    -0.00071130
N        -0.03992399    -0.04945086     1.34806027     0.00009810     0.00005139     0.00066455
H         0.90820221     0.08079682    -0.63080841    -0.00130243     0.00070519    -0.00007981
H         0.79652960    -0.15245021     1.87424598    -0.00089414    -0.00056326    -0.00046851
H        -0.94904292    -0.03374050     1.88293873    -0.00044039     0.00001500     0.00085686
H        -1.00494566     0.13062321    -0.62687203     0.00063998     0.00011754    -0.00106744
     6
  Step:    26            Position(A)                                  Velocity(au)
C        -0.03403950    -0.00109342    -0.03275010     0.00004614    -0.00007536    -0.00079729
N        -0.03943803    -0.04917249     1.35188856     0.00007673     0.00004989     0.00072088
H         0.90090836     0.08476443    -0.63096355    -0.00133166     0.00073156     0.00001717
H         0.79196891    -0.15574448     1.87189120    -0.00074375    -0.00063112    -0.00037562
H        -0.95107499    -0.03350211     1.88743555    -0.00029306     0.00006817     0.00077158
H        -1.00109588     0.13103953    -0.63237787     0.00075233     0.00003612    -0.00093016
     6
  Step:    27            Position(A)                                  Velocity(au)
C        -0.03380619    -0.00148843    -0.03737361     0.00003769    -0.00006773    -0.00087110
N        -0.03907784    -0.04890072     1.35601031     0.00005253     0.00004872     0.00076675
H         0.89351645     0.08886463    -0.63061910    -0.00132990     0.00075027     0.00009997
H         0.78832737    -0.15941030     1.87010359    -0.00056021    -0.00069505    -0.00026289
H        -0.95227483    -0.03298868     1.89144783    -0.00013996     0.00011502     0.00067901
H        -0.99664880     0.13102157    -0.63712997     0.00085085    -0.00004035    -0.00079103
     6
  Step:    28            Position(A)                                  Velocity(au)
C        -0.03362276    -0.00184235    -0.04238249     0.00002795    -0.00006016    -0.00093087
N        -0.03885714    -0.04863371     1.36036712     0.00002650     0.00004785     0.00080107
H         0.88620272     0.09306067    -0.62985816    -0.00129476     0.00076235     0.00016611
H         0.78577428    -0.16343015     1.86898426    -0.00035123    -0.00075490    -0.00013514
H        -0.95262263    -0.03223021     1.89494386     0.00001297     0.00015646     0.00058270
H        -0.99168739     0.13059335    -0.64112486     0.00093161    -0.00011195    -0.00065337
     6
  Step:    29            Position(A)                                  Velocity(au)
C        -0.03349617    -0.00215575    -0.04769837     0.00001713    -0.00005279    -0.00097535
N        -0.03878393    -0.04837003     1.36489549    -0.00000022     0.00004717     0.00082335
H         0.87915552     0.09732035    -0.62877671    -0.00122534     0.00076872     0.00021373
H         0.78443169    -0.16778330     1.86860470    -0.00012685    -0.00080989     0.00000139
H        -0.95213096    -0.03125334     1.89791089     0.00015974     0.00019298     0.00048631
H        -0.98631583     0.12977990    -0.64437686     0.00099122    -0.00017831    -0.00052067
     6
  Step:    30            Position(A)                                  Velocity(au)
C        -0.03343212    -0.00242979    -0.05323674     0.00000552    -0.00004573    -0.00100416
N        -0.03885955    -0.04810883     1.36952989    -0.00002637     0.00004659     0.00083383
H         0.87256636     0.10161548    -0.62747962    -0.00112271     0.00077036     0.00024193
H         0.78436264    -0.17244314     1.86899974     0.00010142    -0.00085903     0.00013964
H        -0.95084496    -0.03008264     1.90035580     0.00029470     0.00022494     0.00039350
H        -0.98065652     0.12860905    -0.64691923     0.00102726    -0.00023894    -0.00039645
     6
  Step:    31            Position(A)                                  Velocity(au)
C        -0.03343458    -0.00266637    -0.05891159    -0.00000654    -0.00003913    -0.00101801
N        -0.03907844    -0.04784974     1.37420658    -0.00005079     0.00004605     0.00083357
H         0.86661859     0.10592274    -0.62607517    -0.00098997     0.00076854     0.00025090
H         0.78556422    -0.17737586     1.87016402     0.00032188    -0.00090150     0.00027259
H        -0.94884009    -0.02874144     1.90230494     0.00041306     0.00025274     0.00030773
H        -0.97484468     0.12711169    -0.64880396     0.00103864    -0.00029351    -0.00028398
     6
  Step:    32            Position(A)                                  Velocity(au)
C        -0.03350543    -0.00286810    -0.06464123    -0.00001868    -0.00003311    -0.00101875
N        -0.03942848    -0.04759298     1.37886806    -0.00007245     0.00004546     0.00082447
H         0.86147608     0.11022516    -0.62466883    -0.00083207     0.00076486     0.00024205
H         0.78796858    -0.18254234     1.87205346     0.00052420    -0.00093712     0.00039421
H        -0.94621762    -0.02725123     1.90380325     0.00051128     0.00027697     0.00023207
H        -0.96902096     0.12532093    -0.65010052     0.00102577    -0.00034203    -0.00018593
     6
  Step:    33            Position(A)                                  Velocity(au)
C        -0.03364435    -0.00303827    -0.07035453    -0.00003052    -0.00002777    -0.00100920
N        -0.03989217    -0.04733907     1.38346732    -0.00009065     0.00004481     0.00080906
H         0.85727246     0.11451391    -0.62335636    -0.00065513     0.00076120     0.00021780
H         0.79145224    -0.18790185     1.87459187     0.00070068    -0.00096649     0.00050021
H        -0.94309727    -0.02563048     1.90491168     0.00058741     0.00029845     0.00016888
H        -0.96332289     0.12326993    -0.65089238     0.00099040    -0.00038500    -0.00010416
     6
  Step:    34            Position(A)                                  Velocity(au)
C        -0.03384884    -0.00318060    -0.07599619    -0.00004177    -0.00002316    -0.00099268
N        -0.04044846    -0.04708878     1.38797118    -0.00010504     0.00004408     0.00079008
H         0.85410496     0.11878979    -0.62221832    -0.00046533     0.00075945     0.00018116
H         0.79585220    -0.19341676     1.87768150     0.00084679    -0.00099090     0.00058833
H        -0.93960835    -0.02389325     1.90570337     0.00064099     0.00031824     0.00011970
H        -0.95787757     0.12098915    -0.65127243     0.00093499    -0.00042340    -0.00003955
     6
  Step:    35            Position(A)                                  Velocity(au)
C        -0.03411461    -0.00329901    -0.08152929    -0.00005219    -0.00001927    -0.00097233
N        -0.04107466    -0.04684286     1.39236138    -0.00011552     0.00004327     0.00076998
H         0.85203419     0.12306323    -0.62131706    -0.00026814     0.00076122     0.00013531
H         0.80098466    -0.19905655     1.88121478     0.00096081    -0.00101185     0.00065802
H        -0.93588156    -0.02204804     1.90625920     0.00067250     0.00033744     0.00008533
H        -0.95279758     0.11850362    -0.65133763     0.00086200    -0.00045848     0.00000786
     6
  Step:    36            Position(A)                                  Velocity(au)
C        -0.03443593    -0.00339737    -0.08693426    -0.00006155    -0.00001604    -0.00095056
N        -0.04174802    -0.04660207     1.39663290    -0.00012215     0.00004236     0.00075051
H         0.85108851     0.12735305    -0.62069621    -0.00006802     0.00076750     0.00008326
H         0.80666065    -0.20479946     1.88508386     0.00104278    -0.00103060     0.00070979
H        -0.93204317    -0.02009725     1.90666323     0.00068278     0.00035706     0.00006593
H        -0.94818061     0.11583151    -0.65118397     0.00077330    -0.00049145     0.00003868
     6
  Step:    37            Position(A)                                  Velocity(au)
C        -0.03480589    -0.00347919    -0.09220483    -0.00006964    -0.00001339    -0.00092876
N        -0.04244651    -0.04636715     1.40079018    -0.00012503     0.00004132     0.00073256
H         0.85127025     0.13168286    -0.62038197     0.00013135     0.00077847     0.00002777
H         0.81269592    -0.21063103     1.88918626     0.00109347    -0.00104771     0.00074446
H        -0.92821340    -0.01803796     1.90699966     0.00067248     0.00037777     0.00006134
H        -0.94411284     0.11298421    -0.65090326     0.00066988    -0.00052321     0.00005376
     6
  Step:    38            Position(A)                                  Velocity(au)
C        -0.03521635    -0.00354747    -0.09734239    -0.00007620    -0.00001121    -0.00090741
N        -0.04314912    -0.04613900     1.40484230    -0.00012424     0.00004010     0.00071626
H         0.85256053     0.13607694    -0.62038498     0.00032652     0.00079358    -0.00002863
H         0.81891454    -0.21654050     1.89342655     0.00111377    -0.00106305     0.00076284
H        -0.92450710    -0.01586377     1.90735059     0.00064198     0.00039996     0.00007112
H        -0.94067359     0.10996825    -0.65058151     0.00055226    -0.00055430     0.00005409
     6
  Step:    39            Position(A)                                  Velocity(au)
C        -0.03565794    -0.00360450    -0.10235087    -0.00008098    -0.00000935    -0.00088638
N        -0.04383572    -0.04591874     1.40879888    -0.00011990     0.00003864     0.00070124
H         0.85492115     0.14055607    -0.62070210     0.00051381     0.00081171    -0.00008357
H         0.82514932    -0.22251730     1.89771579     0.00110464    -0.00107604     0.00076566
H        -0.92103528    -0.01356591     1.90779483     0.00059168     0.00042374     0.00009460
H        -0.93793792     0.10678645    -0.65029842     0.00042096    -0.00058500     0.00004078
     6
  Step:    40            Position(A)                                  Velocity(au)
C        -0.03611999    -0.00365184    -0.10723349    -0.00008372    -0.00000771    -0.00086527
N        -0.04448712    -0.04570779     1.41266746    -0.00011215     0.00003688     0.00068693
H         0.85829419     0.14513481    -0.62131754     0.00068930     0.00083148    -0.00013479
H         0.83124120    -0.22854803     1.90197059     0.00106724    -0.00108586     0.00075369
H        -0.91790451    -0.01113524     1.90840619     0.00052245     0.00044900     0.00013075
H        -0.93597607     0.10344022    -0.65012642     0.00027712    -0.00061533     0.00001517
     6
  Step:    41            Position(A)                                  Velocity(au)
C        -0.03659074    -0.00369040    -0.11199132    -0.00008426    -0.00000616    -0.00084370
N        -0.04508528    -0.04550780     1.41645235    -0.00010124     0.00003479     0.00067275
H         0.86260109     0.14982010    -0.62220383     0.00084900     0.00085148    -0.00018022
H         0.83704004    -0.23461554     1.90611313     0.00100330    -0.00109183     0.00072794
H        -0.91521439    -0.00856334     1.90925158     0.00043588     0.00047551     0.00017815
H        -0.93485041     0.09993064    -0.65012945     0.00012265    -0.00064527    -0.00002112
     6
  Step:    42            Position(A)                                  Velocity(au)
C        -0.03705775    -0.00372041    -0.11662324    -0.00008251    -0.00000460    -0.00082141
N        -0.04561381    -0.04532058     1.42015473    -0.00008751     0.00003236     0.00065827
H         0.86774290     0.15461113    -0.62332329     0.00098917     0.00087037    -0.00021814
H         0.84240721    -0.24069932     1.91007208     0.00091522    -0.00109349     0.00068974
H        -0.91305353    -0.00584317     1.91038883     0.00033446     0.00050298     0.00023493
H        -0.93461104     0.09625880    -0.65036145    -0.00003962    -0.00067481    -0.00006610
     6
  Step:    43            Position(A)                                  Velocity(au)
C        -0.03750841    -0.00374152    -0.12112665    -0.00007851    -0.00000292    -0.00079829
N        -0.04605853    -0.04514792     1.42377333    -0.00007144     0.00002960     0.00064316
H         0.87360226     0.15950001    -0.62462992     0.00110672     0.00088705    -0.00024723
H         0.84721873    -0.24677684     1.91378415     0.00080601    -0.00109068     0.00064072
H        -0.91149466    -0.00296942     1.91186436     0.00022159     0.00053109     0.00029883
H        -0.93529107     0.09242573    -0.65086457    -0.00020611    -0.00070399    -0.00011749
     6
  Step:    44            Position(A)                                  Velocity(au)
C        -0.03793062    -0.00375287    -0.12549826    -0.00007241    -0.00000105    -0.00077436
N        -0.04640801    -0.04499153     1.42730516    -0.00005357     0.00002654     0.00062727
H         0.88004701     0.16447296    -0.62607186     0.00119936     0.00090061    -0.00026664
H         0.85136811    -0.25282507     1.91719532     0.00067917    -0.00108354     0.00058272
H        -0.91059000     0.00006130     1.91371106     0.00010138     0.00055951     0.00036723
H        -0.93690255     0.08843208    -0.65166764    -0.00037267    -0.00073295    -0.00017278
     6