    14
  Step:     0            Position(A)                                  Velocity(au)
C        -6.00645037    -0.88160499    -0.02483326    -0.00030404    -0.00010965    -0.00005552
C        -4.65666776    -0.67256598     0.16398757     0.00011711     0.00029921    -0.00017293
H        -6.56207584    -0.09203873    -0.49568231    -0.00042278     0.00025848    -0.00029010
H        -6.49733663    -1.80305507     0.17844399    -0.00014420     0.00061225     0.00059965
H        -4.05198174    -1.48599169     0.63173015     0.00021734    -0.00026442    -0.00025032
C        -3.93350418     0.54581781    -0.14578944    -0.00000969    -0.00013029     0.00013399
C        -2.61167156     0.57192992     0.11034727     0.00020764    -0.00014971     0.00004183
H        -4.41950227     1.45925845    -0.60234976     0.00019814    -0.00093252     0.00068722
H        -2.13448784    -0.27116749     0.64116246    -0.00000911     0.00031088     0.00059622
C        -1.79281756     1.70645834    -0.11544702     0.00047414    -0.00016125     0.00007679
H        -2.21808820     2.63124118    -0.61179346    -0.00049879    -0.00025012     0.00038678
N        -0.55238746     1.70909258     0.32551735    -0.00036359     0.00020103    -0.00007690
H         0.15141690     2.46409379     0.11522434    -0.00007479     0.00045621    -0.00040820
H        -0.14681192     0.85457953     0.77336749     0.00000562     0.00001470    -0.00054054
    14
  Step:     1            Position(A)                                  Velocity(au)
C        -6.00975004    -0.88272517    -0.02550291    -0.00029678    -0.00009139    -0.00006760
C        -4.65529749    -0.66931311     0.16215499     0.00013083     0.00029266    -0.00016178
H        -6.56743400    -0.08887342    -0.49903810    -0.00054589     0.00030321    -0.00031532
H        -6.49935490    -1.79726611     0.18541059    -0.00023415     0.00042702     0.00067850
H        -4.04998623    -1.48827434     0.62853358     0.00014161    -0.00014409    -0.00033849
C        -3.93414899     0.54437047    -0.14445141    -0.00010603    -0.00013536     0.00011157
C        -2.60893184     0.57032357     0.11094420     0.00029347    -0.00014272     0.00006697
H        -4.41706740     1.44765477    -0.59425253     0.00023314    -0.00115807     0.00077863
H        -2.13482686    -0.26755866     0.64727418    -0.00004948     0.00034126     0.00052455
C        -1.78793996     1.70479799    -0.11476188     0.00041118    -0.00014354     0.00004692
H        -2.22273400     2.62724646    -0.60687236    -0.00034641    -0.00047707     0.00051066
N        -0.55592715     1.71131509     0.32478617    -0.00027893     0.00020615    -0.00005573
H         0.14908409     2.46781468     0.11106987    -0.00035792     0.00021719    -0.00034818
H        -0.14745276     0.85605017     0.76673371    -0.00012042     0.00025145    -0.00066930
    14
  Step:     2            Position(A)                                  Velocity(au)
C        -6.01294309    -0.88360441    -0.02631204    -0.00028529    -0.00006648    -0.00008088
C        -4.65380571    -0.66616356     0.16044835     0.00013920     0.00028094    -0.00015024
H        -6.57401831    -0.08540537    -0.50258044    -0.00064536     0.00031240    -0.00032328
H        -6.50245902    -1.79371312     0.19328752    -0.00033678     0.00021476     0.00076361
H        -4.04888369    -1.48914394     0.62432494     0.00005743    -0.00001061    -0.00043249
C        -3.93582373     0.54285648    -0.14334870    -0.00019722    -0.00014351     0.00009150
C        -2.60525125     0.56880770     0.11181242     0.00037906    -0.00013285     0.00009105
H        -4.41440199     1.43392338    -0.58531571     0.00023499    -0.00131192     0.00083648
H        -2.13557031    -0.26370182     0.65263790    -0.00008100     0.00035406     0.00046191
C        -1.78382220     1.70331814    -0.11442048     0.00033683    -0.00012907     0.00001490
H        -2.22566665     2.62080444    -0.60062170    -0.00019018    -0.00068939     0.00062510
N        -0.55848961     1.71360257     0.32429810    -0.00018738     0.00021285    -0.00003308
H         0.14358680     2.46884519     0.10760727    -0.00063989    -0.00002198    -0.00028515
H        -0.14944641     0.86008053     0.75872518    -0.00023513     0.00047038    -0.00078533
    14
  Step:     3            Position(A)                                  Velocity(au)
C        -6.01599130    -0.88417949    -0.02727222    -0.00027126    -0.00003697    -0.00009496
C        -4.65225224    -0.66316700     0.15886821     0.00014238     0.00026562    -0.00013902
H        -6.58155249    -0.08203905    -0.50611045    -0.00071917     0.00028497    -0.00031304
H        -6.50672269    -1.79256785     0.20211593    -0.00043935    -0.00000047     0.00084922
H        -4.04872975    -1.48850636     0.61907193    -0.00002853     0.00012682    -0.00052647
C        -3.93846350     0.54123082    -0.14244965    -0.00028233    -0.00015704     0.00007479
C        -2.60063911     0.56741718     0.11293605     0.00046368    -0.00011946     0.00011336
H        -4.41192646     1.41895398    -0.57595289     0.00019367    -0.00137576     0.00085298
H        -2.13659899    -0.25981291     0.65737932    -0.00009994     0.00034567     0.00041297
C        -1.78057105     1.70197440    -0.11443602     0.00025461    -0.00011952    -0.00001726
H        -2.22689455     2.61216479    -0.59319710    -0.00003959    -0.00087070     0.00072054
N        -0.56002636     1.71597152     0.32406254    -0.00009406     0.00022093    -0.00001024
H         0.13508517     2.46733381     0.10483162    -0.00089375    -0.00023379    -0.00022618
H        -0.15259673     0.86634061     0.74955319    -0.00032549     0.00064730    -0.00087596
    14
  Step:     4            Position(A)                                  Velocity(au)
C        -6.01887742    -0.88441328    -0.02838946    -0.00025691    -0.00000540    -0.00010930
C        -4.65069084    -0.66035254     0.15740693     0.00014151     0.00024899    -0.00012893
H        -6.58975150    -0.07917107    -0.50942883    -0.00076746     0.00022311    -0.00028546
H        -6.51207061    -1.79372332     0.21186581    -0.00052849    -0.00019385     0.00092864
H        -4.04950790    -1.48636953     0.61280733    -0.00010975     0.00025881    -0.00061455
C        -3.94200015     0.53942094    -0.14171256    -0.00036193    -0.00017858     0.00006219
C        -2.59510729     0.56619439     0.11429242     0.00054775    -0.00010177     0.00013340
H        -4.41016511     1.40382600    -0.56665512     0.00010122    -0.00133518     0.00082283
H        -2.13775661    -0.25613969     0.66167233    -0.00010345     0.00031407     0.00038176
C        -1.77825216     1.70070343    -0.11479799     0.00016840    -0.00011671    -0.00004726
H        -2.22653278     2.60175629    -0.58485854     0.00009543    -0.00100489     0.00078758
N        -0.56054734     1.71843591     0.32407409    -0.00000439     0.00023009     0.00001143
H         0.12403433     2.46373069     0.10265921    -0.00109300    -0.00039091    -0.00017856
H        -0.15656724     0.87424153     0.73956196    -0.00037941     0.00075994    -0.00093002
    14
  Step:     5            Position(A)                                  Velocity(au)
C        -6.02161162    -0.88429760    -0.02966327    -0.00024495     0.00002564    -0.00012331
C        -4.64915638    -0.65771978     0.15604769     0.00013880     0.00023393    -0.00012073
H        -6.59834214    -0.07715817    -0.51235540    -0.00079207     0.00013156    -0.00024295
H        -6.51828437    -1.79680863     0.22243181    -0.00059247    -0.00034383     0.00099533
H        -4.05113079    -1.48284438     0.60562740    -0.00017986     0.00037597    -0.00069116
C        -3.94638131     0.53732408    -0.14108911    -0.00043772    -0.00021052     0.00005411
C        -2.58865603     0.56519068     0.11585453     0.00063220    -0.00007921     0.00015088
H        -4.40971197     1.38974446    -0.55795201    -0.00004575    -0.00118403     0.00074510
H        -2.13886226    -0.25294201     0.66573113    -0.00008980     0.00025917     0.00037118
C        -1.77688691     1.69942125    -0.11547000     0.00008230    -0.00012232    -0.00007285
H        -2.22480682     2.59018097    -0.57596726     0.00020485    -0.00107672     0.00081738
N        -0.56012241     1.72100523     0.32431268     0.00007644     0.00023978     0.00003074
H         0.11117368     2.45878202     0.10092522    -0.00121320    -0.00046749    -0.00014962
H        -0.16089714     0.88296572     0.72920730    -0.00038698     0.00079016    -0.00093893
    14
  Step:     6            Position(A)                                  Velocity(au)
C        -6.02423626    -0.88385243    -0.03108711    -0.00023805     0.00005379    -0.00013648
C        -4.64765438    -0.65523480     0.15476564     0.00013649     0.00022285    -0.00011496
H        -6.60707964    -0.07629290    -0.51474385    -0.00079612     0.00001700    -0.00018899
H        -6.52503203    -1.80124536     0.23364053    -0.00062296    -0.00043531     0.00104386
H        -4.05344271    -1.47814444     0.59768699    -0.00023274     0.00046897    -0.00075126
C        -3.95157601     0.53481531    -0.14052887    -0.00051027    -0.00025347     0.00005051
C        -2.58127677     0.56446148     0.11759314     0.00071608    -0.00005216     0.00016562
H        -4.41116606     1.37792308    -0.55035467    -0.00024358    -0.00092935     0.00062451
H        -2.13972122    -0.25046996     0.66979268    -0.00005817     0.00018259     0.00038178
C        -1.77645177     1.69802750    -0.11639172     0.00000038    -0.00013708    -0.00009225
H        -2.22205132     2.57820092    -0.56697670     0.00027929    -0.00107323     0.00080268
N        -0.55887513     1.72368164     0.32474656     0.00014424     0.00024918     0.00004691
H         0.09749319     2.45350347     0.09938605    -0.00123486    -0.00044217    -0.00014595
H        -0.16503315     0.89152770     0.71902106    -0.00034213     0.00072753    -0.00089838
    14
  Step:     7            Position(A)                                  Velocity(au)
C        -6.02681950    -0.88312082    -0.03264898    -0.00023752     0.00007738    -0.00014827
C        -4.64617037    -0.65284451     0.15353262     0.00013499     0.00021616    -0.00011164
H        -6.61575870    -0.07678633    -0.51648992    -0.00078359    -0.00011265    -0.00012763
H        -6.53191283    -1.80633177     0.24526833    -0.00061595    -0.00046114     0.00107072
H        -4.05622232    -1.47258473     0.58919214    -0.00026271     0.00052894    -0.00079071
C        -3.95754442     0.53177892    -0.13998419    -0.00057683    -0.00030456     0.00005084
C        -2.57299030     0.56404962     0.11947776     0.00079460    -0.00002268     0.00017754
H        -4.41504072     1.36941315    -0.54428956    -0.00047979    -0.00059447     0.00047187
H        -2.14013477    -0.24894748     0.67408324    -0.00000870     0.00008761     0.00041085
C        -1.77687849     1.69642247    -0.11748822    -0.00007336    -0.00015990    -0.00010473
H        -2.21869685     2.56670205    -0.55840720     0.00031135    -0.00098607     0.00073926
N        -0.55696686     1.72645650     0.32533890     0.00019665     0.00025723     0.00005984
H         0.08415868     2.44910863     0.09773220    -0.00114794    -0.00030314    -0.00017218
H        -0.16838179     0.89888173     0.70955353    -0.00024441     0.00057318    -0.00081012
    14
  Step:     8            Position(A)                                  Velocity(au)
C        -6.02943243    -0.88215958    -0.03433078    -0.00024264     0.00009556    -0.00015810
C        -4.64470128    -0.65050599     0.15232335     0.00013221     0.00021211    -0.00011037
H        -6.62422209    -0.07875735    -0.51753607    -0.00075918    -0.00024878    -0.00006336
H        -6.53850714    -1.81133371     0.25706454    -0.00057163    -0.00042181     0.00107442
H        -4.05918989    -1.46657292     0.58038874    -0.00026527     0.00054854    -0.00080659
C        -3.96419522     0.52815250    -0.13941668    -0.00063256    -0.00035781     0.00005391
C        -2.56389331     0.56396524     0.12147713     0.00086070     0.00000594     0.00018667
H        -4.42166230     1.36491791    -0.54003171    -0.00073382    -0.00021742     0.00030372
H        -2.13991156    -0.24855338     0.67878072     0.00005711    -0.00002036     0.00045297
C        -1.77805674     1.69452945    -0.11868291    -0.00013551    -0.00018814    -0.00011052
H        -2.21523991     2.55662879    -0.55080394     0.00029741    -0.00081440     0.00062735
N        -0.55457304     1.72930913     0.32605575     0.00023347     0.00026296     0.00006999
H         0.07237989     2.44687160     0.09561939    -0.00095654    -0.00005381    -0.00022896
H        -0.17038003     0.90406703     0.70129817    -0.00010024     0.00034223    -0.00068285
    14
  Step:     9            Position(A)                                  Velocity(au)
C        -6.03212779    -0.88103025    -0.03610779    -0.00025151     0.00010816    -0.00016544
C        -4.64327803    -0.64820418     0.15111802     0.00012515     0.00020816    -0.00011068
H        -6.63236730    -0.08222880    -0.51787598    -0.00072812    -0.00038261    -0.00000085
H        -6.54441833    -1.81555975     0.26877338    -0.00049354    -0.00032376     0.00105541
H        -4.06202572    -1.46058428     0.57154641    -0.00023808     0.00052345    -0.00079752
C        -3.97138283     0.52395112    -0.13880484    -0.00067388    -0.00040624     0.00005794
C        -2.55416086     0.56417954     0.12356157     0.00090878     0.00003047     0.00019334
H        -4.43109444     1.36465667    -0.53764511    -0.00098063     0.00015572     0.00014044
H        -2.13888529    -0.24939283     0.68399287     0.00013616    -0.00013344     0.00050129
C        -1.77984310     1.69230657    -0.11990610    -0.00018379    -0.00021853    -0.00011047
H        -2.21219037     2.54888547    -0.54468265     0.00023952    -0.00056768     0.00047252
N        -0.55185929     1.73220936     0.32687012     0.00025659     0.00026581     0.00007798
H         0.06323259     2.44793151     0.09272325    -0.00068153     0.00028339    -0.00031120
H        -0.17057481     0.90636878     0.69461486     0.00007731     0.00006346    -0.00053139
    14
  Step:    10            Position(A)                                  Velocity(au)
C        -6.03493474    -0.87979336    -0.03795000    -0.00026209     0.00011540    -0.00016987
C        -4.64196339    -0.64595215     0.14990192     0.00011144     0.00020197    -0.00011211
H        -6.64015117    -0.08712767    -0.51755455    -0.00069582    -0.00050564     0.00005519
H        -6.54930429    -1.81841660     0.28015371    -0.00038757    -0.00017752     0.00101574
H        -4.06439829    -1.45512147     0.56294140    -0.00018153     0.00045327    -0.00076399
C        -3.97893764     0.51926514    -0.13814913    -0.00069978    -0.00044368     0.00006096
C        -2.54401202     0.56463194     0.12570679     0.00093621     0.00004834     0.00019816
H        -4.44311545     1.36832465    -0.53695924    -0.00119579     0.00048019     0.00000214
H        -2.13693270    -0.25147260     0.68974745     0.00022404    -0.00024202     0.00054849
C        -1.78207758     1.68974864    -0.12109955    -0.00021732    -0.00024758    -0.00010579
H        -2.20999993     2.54420967    -0.54046661     0.00014617    -0.00026691     0.00028593
N        -0.54895958     1.73512430     0.32776161     0.00026961     0.00026590     0.00008426
H         0.05747010     2.45307123     0.08881129    -0.00035904     0.00066760    -0.00040745
H        -0.16868881     0.90545526     0.68967289     0.00027047    -0.00022479    -0.00037418
    14
  Step:    11            Position(A)                                  Velocity(au)
C        -6.03786158    -0.87850562    -0.03982396    -0.00027266     0.00011770    -0.00017117
C        -4.64084014    -0.64378580     0.14866541     0.00008974     0.00019154    -0.00011414
H        -6.64758976    -0.09329071    -0.51666849    -0.00066757    -0.00061002     0.00010027
H        -6.55289725    -1.81944328     0.29099471    -0.00026096     0.00000408     0.00095864
H        -4.06599708    -1.45066814     0.55483265    -0.00009926     0.00034211    -0.00070870
C        -3.98669186     0.51424475    -0.13747119    -0.00071086    -0.00046552     0.00006129
C        -2.53367952     0.56523696     0.12789681     0.00094254     0.00005751     0.00020196
H        -4.45725472     1.37516175    -0.53759833    -0.00136035     0.00072126    -0.00009583
H        -2.13398405    -0.25468742     0.69599216     0.00031578    -0.00033609     0.00058747
C        -1.78459732     1.68689031    -0.12222043    -0.00023635    -0.00027152    -0.00009807
H        -2.20899264     2.54304628    -0.53842740     0.00003137     0.00005694     0.00008337
N        -0.54596100     1.73802649     0.32871358     0.00027708     0.00026404     0.00008906
H         0.05537780     2.46253658     0.08380940    -0.00003399     0.00104630    -0.00050166
H        -0.16465769     0.90145099     0.68642893     0.00045998    -0.00048150    -0.00022982
    14
  Step:    12            Position(A)                                  Velocity(au)
C        -6.04089968    -0.87721853    -0.04169462    -0.00028179     0.00011559    -0.00016927
C        -4.64000013    -0.64176192     0.14740497     0.00005962     0.00017501    -0.00011616
H        -6.65475559    -0.10047312    -0.51536089    -0.00064821    -0.00068897     0.00013046
H        -6.55501338    -1.81832727     0.30112577    -0.00012162     0.00020711     0.00088819
H        -4.06656977    -1.44763713     0.54743731     0.00000182     0.00019873    -0.00063652
C        -3.99448896     0.50908108    -0.13680840    -0.00070823    -0.00046895     0.00005781
C        -2.52339225     0.56588997     0.13012510     0.00092856     0.00005650     0.00020558
H        -4.47287566     1.38410369    -0.53905560    -0.00146351     0.00085936    -0.00014536
H        -2.13002441    -0.25882513     0.70259955     0.00040663    -0.00040684     0.00061201
C        -1.78724820     1.68380870    -0.12324503    -0.00024196    -0.00028654    -0.00008909
H        -2.20931373     2.54545531    -0.53864279    -0.00008794     0.00036760    -0.00011707
N        -0.54289799     1.74090078     0.32971006     0.00028349     0.00026147     0.00009233
H         0.05672653     2.47596095     0.07783653     0.00024993     0.00136642    -0.00057672
H        -0.15862597     0.89492161     0.68464516     0.00062853    -0.00067068    -0.00011378
    14
  Step:    13            Position(A)                                  Velocity(au)
C        -6.04402626    -0.87597683    -0.04352701    -0.00028831     0.00010978    -0.00016425
C        -4.63953594    -0.63995722     0.14612422     0.00002132     0.00015067    -0.00011752
H        -6.66177052    -0.10836330    -0.51381452    -0.00064165    -0.00073731     0.00014266
H        -6.55555791    -1.81491234     0.31042548     0.00002223     0.00041716     0.00080916
H        -4.06595735    -1.44632051     0.54090756     0.00011202     0.00003583    -0.00055411
C        -4.00218565     0.50398562    -0.13620658    -0.00069307    -0.00045299     0.00005008
C        -2.51336543     0.56647310     0.13239421     0.00089580     0.00004444     0.00020975
H        -4.48927180     1.39396185    -0.54077835    -0.00150276     0.00089039    -0.00014563
H        -2.12508814    -0.26358779     0.70938109     0.00049259    -0.00044787     0.00061748
C        -1.78989060     1.68062176    -0.12416944    -0.00023555    -0.00028931    -0.00008053
H        -2.21091652     2.55108826    -0.54098863    -0.00019540     0.00063029    -0.00029825
N        -0.53975913     1.74374665     0.33073342     0.00029235     0.00025943     0.00009386
H         0.06084559     2.49242971     0.07119262     0.00045958     0.00158602    -0.00061853
H        -0.15090740     0.88677854     0.68393979     0.00076355    -0.00076761    -0.00003606
    14
  Step:    14            Position(A)                                  Velocity(au)
C        -6.04720712    -0.87481687    -0.04528800    -0.00029132     0.00010112    -0.00015639
C        -4.63953374    -0.63846568     0.14483406    -0.00002430     0.00011719    -0.00011759
H        -6.66879297    -0.11660308    -0.51223985    -0.00065041    -0.00075199     0.00013507
H        -6.55452696    -1.80920108     0.31882775     0.00016229     0.00061974     0.00072687
H        -4.06411920    -1.44685324     0.53531514     0.00022005    -0.00013155    -0.00046900
C        -4.00965110     0.49917110    -0.13571279    -0.00066652    -0.00041823     0.00003824
C        -2.50379494     0.56686225     0.13471382     0.00084619     0.00002113     0.00021500
H        -4.50575145     1.40358257    -0.54224164    -0.00148199     0.00082243    -0.00010133
H        -2.11924815    -0.26862304     0.71610808     0.00057066    -0.00045584     0.00060131
C        -1.79240139     1.67747943    -0.12500682    -0.00021862    -0.00027758    -0.00007371
H        -2.21358857     2.55924418    -0.54516752    -0.00027833     0.00081810    -0.00044684
N        -0.53650238     1.74657629     0.33176340     0.00030562     0.00025886     0.00009344
H         0.06678063     2.51065819     0.06430493     0.00057757     0.00168159    -0.00061886
H        -0.14192189     0.87812865     0.68385633     0.00085840    -0.00076161    -0.00000040
    14
  Step:    15            Position(A)                                  Velocity(au)
C        -6.05039948    -0.87376459    -0.04694825    -0.00029017     0.00009067    -0.00014610
C        -4.64006762    -0.63739349     0.14355169    -0.00007596     0.00007379    -0.00011591
H        -6.67599955    -0.12481444    -0.51085955    -0.00067507    -0.00073262     0.00010742
H        -6.55200750    -1.80135425     0.32632713     0.00029033     0.00080054     0.00064705
H        -4.06114329    -1.44919835     0.53064729     0.00031452    -0.00028815    -0.00038855
C        -4.01676698     0.49483597    -0.13537002    -0.00062977    -0.00036654     0.00002283
C        -2.49485349     0.56693533     0.13709781     0.00078197    -0.00001287     0.00022158
H        -4.52169321     1.41195416    -0.54299504    -0.00140899     0.00067120    -0.00002033
H        -2.11260383    -0.27356009     0.72253594     0.00063895    -0.00043065     0.00056311
C        -1.79467335     1.67454906    -0.12578194    -0.00019253    -0.00025052    -0.00006939
H        -2.21700562     2.56898570    -0.55076421    -0.00032930     0.00091558    -0.00055497
N        -0.53307318     1.74940975     0.33277769     0.00032373     0.00026026     0.00009094
H         0.07348098     2.52921777     0.05765393     0.00060232     0.00164925    -0.00057599
H        -0.13212828     0.87011687     0.68393104     0.00091216    -0.00065529    -0.00000503
    14
  Step:    16            Position(A)                                  Velocity(au)
C        -6.05355515    -0.87283331    -0.04848427    -0.00028452     0.00007967    -0.00013403
C        -4.64119543    -0.63685136     0.14229840    -0.00013202     0.00002051    -0.00011222
H        -6.68356136    -0.13263045    -0.50988981    -0.00071393    -0.00068172     0.00006121
H        -6.54817550    -1.79168777     0.33298324     0.00039839     0.00094573     0.00057576
H        -4.05723836    -1.45315715     0.52681481     0.00038543    -0.00042070    -0.00031894
C        -4.02342863     0.49115227    -0.13521334    -0.00058418    -0.00030073     0.00000469
C        -2.48668795     0.56658071     0.13956132     0.00070558    -0.00005621     0.00022945
H        -4.53657586     1.41826643    -0.54268641    -0.00129331     0.00045601     0.00008814
H        -2.10527001    -0.27804430     0.72842729     0.00069647    -0.00037516     0.00050450
C        -1.79661339     1.67199886    -0.12652478    -0.00015853    -0.00020878    -0.00006776
H        -2.22079274     2.57927426    -0.55730859    -0.00034615     0.00091928    -0.00062024
N        -0.52942024     1.75226990     0.33375292     0.00034587     0.00026370     0.00008630
H         0.07995758     2.54673862     0.05170401     0.00054436     0.00150098    -0.00049373
H        -0.12196656     0.86379293     0.68374634     0.00092853    -0.00046165    -0.00004410
    14
  Step:    17            Position(A)                                  Velocity(au)
C        -6.05662400    -0.87202167    -0.04988049    -0.00027437     0.00006952    -0.00012098
C        -4.64295588    -0.63694476     0.14109659    -0.00019069    -0.00004171    -0.00010660
H        -6.69161805    -0.13972827    -0.50952043    -0.00076291    -0.00060473    -0.00000023
H        -6.54329205    -1.78066463     0.33892294     0.00047905     0.00104254     0.00051909
H        -4.05271127    -1.45840189     0.52366981     0.00042530    -0.00051953    -0.00026445
C        -4.02954703     0.48825690    -0.13526746    -0.00053124    -0.00022431    -0.00001517
C        -2.47941768     0.56570558     0.14211740     0.00061958    -0.00010684     0.00023828
H        -4.54998692     1.42193033    -0.54106677    -0.00114490     0.00019719     0.00021477
H        -2.09736712    -0.28176738     0.73357284     0.00074310    -0.00029468     0.00042875
C        -1.79814147     1.66998165    -0.12726432    -0.00011780    -0.00015434    -0.00006852
H        -2.22457829     2.58909678    -0.56433307    -0.00033079     0.00083559    -0.00064470
N        -0.52550660     1.75517876     0.33466564     0.00037047     0.00026904     0.00007953
H         0.08538987     2.56205459     0.04685260     0.00042144     0.00125900    -0.00037949
H        -0.11181496     0.86001749     0.68296637     0.00091434    -0.00020040    -0.00010931
    14
  Step:    18            Position(A)                                  Velocity(au)
C        -6.05955754    -0.87131234    -0.05113097    -0.00026004     0.00006168    -0.00010786
C        -4.64536709    -0.63776382     0.13996635    -0.00025005    -0.00011103    -0.00009938
H        -6.70025145    -0.14586008    -0.50989476    -0.00081575    -0.00050960    -0.00007198
H        -6.53769543    -1.76888017     0.34433937     0.00052594     0.00108019     0.00048277
H        -4.04793420    -1.46452278     0.52102944     0.00042980    -0.00057948    -0.00022719
C        -4.03505051     0.48624510    -0.13554511    -0.00047259    -0.00014130    -0.00003559
C        -2.47313353     0.56424334     0.14477423     0.00052657    -0.00016212     0.00024753
H        -4.56162270     1.42258023    -0.53798794    -0.00097356    -0.00008516     0.00035063
H        -2.08901331    -0.28449100     0.73780705     0.00077928    -0.00019630     0.00034040
C        -1.79919046     1.66862229    -0.12802389    -0.00007153    -0.00009018    -0.00007101
H        -2.22802934     2.59755443    -0.57141254    -0.00028772     0.00067756    -0.00063339
N        -0.52131557     1.75815560     0.33549287     0.00039554     0.00027598     0.00007070
H         0.08917748     2.57428175     0.04340203     0.00025448     0.00095071    -0.00024255
H        -0.10196371     0.85940887     0.68135504     0.00087834     0.00010505    -0.00019119
    14
  Step:    19            Position(A)                                  Velocity(au)
C        -6.06231278    -0.87067241    -0.05224014    -0.00024218     0.00005740    -0.00009559
C        -4.64842616    -0.63937372     0.13892248    -0.00030821    -0.00018487    -0.00009115
H        -6.70946421    -0.15087670    -0.51109520    -0.00086472    -0.00040581    -0.00014810
H        -6.53178616    -1.75703332     0.34948446     0.00053456     0.00105148     0.00047132
H        -4.04330858    -1.47107920     0.51869950     0.00039773    -0.00059980    -0.00020728
C        -4.03988574     0.48516577    -0.13604598    -0.00040988    -0.00005605    -0.00005536
C        -2.46789795     0.56215885     0.14753269     0.00042912    -0.00021902     0.00025646
H        -4.57128551     1.42006721    -0.53339599    -0.00078898    -0.00037139     0.00048732
H        -2.08031896    -0.28606189     0.74101978     0.00080592    -0.00008821     0.00024479
C        -1.79970634     1.66800888    -0.12881774    -0.00002096    -0.00001985    -0.00007430
H        -2.23087268     2.60391967    -0.57818960    -0.00022272     0.00046194    -0.00059300
N        -0.51685348     1.76121635     0.33621233     0.00041896     0.00028423     0.00005987
H         0.09095708     2.58285314     0.04154637     0.00006504     0.00060545    -0.00009298
H        -0.09259966     0.86231563     0.67878382     0.00083034     0.00042963    -0.00027987
    14
  Step:    20            Position(A)                                  Velocity(au)
C        -6.06485570    -0.87005664    -0.05322209    -0.00022176     0.00005756    -0.00008493
C        -4.65210982    -0.64180811     0.13797217    -0.00036340    -0.00026017    -0.00008268
H        -6.71916883    -0.15473804    -0.51313474    -0.00090163    -0.00030318    -0.00022226
H        -6.52600086    -1.74587696     0.35465030     0.00050322     0.00095453     0.00048707
H        -4.03923317    -1.47764449     0.51649484     0.00033057    -0.00058343    -0.00020313
C        -4.04401745     0.48501899    -0.13675611    -0.00034470     0.00002695    -0.00007322
C        -2.46374580     0.55945183     0.15038481     0.00032966    -0.00027431     0.00026422
H        -4.57888316     1.41445543    -0.52732690    -0.00060095    -0.00064199     0.00061674
H        -2.07138225    -0.28642066     0.74316235     0.00082429     0.00002093     0.00014764
C        -1.79964903     1.66818811    -0.12964941     0.00003263     0.00005278    -0.00007740
H        -2.23290174     2.60766015    -0.58438560    -0.00014197     0.00020698    -0.00053097
N        -0.51215011     1.76437360     0.33680266     0.00043859     0.00029346     0.00004715