    14
  Step:   600            Position(A)                                  Velocity(au)
C        -5.17506058    -1.33306406    -0.62398360     0.00036267    -0.00015270    -0.00046926
C        -5.06360395    -0.04311281    -0.33435418    -0.00051417    -0.00010318     0.00050098
H        -4.42097509    -1.88134581    -0.15645333    -0.00060996    -0.00097913     0.00051358
H        -5.91899262    -1.65584975    -1.39805258    -0.00039930     0.00113337    -0.00172776
H        -5.70117775     0.68797354    -0.83890055     0.00137350    -0.00019682     0.00163968
C        -4.10133850     0.84791467     0.50889154    -0.00087039     0.00006199     0.00013395
C        -2.87524342     1.40217679     0.79569264    -0.00001527    -0.00015127     0.00001903
H        -4.96314934     1.24663054     1.14662074    -0.00028063    -0.00012881    -0.00089748
H        -3.05195117     2.21602929     1.55827194     0.00147910     0.00015944     0.00011754
C        -1.50915804     1.01481074     0.59936136     0.00038532     0.00103321    -0.00016687
H        -1.19964725     0.07271233     1.16044525     0.00170052     0.00040152    -0.00117222
N        -0.77973664     1.21161295    -0.43677195     0.00040396    -0.00047668     0.00001024
H         0.08903369     0.69020329    -0.46534477    -0.00124882    -0.00249883     0.00062357
H        -0.84976769     1.92115450    -1.19062382     0.00013924     0.00053437     0.00054825
