    14
  Step:     0            Position(A)                                  Velocity(au)
C        -6.06294384    -0.62856683    -0.09968148     0.00008372     0.00015246     0.00002050
C        -4.76459679    -0.76808292     0.14231060     0.00003401    -0.00013212    -0.00011174
H        -6.45977237     0.31636615    -0.63957197    -0.00005244     0.00027406     0.00026507
H        -6.86225016    -1.37205046     0.02293769     0.00039452     0.00014856    -0.00000721
H        -4.36371123    -1.65073317     0.62951894    -0.00092643    -0.00006521     0.00037064
C        -3.79385003     0.30897208    -0.11081129    -0.00032063    -0.00019187     0.00001401
C        -2.44219045     0.36897761     0.25455628     0.00009967    -0.00007067    -0.00003599
H        -4.31765817     1.21916598    -0.58502941     0.00054966    -0.00029967     0.00081198
H        -1.90551662    -0.50388216     0.63500471    -0.00022252     0.00056311     0.00074585
C        -1.87918957     1.62133951    -0.02375822     0.00008737     0.00010085    -0.00017553
H        -2.45627039     2.48520318    -0.32590106    -0.00012109     0.00024571    -0.00031008
N        -0.55465852     1.95548462     0.19357456    -0.00002768     0.00000113     0.00021037
H        -0.27360757     2.93759983     0.08864607     0.00003551     0.00041763    -0.00034669
H         0.09628492     1.27920597     0.56044931     0.00091646     0.00038441    -0.00101209
    14
  Step:     1            Position(A)                                  Velocity(au)
C        -6.06251447    -0.62670742    -0.09969868    -0.00000438     0.00018766    -0.00002345
C        -4.76369340    -0.76945500     0.14119519     0.00012968    -0.00011839    -0.00009232
H        -6.45947568     0.31783860    -0.63547000     0.00010538    -0.00000200     0.00048136
H        -6.85726240    -1.37052353     0.02325716     0.00050810     0.00012498     0.00006670
H        -4.37391930    -1.65190177     0.63365080    -0.00093159    -0.00015258     0.00038474
C        -3.79799794     0.30677830    -0.11076570    -0.00043417    -0.00021022    -0.00000427
C        -2.44088432     0.36831885     0.25413541     0.00013789    -0.00004755    -0.00004167
H        -4.31018852     1.21462913    -0.57544318     0.00079878    -0.00051221     0.00092779
H        -1.90787196    -0.49738749     0.64310379    -0.00019966     0.00061106     0.00073887
C        -1.87802548     1.62247074    -0.02556814     0.00012416     0.00010467    -0.00015529
H        -2.45818816     2.48763342    -0.32962681    -0.00022103     0.00018944    -0.00036764
N        -0.55501929     1.95553034     0.19585339    -0.00003785     0.00000950     0.00020593
H        -0.27315033     2.94136469     0.08494483     0.00004246     0.00025138    -0.00032795
H         0.10667875     1.28329094     0.54950645     0.00098153     0.00035697    -0.00098820
    14
  Step:     2            Position(A)                                  Velocity(au)
C        -6.06303970    -0.62446148    -0.10019440    -0.00008893     0.00022234    -0.00006624
C        -4.76175983    -0.77067300     0.14029101     0.00022092    -0.00010407    -0.00007332
H        -6.45746705     0.31632247    -0.62904123     0.00025556    -0.00026318     0.00068476
H        -6.85113454    -1.36931626     0.02439691     0.00060008     0.00008849     0.00014258
H        -4.38409165    -1.65407121     0.63793597    -0.00092028    -0.00024547     0.00039743
C        -3.80334838     0.30437319    -0.11090472    -0.00053956    -0.00023113    -0.00001928
C        -2.43917387     0.36793729     0.25364464     0.00017360    -0.00001994    -0.00004882
H        -4.30018338     1.20796050    -0.56473224     0.00100649    -0.00068013     0.00101279
H        -1.90988456    -0.49051413     0.65116891    -0.00015971     0.00063204     0.00074006
C        -1.87647330     1.62362927    -0.02715544     0.00015807     0.00010570    -0.00013487
H        -2.46110586     2.48934761    -0.33394388    -0.00030237     0.00011460    -0.00041775
N        -0.55548652     1.95569238     0.19807971    -0.00004700     0.00002142     0.00020101
H        -0.27267860     2.94309929     0.08147161     0.00004045     0.00005622    -0.00030602
H         0.11775771     1.28701539     0.53883060     0.00103725     0.00032264    -0.00096555
    14
  Step:     3            Position(A)                                  Velocity(au)
C        -6.06445992    -0.62184338    -0.10114779    -0.00016641     0.00025479    -0.00010638
C        -4.75886031    -0.77173170     0.13959125     0.00030509    -0.00008944    -0.00005508
H        -6.45388489     0.31208095    -0.62048961     0.00038789    -0.00049040     0.00086360
H        -6.84413451    -1.36858766     0.02637630     0.00066554     0.00003654     0.00021988
H        -4.39405208    -1.65727199     0.64234531    -0.00089347    -0.00033801     0.00040600
C        -3.80980177     0.30172184    -0.11118745    -0.00063496    -0.00025591    -0.00003010
C        -2.43708644     0.36788259     0.25306739     0.00020688     0.00001204    -0.00005746
H        -4.28816955     1.19974993    -0.55328653     0.00115956    -0.00078439     0.00105740
H        -1.91136591    -0.48356045     0.65929410    -0.00010319     0.00062674     0.00074976
C        -1.87456741     1.62478319    -0.02851860     0.00018871     0.00010375    -0.00011434
H        -2.46480301     2.49014043    -0.33876596    -0.00036269     0.00002168    -0.00045980
N        -0.55604750     1.95599905     0.20025085    -0.00005489     0.00003492     0.00019606
H        -0.27226549     2.94259454     0.07825001     0.00003422    -0.00014759    -0.00028318
H         0.12937048     1.29034923     0.52838317     0.00107483     0.00028940    -0.00094822
    14
  Step:     4            Position(A)                                  Velocity(au)
C        -6.06668028    -0.61888739    -0.10252176    -0.00023400     0.00028307    -0.00014242
C        -4.75508536    -0.77262957     0.13908604     0.00038009    -0.00007489    -0.00003781
H        -6.44898113     0.30559403    -0.61014837     0.00049182    -0.00066287     0.00100585
H        -6.83657452    -1.36851691     0.02920715     0.00070157    -0.00003176     0.00029773
H        -4.40363812    -1.66146592     0.64681803    -0.00085258    -0.00042381     0.00040752
C        -3.81723939     0.29877468    -0.11156330    -0.00071867    -0.00028580    -0.00003593
C        -2.43464799     0.36820069     0.25238768     0.00023780     0.00004778    -0.00006745
H        -4.27481571     1.19080055    -0.54159959     0.00124610    -0.00080620     0.00105289
H        -1.91214208    -0.47680306     0.66757137    -0.00003226     0.00059848     0.00076720
C        -1.87234498     1.62589891    -0.02965692     0.00021595     0.00009876    -0.00009381
H        -2.46904040     2.48982189    -0.34400288    -0.00040097    -0.00008711    -0.00049364
N        -0.55668733     1.95645639     0.20236893    -0.00006138     0.00004801     0.00019148
H        -0.27192992     2.93987046     0.07527659     0.00002875    -0.00033923    -0.00026201
H         0.14127171     1.29334652     0.51808648     0.00108654     0.00026405    -0.00093902
    14
  Step:     5            Position(A)                                  Velocity(au)
C        -6.06957909    -0.61565073    -0.10426340    -0.00028968     0.00030495    -0.00017293
C        -4.75054503    -0.77337001     0.13876406     0.00044443    -0.00006096    -0.00002157
H        -6.44312531     0.29757932    -0.59848481     0.00055669    -0.00075837     0.00109941
H        -6.82878636    -1.36928242     0.03288975     0.00070762    -0.00011521     0.00037485
H        -4.41270380    -1.66654366     0.65126064    -0.00079909    -0.00049659     0.00039916
C        -3.82552414     0.29546946    -0.11197344    -0.00078902    -0.00032164    -0.00003614
C        -2.43188419     0.36892782     0.25159172     0.00026620     0.00008609    -0.00007856
H        -4.26090869     1.18211283    -0.53025245     0.00125766    -0.00073052     0.00099303
H        -1.91207173    -0.47046755     0.67607805     0.00004937     0.00055310     0.00079044
C        -1.86984307     1.62694374    -0.03057083     0.00023994     0.00009100    -0.00007340
H        -2.47357491     2.48823467    -0.34956525    -0.00041745    -0.00020816    -0.00051951
N        -0.55739028     1.95704937     0.20443981    -0.00006647     0.00005891     0.00018754
H        -0.27163649     2.93517317     0.07251814     0.00002880    -0.00049898    -0.00024526
H         0.15314059     1.29612582     0.50784040     0.00106682     0.00025119    -0.00093912
    14
  Step:     6            Position(A)                                  Velocity(au)
C        -6.07301754    -0.61221601    -0.10630502    -0.00033233     0.00031811    -0.00019669
C        -4.74536262    -0.77396308     0.13861412     0.00049710    -0.00004834    -0.00000629
H        -6.43680249     0.28900319    -0.58609664     0.00057261    -0.00075493     0.00113324
H        -6.82109392    -1.37103743     0.03740781     0.00068569    -0.00021031     0.00044952
H        -4.42111984    -1.67232971     0.65555047    -0.00073447    -0.00055086     0.00037856
C        -3.83450076     0.29173824    -0.11235394    -0.00084440    -0.00036334    -0.00003053
C        -2.42882429     0.37008401     0.25066910     0.00029155     0.00012524    -0.00009042
H        -4.24730205     1.17481900    -0.51987516     0.00119179    -0.00055116     0.00087635
H        -1.91106202    -0.46470293     0.68486366     0.00013677     0.00049839     0.00081644
C        -1.86709576     1.62788960    -0.03126263     0.00026102     0.00008102    -0.00005332
H        -2.47817300     2.48526796    -0.35536820    -0.00041356    -0.00033676    -0.00053796
N        -0.55814142     1.95774506     0.20647180    -0.00007026     0.00006620     0.00018442
H        -0.27129979     2.92895438     0.06991104     0.00003855    -0.00060982    -0.00023562
H         0.16461046     1.29884176     0.49754152     0.00101311     0.00025266    -0.00094802
    14
  Step:     7            Position(A)                                  Velocity(au)
C        -6.07684936    -0.60869149    -0.10856642    -0.00036169     0.00032042    -0.00021276
C        -4.73967008    -0.77442753     0.13862651     0.00053739    -0.00003795     0.00000822
H        -6.43059844     0.28106387    -0.57369308     0.00053218    -0.00063480     0.00109942
H        -6.81378551    -1.37388342     0.04272380     0.00064009    -0.00031124     0.00051963
H        -4.42877173    -1.67859482     0.65954236    -0.00065991    -0.00058256     0.00034413
C        -3.84399703     0.28752073    -0.11264124    -0.00088344    -0.00040932    -0.00001948
C        -2.42550604     0.37166769     0.24961370     0.00031292     0.00016317    -0.00010261
H        -4.23483607     1.17005506    -0.51108052     0.00105419    -0.00027641     0.00070841
H        -1.90907955    -0.45956428     0.69393933     0.00022435     0.00044314     0.00084136
C        -1.86413274     1.62871610    -0.03173733     0.00027953     0.00006956    -0.00003386
H        -2.48262231     2.48086739    -0.36133411    -0.00039161    -0.00046750    -0.00054979
N        -0.55892738     1.95849769     0.20847441    -0.00007287     0.00006904     0.00018219
H        -0.27079323     2.92183226     0.06736357     0.00006106    -0.00065927    -0.00023534
H         0.17530432     1.30165330     0.48710071     0.00092616     0.00026748    -0.00096379
    14
  Step:     8            Position(A)                                  Velocity(au)
C        -6.08093018    -0.60520621    -0.11095953    -0.00037839     0.00031054    -0.00022077
C        -4.73360608    -0.77479331     0.13879392     0.00056478    -0.00003088     0.00002220
H        -6.42516010     0.27511565    -0.56204466     0.00043296    -0.00039080     0.00099641
H        -6.80709071    -1.37784648     0.04877566     0.00057682    -0.00041042     0.00058284
H        -4.43555659    -1.68507422     0.66307889    -0.00057634    -0.00058941     0.00029528
C        -3.85382779     0.28278363    -0.11278009    -0.00090530    -0.00045619    -0.00000416
C        -2.42197857     0.37365374     0.24842432     0.00032932     0.00019781    -0.00011468
H        -4.22423956     1.16877211    -0.50437729     0.00085915     0.00006743     0.00050274
H        -1.90615399    -0.45500829     0.70327000     0.00030648     0.00039601     0.00086086
C        -1.86098049     1.62941133    -0.03200347     0.00029572     0.00005735    -0.00001534
H        -2.48674031     2.47504040    -0.36739587    -0.00035465    -0.00059464    -0.00055612
N        -0.55973570     1.95925542     0.21045746    -0.00007437     0.00006722     0.00018081
H        -0.26996395     2.91453161     0.06476261     0.00009778    -0.00064129    -0.00024590
H         0.18487191     1.30469336     0.47645668     0.00080990     0.00029209    -0.00098351
    14
  Step:     9            Position(A)                                  Velocity(au)
C        -6.08512730    -0.60189780    -0.11339617    -0.00038389     0.00028855    -0.00022117
C        -4.72731453    -0.77510320     0.13911212     0.00057876    -0.00002837     0.00003593
H        -6.42112660     0.27251430    -0.55189474     0.00027988    -0.00003301     0.00083197
H        -6.80116647    -1.38286224     0.05547443     0.00050266    -0.00049944     0.00063671
H        -4.44138025    -1.69148928     0.66600213    -0.00048444    -0.00057120     0.00023253
C        -3.86380220     0.27754062    -0.11273230    -0.00090978    -0.00049900     0.00001356
C        -2.41830149     0.37599507     0.24710496     0.00033997     0.00022733    -0.00012613
H        -4.21604061     1.17153015    -0.50008201     0.00062720     0.00043764     0.00027957
H        -1.90237464    -0.45090073     0.71277234     0.00037819     0.00036444     0.00087074
C        -1.85766335     1.62997084    -0.03207296     0.00030969     0.00004497     0.00000195
H        -2.49038086     2.46785842    -0.37350021    -0.00030616    -0.00071239    -0.00055834
N        -0.56055440     1.95996826     0.21242992    -0.00007474     0.00006130     0.00018017
H        -0.26865420     2.90780277     0.06198407     0.00014793    -0.00055787    -0.00026762
H         0.19302245     1.30804341     0.46558458     0.00067099     0.00032097    -0.00100367
    14
  Step:    10            Position(A)                                  Velocity(au)
C        -6.08932856    -0.59889366    -0.11579813    -0.00038042     0.00025637    -0.00021535
C        -4.72094467    -0.77541385     0.13958001     0.00057887    -0.00003164     0.00004969
H        -6.41903720     0.27439351    -0.54384369     0.00008638     0.00040703     0.00062450
H        -6.79609396    -1.38877265     0.06270488     0.00042421    -0.00057016     0.00067899
H        -4.44615472    -1.69757039     0.66816591    -0.00038473    -0.00052976     0.00015749
C        -3.87373102     0.27186707    -0.11248338    -0.00089723    -0.00053195     0.00003144
C        -2.41454116     0.37862701     0.24566495     0.00034443     0.00025040    -0.00013651
H        -4.21051832     1.17834635    -0.49826112     0.00038069     0.00078314     0.00006192
H        -1.89788037    -0.44703549     0.72231916     0.00043558     0.00035376     0.00086746
C        -1.85420541     1.63039512    -0.03196072     0.00032142     0.00003275     0.00001778
H        -2.49343805     2.45945552    -0.37961069    -0.00024990    -0.00081522    -0.00055809
N        -0.56137071     1.96059645     0.21439893    -0.00007385     0.00005256     0.00018005
H        -0.26672774     2.90232720     0.05890783     0.00020827    -0.00041960    -0.00029938
H         0.19955121     1.31171529     0.45449942     0.00051813     0.00034730    -0.00102068
    14
  Step:    11            Position(A)                                  Velocity(au)
C        -6.09344968    -0.59628924    -0.11810727    -0.00037065     0.00021768    -0.00020541
C        -4.71465061    -0.77579536     0.14019927     0.00056472    -0.00004185     0.00006370
H        -6.41923680     0.28141887    -0.53823270    -0.00012696     0.00087852     0.00040084
H        -6.79188611    -1.39533558     0.07032872     0.00034699    -0.00061581     0.00070787
H        -4.44979703    -1.70307873     0.66944748    -0.00027769    -0.00046874     0.00007273
C        -3.88343082     0.26590313    -0.11204446    -0.00086823    -0.00054958     0.00004729
C        -2.41076634     0.38147302     0.24411845     0.00034268     0.00026619    -0.00014543
H        -4.20771235     1.18866286    -0.49872738     0.00013889     0.00105605    -0.00012934
H        -1.89284544    -0.44316146     0.73174959     0.00047616     0.00036678     0.00084856
C        -1.85063170     1.63068728    -0.03168398     0.00033076     0.00002084     0.00003195
H        -2.49584785     2.45002389    -0.38570956    -0.00018963    -0.00089814    -0.00055710
N        -0.56217004     1.96111806     0.21636876    -0.00007149     0.00004288     0.00018015
H        -0.26409780     2.89862320     0.05543457     0.00027323    -0.00024489    -0.00033851
H         0.20435747     1.31564129     0.44325520     0.00036120     0.00036374    -0.00103118
    14
  Step:    12            Position(A)                                  Velocity(au)
C        -6.09743732    -0.59413156    -0.12029182    -0.00035731     0.00017712    -0.00019376
C        -4.70859042    -0.77632950     0.14097359     0.00053601    -0.00005990     0.00007808
H        -6.42181468     0.29361271    -0.53507459    -0.00033654     0.00132118     0.00019072
H        -6.78850294    -1.40224465     0.07819080     0.00027499    -0.00063169     0.00072210
H        -4.45222968    -1.70782492     0.66975701    -0.00016387    -0.00039335    -0.00001840
C        -3.89272518     0.25984393    -0.11144878    -0.00082343    -0.00054777     0.00005941
C        -2.40704439     0.38445050     0.24248347     0.00033496     0.00027440    -0.00015257
H        -4.20747991     1.20144936    -0.50109064    -0.00008506     0.00122211    -0.00027953
H        -1.88746345    -0.43901140     0.74088306     0.00049884     0.00040366     0.00081297
C        -1.84696937     1.63085094    -0.03126166     0.00033754     0.00000925     0.00004434
H        -2.49758662     2.43980707    -0.39179829    -0.00012891    -0.00095694    -0.00055705
N        -0.56293479     1.96153462     0.21834003    -0.00006738     0.00003452     0.00018012
H        -0.26075024     2.89696984     0.05150225     0.00033554    -0.00005741    -0.00038109
H         0.20745323     1.31967277     0.43194044     0.00021042     0.00036322    -0.00103234
    14
  Step:    13            Position(A)                                  Velocity(au)
C        -6.10126642    -0.59241436    -0.12234624    -0.00034263     0.00013918    -0.00018253
C        -4.70292438    -0.77710575     0.14190733     0.00049272    -0.00008621     0.00009281
H        -6.42659924     0.31032222    -0.53406038    -0.00052090     0.00167914     0.00001985
H        -6.78587010    -1.40915505     0.08612609     0.00021051    -0.00061551     0.00072115
H        -4.45338190    -1.71168404     0.66904498    -0.00004400    -0.00030997    -0.00011201
C        -3.90144483     0.25391961    -0.11074481    -0.00076354    -0.00052438     0.00006677
C        -2.40343848     0.38747598     0.24078065     0.00032173     0.00027513    -0.00015777
H        -4.20957325     1.21539888    -0.50484263    -0.00028461     0.00126560    -0.00038174
H        -1.88193241    -0.43433073     0.74953487     0.00050384     0.00046209     0.00076101
C        -1.84324745     1.63088955    -0.03071391     0.00034155    -0.00000205     0.00005485
H        -2.49866790     2.42908909    -0.39789608    -0.00007080    -0.00098850    -0.00055942
N        -0.56364410     1.96187323     0.22030926    -0.00006120     0.00002971     0.00017960
H        -0.25675717     2.89736730     0.04709749     0.00038740     0.00011773    -0.00042249
H         0.20896085     1.32358753     0.42067077     0.00007532     0.00033973    -0.00102213
    14
  Step:    14            Position(A)                                  Velocity(au)
C        -6.10493307    -0.59108666    -0.12428492    -0.00032813     0.00010715    -0.00017307
C        -4.69781120    -0.77821546     0.14300396     0.00043525    -0.00012059     0.00010772
H        -6.43321045     0.33034708    -0.53464025    -0.00066493     0.00191293    -0.00009525
H        -6.78389765    -1.41571022     0.09396735     0.00015424    -0.00056729     0.00070513
H        -4.45319222    -1.71460616     0.66730655     0.00008094    -0.00022574    -0.00020394
C        -3.90942913     0.24837216    -0.10998816    -0.00068954    -0.00047934     0.00006904
C        -2.40000592     0.39046953     0.23903185     0.00030355     0.00026888    -0.00016099
H        -4.21370629     1.22913676    -0.50944189    -0.00045825     0.00118807    -0.00043594
H        -1.87644098    -0.42890221     0.75753155     0.00049253     0.00053779     0.00069432
C        -1.83949721     1.63080603    -0.03006178     0.00034262    -0.00001309     0.00006339
H        -2.49913549     2.41818175    -0.40403675    -0.00001765    -0.00099099    -0.00056532
N        -0.56427376     1.96218465     0.22226923    -0.00005269     0.00003036     0.00017830
H        -0.25227516     2.89954542     0.04225948     0.00042185     0.00025825    -0.00045814
H         0.20910098     1.32710502     0.40957934    -0.00003620     0.00028900    -0.00099945
    14
  Step:    15            Position(A)                                  Velocity(au)
C        -6.10844492    -0.59007024    -0.12613252    -0.00031448     0.00008265    -0.00016593
C        -4.69340238    -0.77974381     0.14426396     0.00036460    -0.00016206     0.00012246
H        -6.44114586     0.35217129    -0.53614421    -0.00076137     0.00200485    -0.00014886
H        -6.78249578    -1.42156566     0.10155206     0.00010559    -0.00048905     0.00067473
H        -4.45161120    -1.71662251     0.66458333     0.00020972    -0.00014812    -0.00029000
C        -3.91652994     0.24343319    -0.10923441    -0.00060285    -0.00041441     0.00006648
C        -2.39679766     0.39335814     0.23725867     0.00028102     0.00025637    -0.00016230
H        -4.21959834     1.24139025    -0.51437955    -0.00060736     0.00100353    -0.00044683
H        -1.87115730    -0.42256552     0.76472444     0.00046718     0.00062492     0.00061568
C        -1.83575197     1.63060324    -0.02932713     0.00034056    -0.00002382     0.00006990
H        -2.49905409     2.40740929    -0.41026364     0.00002915    -0.00096405    -0.00057532
N        -0.56479676     1.96253738     0.22420989    -0.00004161     0.00003768     0.00017602
H        -0.24752848     2.90301708     0.03707485     0.00043397     0.00034815    -0.00048427
H         0.20816897     1.32991001     0.39880589    -0.00011885     0.00020927    -0.00096421
    14
  Step:    16            Position(A)                                  Velocity(au)
C        -6.11181293    -0.58927843    -0.12791488    -0.00030171     0.00006580    -0.00016091
C        -4.68983497    -0.78176093     0.14568291     0.00028242    -0.00020887     0.00013648
H        -6.44986680     0.37420701    -0.53789683    -0.00080988     0.00195704    -0.00014419
H        -6.78158761    -1.42640904     0.10872827     0.00006295    -0.00038445     0.00063114
H        -4.44860414    -1.71784658     0.66096232     0.00034089    -0.00008444    -0.00036621
C        -3.92261771     0.23930623    -0.10853370    -0.00050547    -0.00033274     0.00005976
C        -2.39385815     0.39607820     0.23548123     0.00025469     0.00023856    -0.00016189
H        -4.22699352     1.25109079    -0.51921717    -0.00073435     0.00073253    -0.00042153
H        -1.86622062    -0.41523079     0.77100066     0.00043068     0.00071668     0.00052872
C        -1.83204684     1.63028494    -0.02853261     0.00033522    -0.00003412     0.00007429
H        -2.49849770     2.39709138    -0.41662307     0.00006936    -0.00090888    -0.00058935
N        -0.56518410     1.96300907     0.22611992    -0.00002782     0.00005208     0.00017272
H        -0.24278125     2.90716176     0.03166522     0.00042163     0.00037948    -0.00049845
H         0.20650093     1.33168317     0.38848546    -0.00017080     0.00010178    -0.00091730
    14
  Step:    17            Position(A)                                  Velocity(au)
C        -6.11504546    -0.58863068    -0.12965274    -0.00028946     0.00005567    -0.00015743
C        -4.68722394    -0.78431315     0.14724965     0.00019107    -0.00025846     0.00014911
H        -6.45886354     0.39498523    -0.53929865    -0.00081473     0.00178532    -0.00009005
H        -6.78111872    -1.42997623     0.11535946     0.00002398    -0.00025844     0.00057597
H        -4.44415365    -1.71846976     0.65657180     0.00047278    -0.00004130    -0.00042915
C        -3.92758813     0.23615384    -0.10792712    -0.00040000    -0.00023853     0.00004981
C        -2.39122587     0.39857714     0.23371703     0.00022508     0.00021649    -0.00016003
H        -4.23566368     1.25741566    -0.52360123    -0.00084159     0.00039796    -0.00036788
H        -1.86173525    -0.40688670     0.77629110     0.00038642     0.00080574     0.00043770
C        -1.82841839     1.62985688    -0.02770179     0.00032653    -0.00004372     0.00007649
H        -2.49753674     2.38752578    -0.42315683     0.00010381    -0.00082823    -0.00060662
N        -0.56540548     1.96367679     0.22798838    -0.00001124     0.00007307     0.00016850
H        -0.23830458     2.91131887     0.02617034     0.00038557     0.00035256    -0.00049984
H         0.20443240     1.33213668     0.37873821    -0.00019412    -0.00002895    -0.00086046
    14
  Step:    18            Position(A)                                  Velocity(au)
C        -6.11814552    -0.58806054    -0.13135891    -0.00027721     0.00005084    -0.00015474
C        -4.68565506    -0.78741526     0.14894494     0.00009344    -0.00030778     0.00015960
H        -6.46769061     0.41326439    -0.53986679    -0.00078242     0.00151240     0.00000248
H        -6.78106303    -1.43206281     0.12132867    -0.00001407    -0.00011682     0.00051112
H        -4.43826115    -1.71875011     0.65157380     0.00060354    -0.00002393    -0.00047627
C        -3.93136839     0.23408796    -0.10744409    -0.00028949    -0.00013662     0.00003776
C        -2.38893403     0.40081430     0.23198022     0.00019266     0.00019127    -0.00015706
H        -4.24540497     1.25979689    -0.52726536    -0.00093108     0.00002261    -0.00029369
H        -1.85776703    -0.39760376     0.78057620     0.00033797     0.00088466     0.00034727
C        -1.82490332     1.62932843    -0.02685919     0.00031450    -0.00005227     0.00007640
H        -2.49622671     2.37897223    -0.42989403     0.00013436    -0.00072619    -0.00062565
N        -0.56543011     1.96460759     0.22980616     0.00000816     0.00009938     0.00016359
H        -0.23434613     2.91487478     0.02073026     0.00032919     0.00027487    -0.00048917
H         0.20225429     1.33104982     0.36966128    -0.00019463    -0.00017532    -0.00079598
    14
  Step:    19            Position(A)                                  Velocity(au)
C        -6.12111003    -0.58751837    -0.13303789    -0.00026442     0.00004980    -0.00015212
C        -4.68517986    -0.79104632     0.15074110    -0.00000722    -0.00035351     0.00016720
H        -6.47598040     0.42807187    -0.53924434    -0.00072008     0.00116300     0.00012215
H        -6.78142662    -1.43253181     0.12654120    -0.00005418     0.00003406     0.00043874
H        -4.43095015    -1.71899325     0.64615252     0.00073099    -0.00003542    -0.00050624
C        -3.93392132     0.23316493    -0.10710111    -0.00017728    -0.00003222     0.00002483
C        -2.38701100     0.40276148     0.23028097     0.00015784     0.00016404    -0.00015336
H        -4.25603285     1.25791039    -0.53002624    -0.00100452    -0.00037167    -0.00020639
H        -1.85434143    -0.38753299     0.78388824     0.00028902     0.00094636     0.00026214
C        -1.82153820     1.62871337    -0.02603033     0.00029918    -0.00005933     0.00007394
H        -2.49459734     2.37163903    -0.43684421     0.00016365    -0.00060785    -0.00064442
N        -0.56522703     1.96585089     0.23156721     0.00003036     0.00012915     0.00015830
H        -0.23110302     2.91733219     0.01546891     0.00025791     0.00015920    -0.00046850
H         0.20017442     1.32830132     0.36132467    -0.00018113    -0.00032725    -0.00072636
    14
  Step:    20            Position(A)                                  Velocity(au)
C        -6.12393020    -0.58697108    -0.13468680    -0.00025059     0.00005110    -0.00014896
C        -4.68581305    -0.79514892     0.15260268    -0.00010756    -0.00039249     0.00017128
H        -6.48344377     0.43870717    -0.53719454    -0.00063468     0.00076130     0.00025854
H        -6.78224840    -1.43131768     0.13092690    -0.00009930     0.00018762     0.00036112
H        -4.42226937    -1.71952510     0.64049893     0.00085261    -0.00007609    -0.00051927
C        -3.93524667     0.23338312    -0.10690085    -0.00006665     0.00006944     0.00001229
C        -2.38548101     0.40440297     0.22862518     0.00012098     0.00013593    -0.00014931
H        -4.26738067     1.25166597    -0.53178064    -0.00106365    -0.00076377    -0.00011330
H        -1.85144409    -0.37690039     0.78631106     0.00024305     0.00098442     0.00018686
C        -1.81835817     1.62803050    -0.02524158     0.00028077    -0.00006443     0.00006905
H        -2.49264654     2.36567438    -0.44399205     0.00019466    -0.00047889    -0.00066054
N        -0.56476602     1.96743303     0.23326922     0.00005522     0.00016016     0.00015297