    14
  Step:     0            Position(A)                                  Velocity(au)
C        -6.05324270    -0.64965680    -0.13374733    -0.00047881    -0.00001362     0.00010489
C        -4.71525128    -0.72471695     0.17153329     0.00017286    -0.00005195     0.00001392
H        -6.47589127     0.29309365    -0.62184773     0.00013697     0.00118080    -0.00082883
H        -6.71196504    -1.48949627     0.18720498    -0.00097924     0.00013339    -0.00046235
H        -4.31200710    -1.65852810     0.57818053     0.00016961     0.00019891    -0.00040818
C        -3.83191980     0.32020807    -0.10485362     0.00020748    -0.00014124    -0.00000969
C        -2.48252941     0.39021611     0.22747016     0.00004835    -0.00016808     0.00018584
H        -4.16213087     1.30281938    -0.63572764     0.00010611    -0.00029681    -0.00037907
H        -1.90148669    -0.49405804     0.56022987     0.00007834     0.00007464    -0.00062740
C        -1.84220308     1.64317025     0.03013080     0.00057647     0.00010810    -0.00003143
H        -2.49576660     2.39763944    -0.37054967    -0.00004841    -0.00069274     0.00061396
N        -0.59002928     1.90849835     0.16438598    -0.00033016     0.00016836    -0.00012823
H        -0.22928078     2.85036349     0.07698372    -0.00026768    -0.00039557     0.00071930
H         0.02753897     1.24943328     0.68453043    -0.00087963     0.00063687     0.00001429
    14
  Step:     1            Position(A)                                  Velocity(au)
C        -6.05873079    -0.64975032    -0.13263925    -0.00052192    -0.00000114     0.00009661
C        -4.71319725    -0.72529843     0.17168798     0.00019990    -0.00005293     0.00001334
H        -6.47396888     0.30433638    -0.63007033     0.00021933     0.00085179    -0.00066096
H        -6.72246641    -1.48714451     0.18145938    -0.00093876     0.00029507    -0.00058467
H        -4.31021245    -1.65608148     0.57401441     0.00016235     0.00023502    -0.00034652
C        -3.83013898     0.31879095    -0.10515067     0.00011673    -0.00011878    -0.00004456
C        -2.48141205     0.38845591     0.22961489     0.00015718    -0.00015116     0.00020555
H        -4.16115873     1.29743832    -0.63901053     0.00007233    -0.00068223    -0.00022164
H        -1.90104004    -0.49271527     0.55307961     0.00001199     0.00015558    -0.00067343
C        -1.83637997     1.64412435     0.02975989     0.00048109     0.00006251    -0.00003625
H        -2.49638351     2.39091983    -0.36406577    -0.00007135    -0.00052059     0.00056340
N        -0.59318120     1.91034288     0.16311833    -0.00024310     0.00016924    -0.00010352
H        -0.23219386     2.84617670     0.08469315    -0.00025541    -0.00033773     0.00068490
H         0.01723249     1.25724001     0.68387623    -0.00098173     0.00076733    -0.00011912
    14
  Step:     2            Position(A)                                  Velocity(au)
C        -6.06466063    -0.64968169    -0.13163370    -0.00055904     0.00001556     0.00008637
C        -4.71087807    -0.72587482     0.17182523     0.00022153    -0.00005083     0.00001076
H        -6.47109301     0.31172829    -0.63630755     0.00030687     0.00048712    -0.00047128
H        -6.73250224    -1.48304105     0.17441430    -0.00089767     0.00044858    -0.00069781
H        -4.30845538    -1.65338656     0.57059971     0.00016307     0.00024402    -0.00027100
C        -3.82936600     0.31760955    -0.10582856     0.00002405    -0.00009906    -0.00007866
C        -2.47909075     0.38690912     0.23196686     0.00026709    -0.00012899     0.00022342
H        -4.16054856     1.28789434    -0.64057645     0.00003731    -0.00104870    -0.00007011
H        -1.90122440    -0.49065453     0.54549723    -0.00003329     0.00020176    -0.00070499
C        -1.83167830     1.64453767     0.02933780     0.00037318     0.00001031    -0.00004087
H        -2.49732757     2.38625061    -0.35822413    -0.00010513    -0.00032375     0.00049934
N        -0.59534760     1.91220079     0.16212131    -0.00015195     0.00017138    -0.00007946
H        -0.23486832     2.84297498     0.09196729    -0.00022474    -0.00021849     0.00064060
H         0.00606170     1.26622017     0.68192440    -0.00102914     0.00084290    -0.00021582
    14
  Step:     3            Position(A)                                  Velocity(au)
C        -6.07096076    -0.64940996    -0.13074965    -0.00058919     0.00003554     0.00007464
C        -4.70835087    -0.72641053     0.17192327     0.00023814    -0.00004553     0.00000626
H        -6.46725551     0.31499305    -0.64038043     0.00039124     0.00010715    -0.00027057
H        -6.74210476    -1.47733094     0.16619351    -0.00086292     0.00058411    -0.00079775
H        -4.30664495    -1.65074298     0.56808571     0.00017188     0.00022663    -0.00018253
C        -3.82961278     0.31662377    -0.10687150    -0.00006853    -0.00008386    -0.00011058
C        -2.47556897     0.38563402     0.23450254     0.00037504    -0.00010165     0.00023881
H        -4.16034261     1.27449604    -0.64054423    -0.00000445    -0.00137717     0.00006536
H        -1.90176836    -0.48830148     0.53765670    -0.00005080     0.00020604    -0.00071959
C        -1.82821598     1.64434990     0.02886568     0.00025654    -0.00004605    -0.00004548
H        -2.49868340     2.38383719    -0.35314174    -0.00014295    -0.00011481     0.00042766
N        -0.59650537     1.91409211     0.16138003    -0.00006063     0.00017595    -0.00005743
H        -0.23711051     2.84139675     0.09870760    -0.00017854    -0.00004760     0.00058851
H        -0.00528197     1.27567999     0.67915470    -0.00100699     0.00084874    -0.00026294
    14
  Step:     4            Position(A)                                  Velocity(au)
C        -6.07755025    -0.64890426    -0.13000089    -0.00061153     0.00005783     0.00006193
C        -4.70566835    -0.72687084     0.17196226     0.00025000    -0.00003737     0.00000011
H        -6.46253384     0.31407237    -0.64222680     0.00046497    -0.00026823    -0.00006959
H        -6.75138025    -1.47026259     0.15696192    -0.00084090     0.00069279    -0.00088110
H        -4.30469522    -1.64842853     0.56660643     0.00018775     0.00018612    -0.00008300
C        -3.83086533     0.31577504    -0.10824781    -0.00015826    -0.00007471    -0.00013884
C        -2.47088608     0.38468541     0.23719128     0.00047753    -0.00006974     0.00025108
H        -4.16064595     1.25776606    -0.63914657    -0.00005898    -0.00164748     0.00017402
H        -1.90233580    -0.48614705     0.52975478    -0.00003586     0.00016421    -0.00071568
C        -1.82606597     1.64353030     0.02834275     0.00013543    -0.00010369    -0.00005025
H        -2.50045478     2.38373892    -0.34886823    -0.00017738     0.00009277     0.00035446
N        -0.59667401     1.91605015     0.16086492     0.00002726     0.00018410    -0.00003861
H        -0.23877415     2.84193357     0.10484216    -0.00012233     0.00015843     0.00053125
H        -0.01596811     1.28478792     0.67617201    -0.00090630     0.00077614    -0.00025185
    14
  Step:     5            Position(A)                                  Velocity(au)
C        -6.08433913    -0.64814488    -0.12939483    -0.00062519     0.00008129     0.00004894
C        -4.70288154    -0.72722805     0.17192568     0.00025706    -0.00002728    -0.00000735
H        -6.45708347     0.30912498    -0.64190283     0.00052106    -0.00061874     0.00012057
H        -6.76050104    -1.46217485     0.14691785    -0.00083698     0.00076730    -0.00094527
H        -4.30253764    -1.64667117     0.56626999     0.00020857     0.00012821     0.00002479
C        -3.83307492     0.31498945    -0.10990888    -0.00024165    -0.00007286    -0.00016187
C        -2.46512217     0.38410825     0.23999544     0.00057082    -0.00003446     0.00025963
H        -4.16163298     1.23845421    -0.63673712    -0.00013290    -0.00183841     0.00024447
H        -1.90255292    -0.48470901     0.52199976     0.00001336     0.00007611    -0.00069290
C        -1.82525319     1.64208154     0.02776644     0.00001424    -0.00015951    -0.00005530
H        -2.50256395     2.38586661    -0.34538719    -0.00020155     0.00028594     0.00028541
N        -0.59590903     1.91811957     0.16053540     0.00010891     0.00019658    -0.00002371
H        -0.23978664     2.84486272     0.11032982    -0.00006348     0.00037826     0.00047166
H        -0.02510899     1.29265954     0.67364508    -0.00072694     0.00062564    -0.00018082
    14
  Step:     6            Position(A)                                  Velocity(au)
C        -6.09122749    -0.64712594    -0.12893032    -0.00062927     0.00010448     0.00003654
C        -4.70004465    -0.72746768     0.17180154     0.00025887    -0.00001666    -0.00001564
H        -6.45113466     0.30053618    -0.63958901     0.00055274    -0.00092298     0.00028818
H        -6.76969079    -1.45347653     0.13628224    -0.00085482     0.00080257    -0.00098883
H        -4.30013240    -1.64562360     0.56714870     0.00023133     0.00006062     0.00013721
C        -3.83615185     0.31418104    -0.11178895    -0.00031502    -0.00007925    -0.00017819
C        -2.45839838     0.38393149     0.24287122     0.00065146     0.00000248     0.00026401
H        -4.16355341     1.21754734    -0.63379841    -0.00023294    -0.00192910     0.00026507
H        -1.90204357    -0.48448210     0.51459626     0.00009510    -0.00005336    -0.00065251
C        -1.82575443     1.64004070     0.02713304    -0.00010273    -0.00021046    -0.00006070
H        -2.50486399     2.38999447    -0.34262435    -0.00021014     0.00045334     0.00022517
N        -0.59429132     1.92035075     0.16034617     0.00018259     0.00021350    -0.00001280
H        -0.24016296     2.85020876     0.11516065    -0.00000990     0.00058879     0.00041243
H        -0.03187124     1.29847490     0.67221622    -0.00047977     0.00040943    -0.00005738
    14
  Step:     7            Position(A)                                  Velocity(au)
C        -6.09810568    -0.64585927    -0.12859534    -0.00062299     0.00012556     0.00002585
C        -4.69721834    -0.72759260     0.17158353     0.00025481    -0.00000716    -0.00002422
H        -6.44499128     0.28893301    -0.63559827     0.00055328    -0.00115803     0.00042067
H        -6.77920191    -1.44461705     0.12528522    -0.00089570     0.00079661    -0.00101161
H        -4.29747681    -1.64534507     0.56927163     0.00025247    -0.00000780     0.00025012
C        -3.83996661     0.31325578    -0.11380708    -0.00037514    -0.00009435    -0.00018663
C        -2.45087021     0.38416261     0.24577118     0.00071689     0.00003895     0.00026405
H        -4.16672894     1.19625156    -0.63093823    -0.00036479    -0.00190240     0.00022566
H        -1.90047234    -0.48587635     0.50772496     0.00020371    -0.00021359    -0.00059760
C        -1.82750053     1.63747726     0.02643855    -0.00021146    -0.00025379    -0.00006643
H        -2.50716109     2.39578439    -0.34046116    -0.00020012     0.00058617     0.00017705
N        -0.59191457     1.92279031     0.16025549     0.00024763     0.00023402    -0.00000515
H        -0.24000327     2.85774353     0.11935256     0.00003143     0.00076863     0.00035586
H        -0.03560490     1.30161667     0.67238980    -0.00018675     0.00015175     0.00010108
    14
  Step:     8            Position(A)                                  Velocity(au)
C        -6.10485665    -0.64437900    -0.12836487    -0.00060589     0.00014234     0.00001808
C        -4.69447010    -0.72762427     0.17127172     0.00024435    -0.00000041    -0.00003249
H        -6.43903059     0.27520205    -0.63038607     0.00051631    -0.00130019     0.00050500
H        -6.78928603    -1.43604912     0.11415143    -0.00095796     0.00075103    -0.00101473
H        -4.29460919    -1.64579423     0.57262057     0.00026829    -0.00006807     0.00035927
C        -3.84435866     0.31211695    -0.11587189    -0.00041975    -0.00011797    -0.00018661
C        -2.44271510     0.38478361     0.24864778     0.00076568     0.00007248     0.00025989
H        -4.17153379     1.17592873    -0.62886167    -0.00053124    -0.00174995     0.00012038
H        -1.89758704    -0.48915487     0.50152252     0.00033009    -0.00038890    -0.00053295
C        -1.83038048     1.63448860     0.02567979    -0.00030837    -0.00028718    -0.00007238
H        -2.50924195     2.40281802    -0.33875108    -0.00017098     0.00067873     0.00014283
N        -0.58887391     1.92547037     0.16023356     0.00030427     0.00025642     0.00000058
H        -0.23947530     2.86702404     0.12294572     0.00005558     0.00090119     0.00030362
H        -0.03595674     1.30179479     0.67442747     0.00012218    -0.00011427     0.00026948
    14
  Step:     9            Position(A)                                  Velocity(au)
C        -6.11136061    -0.64274521    -0.12819991    -0.00057801     0.00015242     0.00001447
C        -4.69187276    -0.72760149     0.17087281     0.00022710     0.00000213    -0.00003985
H        -6.43369596     0.26048877    -0.62455046     0.00043661    -0.00132743     0.00052893
H        -6.80015916    -1.42818680     0.10308607    -0.00103669     0.00067133    -0.00100055
H        -4.29160743    -1.64683433     0.57713132     0.00027546    -0.00011228     0.00046068
C        -3.84914934     0.31067485    -0.11788950    -0.00044790    -0.00014881    -0.00017841
C        -2.43411956     0.38574828     0.25145688     0.00079753     0.00010048     0.00025198
H        -4.17835092     1.15796812    -0.62830471    -0.00072990    -0.00147797    -0.00004857
H        -1.89325093    -0.49438427     0.49606567     0.00046301    -0.00056023    -0.00046418
C        -1.83424670     1.63119455     0.02485520    -0.00039046    -0.00030887    -0.00007838
H        -2.51090152     2.41063291    -0.33733654    -0.00012449     0.00072852     0.00012285
N        -0.58525799     1.92839998     0.16026811     0.00035327     0.00027842     0.00000603
H        -0.23878736     2.87745885     0.12599487     0.00006022     0.00097647     0.00025677
H        -0.03293198     1.29911672     0.67828524     0.00041469    -0.00035262     0.00041994
    14
  Step:    10            Position(A)                                  Velocity(au)
C        -6.11750166    -0.64104452    -0.12804831    -0.00054005     0.00015362     0.00001605
C        -4.68950183    -0.72757774     0.17039990     0.00020292    -0.00000074    -0.00004576
H        -6.42947882     0.24616194    -0.61881471     0.00031150    -0.00122389     0.00048345
H        -6.81196550    -1.42136244     0.09226253    -0.00112392     0.00056656    -0.00097234
H        -4.28858287    -1.64825064     0.58269880     0.00027136    -0.00013450     0.00055103
C        -3.85415730     0.30886135    -0.11977495    -0.00045999    -0.00018413    -0.00016342
C        -2.42526770     0.38698188     0.25416041     0.00081300     0.00012047     0.00024092
H        -4.18750171     1.14359520    -0.62992420    -0.00095127    -0.00111129    -0.00026795
H        -1.88745776    -0.50141103     0.49136779     0.00059081    -0.00070791    -0.00039676
C        -1.83892260     1.62773140     0.02396510    -0.00045548    -0.00031763    -0.00008427
H        -2.51196537     2.41875578    -0.33606346    -0.00006420     0.00073595     0.00011627
N        -0.58114547     1.93156145     0.16036557     0.00039549     0.00029769     0.00001278
H        -0.23815791     2.88838627     0.12856310     0.00004570     0.00099152     0.00021584
H        -0.02688451     1.29408046     0.68361444     0.00066249    -0.00053145     0.00052759
    14
  Step:    11            Position(A)                                  Velocity(au)
C        -6.12317523    -0.63938457    -0.12784879    -0.00049341     0.00014463     0.00002327
C        -4.68743348    -0.72761774     0.16987181     0.00017184    -0.00000984    -0.00004974
H        -6.42688135     0.23371381    -0.61397397     0.00014280    -0.00098652     0.00036647
H        -6.82474702    -1.41579222     0.08181419    -0.00120949     0.00044820    -0.00093385
H        -4.28567087    -1.64977668     0.58918620     0.00025432    -0.00013133     0.00062793
C        -3.85921261     0.30664671    -0.12146464    -0.00045763    -0.00021985    -0.00014405
C        -2.41633356     0.38838374     0.25672752     0.00081323     0.00013031     0.00022737
H        -4.19916184     1.13365659    -0.63416659    -0.00117866    -0.00069217    -0.00051347
H        -1.88032579    -0.50987121     0.48738574     0.00070324    -0.00081460    -0.00033521
C        -1.84421126     1.62424569     0.02301158    -0.00050195    -0.00031281    -0.00008990
H        -2.51230610     2.42673331    -0.33479281     0.00000508     0.00070404     0.00012129
N        -0.57660579     1.93491261     0.16054762     0.00043161     0.00031229     0.00002190
H        -0.23778761     2.89915028     0.13071686     0.00001463     0.00094981     0.00018093
H        -0.01843875     1.28749022     0.68982727     0.00084622    -0.00062890     0.00057547
    14
  Step:    12            Position(A)                                  Velocity(au)
C        -6.12829604    -0.63788056    -0.12753926    -0.00044021     0.00012566     0.00003568
C        -4.68574243    -0.72779299     0.16931180     0.00013409    -0.00002556    -0.00005146
H        -6.42635474     0.22457985    -0.61079741    -0.00006134    -0.00063127     0.00018638
H        -6.83842551    -1.41155720     0.07183280    -0.00128236     0.00032859    -0.00088870
H        -4.28301923    -1.65112377     0.59643606     0.00022371    -0.00010212     0.00069005
C        -3.86416885     0.30405176    -0.12292643    -0.00044326    -0.00025126    -0.00012336
C        -2.40747680     0.38983275     0.25913465     0.00079959     0.00012855     0.00021196
H        -4.21328714     1.12845258    -0.64115742    -0.00139047    -0.00027292    -0.00075384
H        -1.87207306    -0.51923188     0.48403450     0.00079282    -0.00086775    -0.00028251
C        -1.84990376     1.62088814     0.02199839    -0.00052919    -0.00029432    -0.00009511
H        -2.51185415     2.43415791    -0.33340999     0.00007790     0.00063788     0.00013539
N        -0.57170324     1.93839335     0.16084457     0.00046190     0.00032095     0.00003386
H        -0.23783775     2.90916510     0.13252136    -0.00002871     0.00085994     0.00015179
H        -0.00837191     1.28032199     0.69620396     0.00095745    -0.00063577     0.00055669
    14
  Step:    13            Position(A)                                  Velocity(au)
C        -6.13280573    -0.63663544    -0.12706824    -0.00038315     0.00009881     0.00005177
C        -4.68450010    -0.72817692     0.16874598     0.00009003    -0.00004786    -0.00005075
H        -6.42822330     0.21990351    -0.60989655    -0.00028602    -0.00019541    -0.00003642
H        -6.85280111    -1.40860371     0.06237226    -0.00133205     0.00021919    -0.00083998
H        -4.28077672    -1.65201065     0.60428239     0.00017995    -0.00004875     0.00073710
C        -3.86890987     0.30114997    -0.12416336    -0.00041971    -0.00027399    -0.00010437
C        -2.39884093     0.39119591     0.26136454     0.00077360     0.00011451     0.00019518
H        -4.22958114     1.12768584    -0.65065833    -0.00156473     0.00009575    -0.00095764
H        -1.86298131    -0.52885489     0.48120523     0.00085549    -0.00086102    -0.00023996
C        -1.85578830     1.61780686     0.02093077    -0.00053728    -0.00026271    -0.00009978
H        -2.51060181     2.44068819    -0.33183083     0.00014860     0.00054426     0.00015565
N        -0.56650087     1.94193390     0.16128827     0.00048633     0.00032313     0.00004852
H        -0.23841565     2.91796309     0.13403757    -0.00007909     0.00073413     0.00012793
H         0.00250738     1.27358164     0.70200586     0.00099782    -0.00055474     0.00047379
    14
  Step:    14            Position(A)                                  Velocity(au)
C        -6.13667817    -0.63571890    -0.12640662    -0.00032524     0.00006775     0.00006915
C        -4.68377291    -0.72883997     0.16820156     0.00004022    -0.00007622    -0.00004759
H        -6.43261190     0.22030498    -0.61159417    -0.00051111     0.00026705    -0.00027179
H        -6.86756671    -1.40676194     0.05345671    -0.00135003     0.00012920    -0.00078994
H        -4.27908257    -1.65219020     0.61256156     0.00012428     0.00002472     0.00076980
C        -3.87335080     0.29805772    -0.12520982    -0.00038966    -0.00028499    -0.00008950
C        -2.39055285     0.39233778     0.26340456     0.00073675     0.00008843     0.00017738
H        -4.24751854     1.13054735    -0.66210759    -0.00168372     0.00037560    -0.00110040
H        -1.85335765    -0.53806840     0.47878484     0.00089039    -0.00079426    -0.00020740
C        -1.86165781     1.61514084     0.01981555    -0.00052696    -0.00021911    -0.00010373
H        -2.50860334     2.44606470    -0.33000479     0.00021165     0.00043118     0.00017889
N        -0.56106378     1.94546241     0.16190611     0.00050464     0.00031891     0.00006531
H        -0.23956797     2.92522562     0.13531997    -0.00013092     0.00058669     0.00010866
H         0.01345737     1.26818596     0.70656893     0.00097643    -0.00039771     0.00033643
    14
  Step:    15            Position(A)                                  Velocity(au)
C        -6.13992093    -0.63515338    -0.12555538    -0.00026939     0.00003687     0.00008506
C        -4.68362011    -0.72984432     0.16770482    -0.00001459    -0.00010968    -0.00004215
H        -6.43940478     0.22574584    -0.61584240    -0.00071500     0.00069670    -0.00048612
H        -6.88233558    -1.40577712     0.04509082    -0.00133058     0.00006470    -0.00073992
H        -4.27805796    -1.65146994     0.62112318     0.00005863     0.00011260     0.00078971
C        -3.87743452     0.29491517    -0.12612126    -0.00035540    -0.00028306    -0.00008009
C        -2.38272317     0.39313047     0.26524515     0.00069052     0.00005142     0.00015877
H        -4.26641573     1.13590276    -0.67473160    -0.00173711     0.00054656    -0.00116879
H        -1.84350235    -0.54623083     0.47666787     0.00089927    -0.00067260    -0.00018367
C        -1.86731647     1.61301331     0.01866147    -0.00049947    -0.00016526    -0.00010676
H        -2.50597162     2.45012101    -0.32791717     0.00026195     0.00030745     0.00020185
N        -0.55546084     1.94891074     0.16271713     0.00051646     0.00030881     0.00008337
H        -0.24127970     2.93079816     0.13641479    -0.00017871     0.00043272     0.00009321
H         0.02386865     1.26488091     0.70936596     0.00090697    -0.00018236     0.00015860
    14
  Step:    16            Position(A)                                  Velocity(au)
C        -6.14257153    -0.63491235    -0.12454574    -0.00021798     0.00001017     0.00009705
C        -4.68409208    -0.73123947     0.16727937    -0.00007352    -0.00014692    -0.00003475
H        -6.44825394     0.23554660    -0.62222892    -0.00087898     0.00104231    -0.00065018
H        -6.89667567    -1.40534643     0.03726958    -0.00127116     0.00002846    -0.00069044
H        -4.27780002    -1.64972677     0.62983801    -0.00001464     0.00020818     0.00079906
C        -3.88112577     0.29186524    -0.12696198    -0.00031865    -0.00026875    -0.00007648
C        -2.37544633     0.39346280     0.26687797     0.00063639     0.00000537     0.00013938
H        -4.28552115     1.14250442    -0.68767719    -0.00172243     0.00060628    -0.00116079
H        -1.83368430    -0.55278289     0.47476665     0.00088577    -0.00050528    -0.00016690
C        -1.87258472     1.61152551     0.01747987    -0.00045646    -0.00010339    -0.00010861
H        -2.50287276     2.45279067    -0.32558887     0.00029495     0.00018235     0.00022133
N        -0.54976528     1.95221815     0.16372998     0.00052137     0.00029361     0.00010170
H        -0.24347764     2.93469219     0.13735909    -0.00021751     0.00028693     0.00008069
H         0.03329903     1.26419646     0.71003862     0.00080547     0.00007056    -0.00004366
    14
  Step:    17            Position(A)                                  Velocity(au)
C        -6.14468955    -0.63493089    -0.12343230    -0.00017256    -0.00000964     0.00010348
C        -4.68522850    -0.73305838     0.16694460    -0.00013553    -0.00018628    -0.00002582
H        -6.45863412     0.24854846    -0.63006636    -0.00099057     0.00127102    -0.00074506
H        -6.91014458    -1.40515445     0.02998611    -0.00117224     0.00002028    -0.00064143
H        -4.27837820    -1.64691550     0.63860418    -0.00009291     0.00030419     0.00080054
C        -3.88440565     0.28903580    -0.12779445    -0.00028075    -0.00024395    -0.00007817
C        -2.36880094     0.39324802     0.26829435     0.00057577    -0.00004723     0.00011912
H        -4.30409720     1.14916640    -0.70012616    -0.00164350     0.00056530    -0.00108295
H        -1.82412445    -0.55728470     0.47301664     0.00085468    -0.00030421    -0.00015487
C        -1.87730250     1.61075142     0.01628538    -0.00039980    -0.00003619    -0.00010894
H        -2.49951907     2.45411018    -0.32307505     0.00030682     0.00006519     0.00023434
N        -0.54405488     1.95533396     0.16494209     0.00051897     0.00027434     0.00011928
H        -0.24603809     2.93707520     0.13818011    -0.00024319     0.00016258     0.00007021
H         0.04148978     1.26642448     0.70841083     0.00068894     0.00033892    -0.00025360
    14
  Step:    18            Position(A)                                  Velocity(au)
C        -6.14634659    -0.63512323    -0.12228189    -0.00013381    -0.00002142     0.00010374
C        -4.68705711    -0.73531478     0.16671446    -0.00019950    -0.00022596    -0.00001590
H        -6.46992462     0.26335268    -0.63852863    -0.00104468     0.00137115    -0.00076403
H        -6.92232064    -1.40490287     0.02323703    -0.00103696     0.00003747    -0.00059242
H        -4.27983256    -1.64307197     0.64735136    -0.00017350     0.00039330     0.00079714
C        -3.88726771     0.28652832    -0.12867213    -0.00024272    -0.00021134    -0.00008417
C        -2.36285018     0.39242963     0.26948399     0.00051005    -0.00010343     0.00009781
H        -4.32147585     1.15487139    -0.71136869    -0.00150800     0.00044112    -0.00094674
H        -1.81498661    -0.55943813     0.47137847     0.00081144    -0.00008290    -0.00014529
C        -1.88133110     1.61073387     0.01509671    -0.00033146     0.00003342    -0.00010734
H        -2.49616042     2.45421678    -0.32046226     0.00029466    -0.00003522     0.00023823
N        -0.53841185     1.95821976     0.16633948     0.00050883     0.00025222     0.00013506
H        -0.24879799     2.93824894     0.13889505    -0.00025283     0.00007042     0.00006085
H         0.04837094     1.27161088     0.70449073     0.00057471     0.00060018    -0.00045451
    14
  Step:    19            Position(A)                                  Velocity(au)
C        -6.14761685    -0.63539944    -0.12116283    -0.00010162    -0.00002533     0.00009804
C        -4.68959288    -0.73800176     0.16659668    -0.00026424    -0.00026407    -0.00000557
H        -6.48148853     0.27854495    -0.64678100    -0.00104255     0.00134857    -0.00071059
H        -6.93282996    -1.40433476     0.01702581    -0.00087062     0.00007545    -0.00054270
H        -4.28217377    -1.63831136     0.65604307    -0.00025379     0.00046854     0.00079195
C        -3.88971552     0.28441243    -0.12963592    -0.00020541    -0.00017386    -0.00009328
C        -2.35764256     0.39098521     0.27043403     0.00044052    -0.00016005     0.00007517
H        -4.33708763     1.15881675    -0.72083786    -0.00132543     0.00025376    -0.00076565
H        -1.80637264    -0.55909828     0.46983806     0.00076185     0.00014443    -0.00013588
C        -1.88455372     1.61148250     0.01393708    -0.00025344     0.00010240    -0.00010342
H        -2.49307279     2.45333960    -0.31786339     0.00025676    -0.00011128     0.00023094
N        -0.53292318     1.96085168     0.16789675     0.00049054     0.00022870     0.00014801
H        -0.25156922     2.93861572     0.13951137    -0.00024488     0.00001757     0.00005178
H         0.05406265     1.27955456     0.69846756     0.00048007     0.00083200    -0.00063020
    14
  Step:    20            Position(A)                                  Velocity(au)
C        -6.14856971    -0.63567728    -0.12013716    -0.00007534    -0.00002234     0.00008714
C        -4.69283792    -0.74109182     0.16659254    -0.00032861    -0.00029879     0.00000459
H        -6.49273243     0.29285516    -0.65407406    -0.00098974     0.00122026    -0.00059480
H        -6.94136707    -1.40325216     0.01136436    -0.00068016     0.00012832    -0.00049150
H        -4.28538470    -1.63282177     0.66467675    -0.00033139     0.00052376     0.00078796
C        -3.89176135     0.28272476    -0.13071291    -0.00016956    -0.00013447    -0.00010426
C        -2.35321298     0.38892824     0.27112842     0.00036835    -0.00021381     0.00005091
H        -4.35047216     1.16042283    -0.72811881    -0.00110570     0.00002298    -0.00055332
H        -1.79831970    -0.55627855     0.46840586     0.00071187     0.00036335    -0.00012445
C        -1.88687567     1.61297406     0.01283428    -0.00016777     0.00016788    -0.00009677
H        -2.49054323     2.45178230    -0.31540998     0.00019301    -0.00015740     0.00021126
N        -0.52768037     1.96322307     0.16957744     0.00046370     0.00020546     0.00015716