 Fermi distribution function

Calculation with static geometry


********************************************************************************
 iSCC Total electronic   Diff electronic      SCC error    
    9   -0.53949602E+01   -0.95035091E-12    0.32316104E-06
********************************************************************************

 Total charge:     1.00000000

 Atomic gross charges (e)
 Atom           Charge
    1       0.15372435
    2      -0.03390113
    3       0.16664161
    4       0.26785197
    5       0.27106514
    6       0.17461806

Nr. of electrons (up):     12.00000000
Atom populations (up)
 Atom       Population
    1       3.84627565
    2       5.03390113
    3       0.83335839
    4       0.73214803
    5       0.72893486
    6       0.82538194

l-shell populations (up)
 Atom Sh.   l       Population
    1   1   0       1.33623410
    1   2   1       2.51004154
    2   1   0       1.45017102
    2   2   1       3.58373011
    3   1   0       0.83335839
    4   1   0       0.73214803
    5   1   0       0.72893486
    6   1   0       0.82538194

Orbital populations (up)
 Atom Sh.   l   m       Population  Label
    1   1   0   0       1.33623410  s
    1   2   1  -1       0.58218006  p_y
    1   2   1   0       0.87181776  p_z
    1   2   1   1       1.05604372  p_x
    2   1   0   0       1.45017102  s
    2   2   1  -1       1.31654559  p_y
    2   2   1   0       1.10806096  p_z
    2   2   1   1       1.15912356  p_x
    3   1   0   0       0.83335839  s
    4   1   0   0       0.73214803  s
    5   1   0   0       0.72893486  s
    6   1   0   0       0.82538194  s

Fermi level:                        -0.5060287329 H          -13.7697 eV
Band energy:                        -8.9225330014 H         -242.7945 eV
TS:                                  0.0000000000 H            0.0000 eV
Band free energy (E-TS):            -8.9225330014 H         -242.7945 eV
Extrapolated E(0K):                 -8.9225330014 H         -242.7945 eV
Input / Output electrons (q):     12.0000000000     12.0000000000

Energy H0:                          -5.5288695871 H         -150.4482 eV
Energy SCC:                          0.1339093950 H            3.6439 eV
Total Electronic energy:            -5.3949601921 H         -146.8043 eV
Repulsive energy:                    0.1744930621 H            4.7482 eV
Total energy:                       -5.2204671300 H         -142.0561 eV
Extrapolated to 0:                  -5.2204671300 H         -142.0561 eV
Total Mermin free energy:           -5.2204671300 H         -142.0561 eV
Force related energy:               -5.2204671300 H         -142.0561 eV

SCC converged

Excitation Energy:                   0.1460804693 H            3.9751 eV

Total Forces
    1     -0.004394630366     -0.008777228944      0.044343897996
    2      0.012934148606      0.010659729056     -0.048469787774
    3     -0.003357026126     -0.000051796277     -0.000006516871
    4     -0.014190499826     -0.002882041331     -0.003350594854
    5      0.001452468044      0.001348993801      0.005060794566
    6      0.007555539668     -0.000297656305      0.002422206936

Maximal derivative component:        0.484698E-01 au


