|===============================================================================
|
|  DFTB+ release 20.1
|
|  Copyright (C) 2006 - 2020  DFTB+ developers group
|
|===============================================================================
|
|  When publishing results obtained with DFTB+, please cite the following
|  reference:
|
|  * DFTB+, a software package for efficient approximate density functional
|    theory based atomistic simulations, J. Chem. Phys. 152, 124101 (2020).
|    [doi: 10.1063/1.5143190]
|
|  You should also cite additional publications crediting the parametrization
|  data you use. Please consult the documentation of the SK-files for the
|  references.
|
|===============================================================================

Reading input file 'dftb_in.hsd'
Parser version: 8

--------------------------------------------------------------------------------
Reading SK-files:
Done.


Processed input in HSD format written to 'dftb_pin.hsd'

Starting initialization...
--------------------------------------------------------------------------------
OpenMP threads:              1
Chosen random seed:          498299831
Mode:                        Static calculation
Self consistent charges:     Yes
SCC-tolerance:                 0.100000E-05
Max. scc iterations:                   1000
Shell resolved Hubbard:      No
Spin polarisation:           No
Nr. of up electrons:            16.000000
Nr. of down electrons:          16.000000
Periodic boundaries:         No
Electronic solver:           Relatively robust
Maximal SCC-cycles:                    1000
Initial charges:             Set automatically (system chrg:   0.100E+01)
Included shells:             C:  s, p
                             H:  s
                             N:  s, p
Spin coupling constants:     C   1(s)-1(s):  -0.455900E-01
                             C   1(s)-2(p):  -0.293000E-01
                             C   2(p)-1(s):  -0.293000E-01
                             C   2(p)-2(p):  -0.275500E-01
                             H   1(s)-1(s):  -0.792500E-01
                             N   1(s)-1(s):  -0.468700E-01
                             N   1(s)-2(p):  -0.317000E-01
                             N   2(p)-1(s):  -0.317000E-01
                             N   2(p)-2(p):  -0.307200E-01
Range separated hybrid:      Yes
  Screening parameter omega:   0.300000E+00
  Range separated algorithm:   MatrixBased
Extra options:
                             Mulliken analysis
                             Force calculation
Force type                   original
                             Eigenvector printing


REKS Calcuation:             Yes
SSR(2,2) Calcuation:         Yes
Energy Functional:           (PPS+OSS)/2
Number of Core Orbitals:                 15
Number of Active Orbitals:                2
Number of Basis:                         32
Number of States:                         2
State-Averaging Weight:          0.500000
                                 0.500000
State of Interest:                        1
Initial Guess:               Diagonalize H0 matrix
Newton-Raphson for FON opt:  Yes
NR max. Iterations:                      50
Level Shifting:              Yes
Shift Value:                     0.300000
W Scale Factor:              C  =    3.200000
                             H  =    3.200000
                             N  =    3.200000
Transition Dipole:           No
Gradient of Microstate:      No
CP-REKS Solver:              Preconditioned Conjugate-Gradient
CG max. Iterations:                     100
CG Tolerance:                  0.100000E-07
Memory for A and Hxc:        Direct Updating Without Saving
Non-Adiabatic Coupling:      Yes

--------------------------------------------------------------------------------

***  Geometry step: 0

  iSCC       reks energy        Diff energy         x_a       SCC error   
    1      -16.3771878885       0.0000000000     0.999748    1.18558479
    2      -16.3980956363      -0.0209077477     0.999961    0.07007296
    3      -16.4017070972      -0.0036114610     0.999984    0.02414927
    4      -16.4028623044      -0.0011552072     0.999990    0.01293415
    5      -16.4033521103      -0.0004898059     0.999993    0.00785532
    6      -16.4035883797      -0.0002362694     0.999994    0.00509320
    7      -16.4037107065      -0.0001223268     0.999995    0.00375652
    8      -16.4037769635      -0.0000662570     0.999996    0.00278252
    9      -16.4038140974      -0.0000371339     0.999996    0.00204824
   10      -16.4038355360      -0.0000214386     0.999996    0.00150292
   11      -16.4038482635      -0.0000127275     0.999996    0.00110108
   12      -16.4038560282      -0.0000077647     0.999996    0.00080597
   13      -16.4038608954      -0.0000048672     0.999997    0.00058940
   14      -16.4038640308      -0.0000031354     0.999997    0.00043030
   15      -16.4038661081      -0.0000020773     0.999997    0.00034041
   16      -16.4038675251      -0.0000014170     0.999997    0.00029925
   17      -16.4038685221      -0.0000009971     0.999997    0.00026339
   18      -16.4038692474      -0.0000007252     0.999997    0.00023259
   19      -16.4038697938      -0.0000005464     0.999997    0.00020639
   20      -16.4038702209      -0.0000004271     0.999997    0.00018427
   21      -16.4038705675      -0.0000003466     0.999997    0.00016567
   22      -16.4038708590      -0.0000002915     0.999997    0.00015009
   23      -16.4038711124      -0.0000002535     0.999997    0.00013707
   24      -16.4038713394      -0.0000002270     0.999997    0.00012619
   25      -16.4038715477      -0.0000002083     0.999997    0.00011711
   26      -16.4038717427      -0.0000001950     0.999997    0.00010954
   27      -16.4038719281      -0.0000001855     0.999997    0.00010321
   28      -16.4038721067      -0.0000001785     0.999997    0.00009792
   29      -16.4038722801      -0.0000001734     0.999997    0.00009350
   30      -16.4038724497      -0.0000001696     0.999997    0.00008980
   31      -16.4038726163      -0.0000001667     0.999997    0.00008669
   32      -16.4038727807      -0.0000001644     0.999997    0.00008453
   33      -16.4038729432      -0.0000001625     0.999997    0.00008368
   34      -16.4038731042      -0.0000001610     0.999997    0.00008289
   35      -16.4038732640      -0.0000001598     0.999997    0.00008215
   36      -16.4038734227      -0.0000001587     0.999997    0.00008148
   37      -16.4038735803      -0.0000001577     0.999997    0.00008085
   38      -16.4038737371      -0.0000001568     0.999997    0.00008028
   39      -16.4038738931      -0.0000001560     0.999997    0.00007976
   40      -16.4038740483      -0.0000001552     0.999997    0.00007928
   41      -16.4038742028      -0.0000001545     0.999997    0.00007883
   42      -16.4038743565      -0.0000001538     0.999997    0.00007842
   43      -16.4038745096      -0.0000001531     0.999997    0.00007805
   44      -16.4038746620      -0.0000001524     0.999997    0.00007769
   45      -16.4038748138      -0.0000001518     0.999997    0.00007736
   46      -16.4038749649      -0.0000001511     0.999997    0.00007706
   47      -16.4038751154      -0.0000001505     0.999997    0.00007677
   48      -16.4038752653      -0.0000001499     0.999997    0.00007649
   49      -16.4038754145      -0.0000001493     0.999997    0.00007623
   50      -16.4038755632      -0.0000001486     0.999997    0.00007598
   51      -16.4038757112      -0.0000001481     0.999997    0.00007574
   52      -16.4038758587      -0.0000001475     0.999997    0.00007551
   53      -16.4038760055      -0.0000001469     0.999997    0.00007528
   54      -16.4038761518      -0.0000001463     0.999997    0.00007507
   55      -16.4038762976      -0.0000001457     0.999997    0.00007486
   56      -16.4038764427      -0.0000001452     0.999997    0.00007465
   57      -16.4038765873      -0.0000001446     0.999997    0.00007445
   58      -16.4038767314      -0.0000001440     0.999997    0.00007425
   59      -16.4038768749      -0.0000001435     0.999997    0.00007406
   60      -16.4038770178      -0.0000001430     0.999997    0.00007387
   61      -16.4038771603      -0.0000001424     0.999997    0.00007368
   62      -16.4038773021      -0.0000001419     0.999997    0.00007350
   63      -16.4038774435      -0.0000001414     0.999997    0.00007332
   64      -16.4038775843      -0.0000001408     0.999997    0.00007314
   65      -16.4038777247      -0.0000001403     0.999997    0.00007296
   66      -16.4038778645      -0.0000001398     0.999997    0.00007279
   67      -16.4038780038      -0.0000001393     0.999997    0.00007261
   68      -16.4038781426      -0.0000001388     0.999997    0.00007244
   69      -16.4038782809      -0.0000001383     0.999997    0.00007227
   70      -16.4038784187      -0.0000001378     0.999997    0.00007211
   71      -16.4038785560      -0.0000001373     0.999997    0.00007194
   72      -16.4038786929      -0.0000001368     0.999997    0.00007177
   73      -16.4038788292      -0.0000001364     0.999997    0.00007161
   74      -16.4038789651      -0.0000001359     0.999997    0.00007145
   75      -16.4038791005      -0.0000001354     0.999997    0.00007128
   76      -16.4038792355      -0.0000001350     0.999997    0.00007112
   77      -16.4038793700      -0.0000001345     0.999997    0.00007096
   78      -16.4038795041      -0.0000001341     0.999997    0.00007081
   79      -16.4038796377      -0.0000001336     0.999997    0.00007065
   80      -16.4038797708      -0.0000001332     0.999997    0.00007049
   81      -16.4038799035      -0.0000001327     0.999997    0.00007034
   82      -16.4038800358      -0.0000001323     0.999997    0.00007018
   83      -16.4038801677      -0.0000001318     0.999997    0.00007003
   84      -16.4038802991      -0.0000001314     0.999997    0.00006988
   85      -16.4038804301      -0.0000001310     0.999997    0.00006973
   86      -16.4038805606      -0.0000001306     0.999997    0.00006958
   87      -16.4038806908      -0.0000001302     0.999997    0.00006943
   88      -16.4038808205      -0.0000001297     0.999997    0.00006928
   89      -16.4038809499      -0.0000001293     0.999997    0.00006914
   90      -16.4038810788      -0.0000001289     0.999997    0.00006899
   91      -16.4038812073      -0.0000001285     0.999997    0.00006884
   92      -16.4038813355      -0.0000001281     0.999997    0.00006870
   93      -16.4038814632      -0.0000001277     0.999997    0.00006856
   94      -16.4038815906      -0.0000001274     0.999997    0.00006842
   95      -16.4038817175      -0.0000001270     0.999997    0.00006827
   96      -16.4038818441      -0.0000001266     0.999997    0.00006813
   97      -16.4038819704      -0.0000001262     0.999997    0.00006799
   98      -16.4038820962      -0.0000001258     0.999997    0.00006786
   99      -16.4038822217      -0.0000001255     0.999997    0.00006772
  100      -16.4038823468      -0.0000001251     0.999997    0.00006758
  101      -16.4038824715      -0.0000001247     0.999997    0.00006744
  102      -16.4038825959      -0.0000001244     0.999997    0.00006731
  103      -16.4038827199      -0.0000001240     0.999997    0.00006718
  104      -16.4038828436      -0.0000001237     0.999997    0.00006704
  105      -16.4038829669      -0.0000001233     0.999997    0.00006691
  106      -16.4038830899      -0.0000001230     0.999997    0.00006678
  107      -16.4038832125      -0.0000001226     0.999997    0.00006665
  108      -16.4038833348      -0.0000001223     0.999997    0.00006660
  109      -16.4038834568      -0.0000001220     0.999997    0.00006656
  110      -16.4038835784      -0.0000001216     0.999997    0.00006653
  111      -16.4038836997      -0.0000001213     0.999997    0.00006649
  112      -16.4038838207      -0.0000001210     0.999997    0.00006645
  113      -16.4038839413      -0.0000001206     0.999997    0.00006642
  114      -16.4038840617      -0.0000001203     0.999997    0.00006638
  115      -16.4038841817      -0.0000001200     0.999997    0.00006635
  116      -16.4038843014      -0.0000001197     0.999997    0.00006631
  117      -16.4038844208      -0.0000001194     0.999997    0.00006628
  118      -16.4038845398      -0.0000001191     0.999997    0.00006624
  119      -16.4038846586      -0.0000001188     0.999997    0.00006621
  120      -16.4038847771      -0.0000001185     0.999997    0.00006618
  121      -16.4038848952      -0.0000001182     0.999997    0.00006615
  122      -16.4038850131      -0.0000001179     0.999997    0.00006611
  123      -16.4038851307      -0.0000001176     0.999997    0.00006608
  124      -16.4038852480      -0.0000001173     0.999997    0.00006605
  125      -16.4038853650      -0.0000001170     0.999997    0.00006602
  126      -16.4038854817      -0.0000001167     0.999997    0.00006599
  127      -16.4038855982      -0.0000001164     0.999997    0.00006596
  128      -16.4038857143      -0.0000001162     0.999997    0.00006592
  129      -16.4038858302      -0.0000001159     0.999997    0.00006589
  130      -16.4038859458      -0.0000001156     0.999997    0.00006586
  131      -16.4038860611      -0.0000001153     0.999997    0.00006584
  132      -16.4038861762      -0.0000001151     0.999997    0.00006581
  133      -16.4038862910      -0.0000001148     0.999997    0.00006578
  134      -16.4038864055      -0.0000001145     0.999997    0.00006575
  135      -16.4038865198      -0.0000001143     0.999997    0.00006572
  136      -16.4038866338      -0.0000001140     0.999997    0.00006569
  137      -16.4038867475      -0.0000001138     0.999997    0.00006567
  138      -16.4038868610      -0.0000001135     0.999996    0.00006564
  139      -16.4038869743      -0.0000001132     0.999996    0.00006561
  140      -16.4038870873      -0.0000001130     0.999996    0.00006558
  141      -16.4038872000      -0.0000001128     0.999996    0.00006556
  142      -16.4038873125      -0.0000001125     0.999996    0.00006553
  143      -16.4038874248      -0.0000001123     0.999996    0.00006551
  144      -16.4038875368      -0.0000001120     0.999996    0.00006548
  145      -16.4038876486      -0.0000001118     0.999996    0.00006546
  146      -16.4038877602      -0.0000001115     0.999996    0.00006543
  147      -16.4038878715      -0.0000001113     0.999996    0.00006541
  148      -16.4038879826      -0.0000001111     0.999996    0.00006538
  149      -16.4038880934      -0.0000001109     0.999996    0.00006536
  150      -16.4038882041      -0.0000001106     0.999996    0.00006534
  151      -16.4038883145      -0.0000001104     0.999996    0.00006531
  152      -16.4038884246      -0.0000001102     0.999996    0.00006529
  153      -16.4038885346      -0.0000001100     0.999996    0.00006527
  154      -16.4038886443      -0.0000001097     0.999996    0.00006524
  155      -16.4038887539      -0.0000001095     0.999996    0.00006522
  156      -16.4038888632      -0.0000001093     0.999996    0.00006520
  157      -16.4038889723      -0.0000001091     0.999996    0.00006518
  158      -16.4038890812      -0.0000001089     0.999996    0.00006516
  159      -16.4038891899      -0.0000001087     0.999996    0.00006514
  160      -16.4038892983      -0.0000001085     0.999996    0.00006511
  161      -16.4038894066      -0.0000001083     0.999996    0.00006509
  162      -16.4038895147      -0.0000001081     0.999996    0.00006507
  163      -16.4038896225      -0.0000001079     0.999996    0.00006505
  164      -16.4038897302      -0.0000001077     0.999996    0.00006503
  165      -16.4038898377      -0.0000001075     0.999996    0.00006501
  166      -16.4038899450      -0.0000001073     0.999996    0.00006500
  167      -16.4038900520      -0.0000001071     0.999996    0.00006498
  168      -16.4038901589      -0.0000001069     0.999996    0.00006496
  169      -16.4038902656      -0.0000001067     0.999996    0.00006494
  170      -16.4038903721      -0.0000001065     0.999996    0.00006492
  171      -16.4038904785      -0.0000001063     0.999996    0.00006490
  172      -16.4038905846      -0.0000001061     0.999996    0.00006489
  173      -16.4038906906      -0.0000001060     0.999996    0.00006487
  174      -16.4038907964      -0.0000001058     0.999996    0.00006485
  175      -16.4038909020      -0.0000001056     0.999996    0.00006483
  176      -16.4038910074      -0.0000001054     0.999996    0.00006482
  177      -16.4038911127      -0.0000001053     0.999996    0.00006480
  178      -16.4038912177      -0.0000001051     0.999996    0.00006478
  179      -16.4038913226      -0.0000001049     0.999996    0.00006477
  180      -16.4038914274      -0.0000001047     0.999996    0.00006475
  181      -16.4038915319      -0.0000001046     0.999996    0.00006474
  182      -16.4038916363      -0.0000001044     0.999996    0.00006472
  183      -16.4038917406      -0.0000001042     0.999996    0.00006471
  184      -16.4038918446      -0.0000001041     0.999996    0.00006469
  185      -16.4038919485      -0.0000001039     0.999996    0.00006468
  186      -16.4038920523      -0.0000001037     0.999996    0.00006466
  187      -16.4038921559      -0.0000001036     0.999996    0.00006465
  188      -16.4038922593      -0.0000001034     0.999996    0.00006463
  189      -16.4038923626      -0.0000001033     0.999996    0.00006462
  190      -16.4038924657      -0.0000001031     0.999996    0.00006461
  191      -16.4038925686      -0.0000001030     0.999996    0.00006459
  192      -16.4038926714      -0.0000001028     0.999996    0.00006458
  193      -16.4038927741      -0.0000001027     0.999996    0.00006457
  194      -16.4038928766      -0.0000001025     0.999996    0.00006455
  195      -16.4038929790      -0.0000001024     0.999996    0.00006454
  196      -16.4038930812      -0.0000001022     0.999996    0.00006453
  197      -16.4038931832      -0.0000001021     0.999996    0.00006452
  198      -16.4038932851      -0.0000001019     0.999996    0.00006450
  199      -16.4038933869      -0.0000001018     0.999996    0.00006449
  200      -16.4038934886      -0.0000001016     0.999996    0.00006448
  201      -16.4038935901      -0.0000001015     0.999996    0.00006447
  202      -16.4038936914      -0.0000001014     0.999996    0.00006446
  203      -16.4038937926      -0.0000001012     0.999996    0.00006445
  204      -16.4038938937      -0.0000001011     0.999996    0.00006444
  205      -16.4038939947      -0.0000001009     0.999996    0.00006443
  206      -16.4038940955      -0.0000001008     0.999996    0.00006442
  207      -16.4038941962      -0.0000001007     0.999996    0.00006440
  208      -16.4038942967      -0.0000001005     0.999996    0.00006439
  209      -16.4038943971      -0.0000001004     0.999996    0.00006438
  210      -16.4038944974      -0.0000001003     0.999996    0.00006437
  211      -16.4038945976      -0.0000001002     0.999996    0.00006436
  212      -16.4038946976      -0.0000001000     0.999996    0.00006436
  213      -16.4038947975      -0.0000000999     0.999996    0.00006435
  214      -16.4038948973      -0.0000000998     0.999996    0.00006434
  215      -16.4038949970      -0.0000000997     0.999996    0.00006433
  216      -16.4038950965      -0.0000000995     0.999996    0.00006432
  217      -16.4038951959      -0.0000000994     0.999996    0.00006431
  218      -16.4038952952      -0.0000000993     0.999996    0.00006430
  219      -16.4038953944      -0.0000000992     0.999996    0.00006429
  220      -16.4038954935      -0.0000000991     0.999996    0.00006428
  221      -16.4038955924      -0.0000000989     0.999996    0.00006428
  222      -16.4038956913      -0.0000000988     0.999996    0.00006427
  223      -16.4038957900      -0.0000000987     0.999996    0.00006426
  224      -16.4038958886      -0.0000000986     0.999996    0.00006425
  225      -16.4038959871      -0.0000000985     0.999996    0.00006424
  226      -16.4038960854      -0.0000000984     0.999996    0.00006424
  227      -16.4038961837      -0.0000000983     0.999996    0.00006423
  228      -16.4038962819      -0.0000000982     0.999996    0.00006422
  229      -16.4038963799      -0.0000000980     0.999996    0.00006422
  230      -16.4038964779      -0.0000000979     0.999996    0.00006421
  231      -16.4038965757      -0.0000000978     0.999996    0.00006420
  232      -16.4038966734      -0.0000000977     0.999996    0.00006419
  233      -16.4038967710      -0.0000000976     0.999996    0.00006419
  234      -16.4038968686      -0.0000000975     0.999996    0.00006418
  235      -16.4038969660      -0.0000000974     0.999996    0.00006418
  236      -16.4038970633      -0.0000000973     0.999996    0.00006417
  237      -16.4038971605      -0.0000000972     0.999996    0.00006416
  238      -16.4038972576      -0.0000000971     0.999996    0.00006416
  239      -16.4038973546      -0.0000000970     0.999996    0.00006415
  240      -16.4038974516      -0.0000000969     0.999996    0.00006414
  241      -16.4038975484      -0.0000000968     0.999996    0.00006414
  242      -16.4038976451      -0.0000000967     0.999996    0.00006413
  243      -16.4038977417      -0.0000000966     0.999996    0.00006413
  244      -16.4038978382      -0.0000000965     0.999996    0.00006412
  245      -16.4038979347      -0.0000000964     0.999996    0.00006412
  246      -16.4038980310      -0.0000000963     0.999996    0.00006411
  247      -16.4038981273      -0.0000000962     0.999996    0.00006411
  248      -16.4038982234      -0.0000000962     0.999996    0.00006410
  249      -16.4038983195      -0.0000000961     0.999996    0.00006410
  250      -16.4038984155      -0.0000000960     0.999996    0.00006409
  251      -16.4038985113      -0.0000000959     0.999996    0.00006409
  252      -16.4038986071      -0.0000000958     0.999996    0.00006408
  253      -16.4038987028      -0.0000000957     0.999996    0.00006408
  254      -16.4038987985      -0.0000000956     0.999996    0.00006407
  255      -16.4038988940      -0.0000000955     0.999996    0.00006407
  256      -16.4038989894      -0.0000000954     0.999996    0.00006406
  257      -16.4038990848      -0.0000000954     0.999996    0.00006406
  258      -16.4038991801      -0.0000000953     0.999996    0.00006405
  259      -16.4038992752      -0.0000000952     0.999996    0.00006405
  260      -16.4038993703      -0.0000000951     0.999996    0.00006404
  261      -16.4038994654      -0.0000000950     0.999996    0.00006404
  262      -16.4038995603      -0.0000000949     0.999996    0.00006404
  263      -16.4038996552      -0.0000000949     0.999996    0.00006403
  264      -16.4038997499      -0.0000000948     0.999996    0.00006403
  265      -16.4038998446      -0.0000000947     0.999996    0.00006402
  266      -16.4038999392      -0.0000000946     0.999996    0.00006402
  267      -16.4039000338      -0.0000000945     0.999996    0.00006402
  268      -16.4039001282      -0.0000000945     0.999996    0.00006401
  269      -16.4039002226      -0.0000000944     0.999996    0.00006401
  270      -16.4039003169      -0.0000000943     0.999996    0.00006400
  271      -16.4039004111      -0.0000000942     0.999996    0.00006400
  272      -16.4039005053      -0.0000000941     0.999996    0.00006400
  273      -16.4039005994      -0.0000000941     0.999996    0.00006399
  274      -16.4039006933      -0.0000000940     0.999996    0.00006399
  275      -16.4039007873      -0.0000000939     0.999996    0.00006398
  276      -16.4039008811      -0.0000000938     0.999996    0.00006398
  277      -16.4039009749      -0.0000000938     0.999996    0.00006398
  278      -16.4039010686      -0.0000000937     0.999996    0.00006397
  279      -16.4039011622      -0.0000000936     0.999996    0.00006397
  280      -16.4039012558      -0.0000000936     0.999996    0.00006397
  281      -16.4039013492      -0.0000000935     0.999996    0.00006396
  282      -16.4039014426      -0.0000000934     0.999996    0.00006396
  283      -16.4039015360      -0.0000000933     0.999996    0.00006395
  284      -16.4039016292      -0.0000000933     0.999996    0.00006395
  285      -16.4039017224      -0.0000000932     0.999996    0.00006395
  286      -16.4039018156      -0.0000000931     0.999996    0.00006394
  287      -16.4039019086      -0.0000000931     0.999996    0.00006394
  288      -16.4039020016      -0.0000000930     0.999996    0.00006394
  289      -16.4039020945      -0.0000000929     0.999996    0.00006393
  290      -16.4039021874      -0.0000000928     0.999996    0.00006393
  291      -16.4039022802      -0.0000000928     0.999996    0.00006393
  292      -16.4039023729      -0.0000000927     0.999996    0.00006392
  293      -16.4039024655      -0.0000000926     0.999996    0.00006392
  294      -16.4039025581      -0.0000000926     0.999996    0.00006391
  295      -16.4039026506      -0.0000000925     0.999996    0.00006391
  296      -16.4039027431      -0.0000000924     0.999996    0.00006391
  297      -16.4039028354      -0.0000000924     0.999996    0.00006390
  298      -16.4039029277      -0.0000000923     0.999996    0.00006390
  299      -16.4039030200      -0.0000000923     0.999996    0.00006389
  300      -16.4039031122      -0.0000000922     0.999996    0.00006389
  301      -16.4039032043      -0.0000000921     0.999996    0.00006389
  302      -16.4039032964      -0.0000000921     0.999996    0.00006388
  303      -16.4039033884      -0.0000000920     0.999996    0.00006388
  304      -16.4039034803      -0.0000000919     0.999996    0.00006387
  305      -16.4039035722      -0.0000000919     0.999996    0.00006387
  306      -16.4039036640      -0.0000000918     0.999996    0.00006387
  307      -16.4039037557      -0.0000000917     0.999996    0.00006386
  308      -16.4039038474      -0.0000000917     0.999996    0.00006386
  309      -16.4039039390      -0.0000000916     0.999996    0.00006385
  310      -16.4039040305      -0.0000000916     0.999996    0.00006385
  311      -16.4039041220      -0.0000000915     0.999996    0.00006384
  312      -16.4039042135      -0.0000000914     0.999996    0.00006384
  313      -16.4039043048      -0.0000000914     0.999996    0.00006384
  314      -16.4039043961      -0.0000000913     0.999996    0.00006383
  315      -16.4039044874      -0.0000000912     0.999996    0.00006383
  316      -16.4039045786      -0.0000000912     0.999996    0.00006382
  317      -16.4039046697      -0.0000000911     0.999996    0.00006382
  318      -16.4039047607      -0.0000000911     0.999996    0.00006381
  319      -16.4039048517      -0.0000000910     0.999996    0.00006381
  320      -16.4039049427      -0.0000000909     0.999996    0.00006380
  321      -16.4039050336      -0.0000000909     0.999996    0.00006380
  322      -16.4039051244      -0.0000000908     0.999996    0.00006379
  323      -16.4039052152      -0.0000000908     0.999996    0.00006379
  324      -16.4039053059      -0.0000000907     0.999996    0.00006378
  325      -16.4039053965      -0.0000000906     0.999996    0.00006378
  326      -16.4039054871      -0.0000000906     0.999996    0.00006377
  327      -16.4039055776      -0.0000000905     0.999996    0.00006376
  328      -16.4039056681      -0.0000000905     0.999996    0.00006376
  329      -16.4039057585      -0.0000000904     0.999996    0.00006375
  330      -16.4039058488      -0.0000000903     0.999996    0.00006375
  331      -16.4039059391      -0.0000000903     0.999996    0.00006374
  332      -16.4039060293      -0.0000000902     0.999996    0.00006373
  333      -16.4039061195      -0.0000000902     0.999996    0.00006373
  334      -16.4039062096      -0.0000000901     0.999996    0.00006372
  335      -16.4039062997      -0.0000000901     0.999996    0.00006371
  336      -16.4039063897      -0.0000000900     0.999996    0.00006371
  337      -16.4039064796      -0.0000000899     0.999996    0.00006370
  338      -16.4039065695      -0.0000000899     0.999996    0.00006369
  339      -16.4039066593      -0.0000000898     0.999996    0.00006369
  340      -16.4039067490      -0.0000000898     0.999996    0.00006368
  341      -16.4039068387      -0.0000000897     0.999996    0.00006367
  342      -16.4039069284      -0.0000000896     0.999996    0.00006367
  343      -16.4039070180      -0.0000000896     0.999996    0.00006366
  344      -16.4039071075      -0.0000000895     0.999996    0.00006365
  345      -16.4039071970      -0.0000000895     0.999996    0.00006364
  346      -16.4039072864      -0.0000000894     0.999996    0.00006363
  347      -16.4039073757      -0.0000000893     0.999996    0.00006363
  348      -16.4039074650      -0.0000000893     0.999996    0.00006362
  349      -16.4039075542      -0.0000000892     0.999996    0.00006361
  350      -16.4039076434      -0.0000000892     0.999996    0.00006360
  351      -16.4039077325      -0.0000000891     0.999996    0.00006359
  352      -16.4039078216      -0.0000000891     0.999996    0.00006358
  353      -16.4039079106      -0.0000000890     0.999996    0.00006358
  354      -16.4039079995      -0.0000000889     0.999996    0.00006357
  355      -16.4039080884      -0.0000000889     0.999996    0.00006356
  356      -16.4039081772      -0.0000000888     0.999996    0.00006355
  357      -16.4039082660      -0.0000000888     0.999996    0.00006354
  358      -16.4039083547      -0.0000000887     0.999996    0.00006353
  359      -16.4039084433      -0.0000000886     0.999996    0.00006352
  360      -16.4039085319      -0.0000000886     0.999996    0.00006351
  361      -16.4039086204      -0.0000000885     0.999996    0.00006350
  362      -16.4039087089      -0.0000000885     0.999996    0.00006349
  363      -16.4039087973      -0.0000000884     0.999996    0.00006348
  364      -16.4039088856      -0.0000000883     0.999996    0.00006347
  365      -16.4039089739      -0.0000000883     0.999996    0.00006346
  366      -16.4039090621      -0.0000000882     0.999996    0.00006344
  367      -16.4039091503      -0.0000000882     0.999996    0.00006343
  368      -16.4039092384      -0.0000000881     0.999996    0.00006342
  369      -16.4039093264      -0.0000000880     0.999996    0.00006341
  370      -16.4039094144      -0.0000000880     0.999996    0.00006340
  371      -16.4039095023      -0.0000000879     0.999996    0.00006339
  372      -16.4039095901      -0.0000000879     0.999996    0.00006337
  373      -16.4039096779      -0.0000000878     0.999996    0.00006336
  374      -16.4039097657      -0.0000000877     0.999996    0.00006335
  375      -16.4039098533      -0.0000000877     0.999996    0.00006334
  376      -16.4039099409      -0.0000000876     0.999996    0.00006332
  377      -16.4039100285      -0.0000000875     0.999996    0.00006331
  378      -16.4039101160      -0.0000000875     0.999996    0.00006330
  379      -16.4039102034      -0.0000000874     0.999996    0.00006328
  380      -16.4039102907      -0.0000000874     0.999996    0.00006327
  381      -16.4039103780      -0.0000000873     0.999996    0.00006326
  382      -16.4039104652      -0.0000000872     0.999997    0.00006324
  383      -16.4039105524      -0.0000000872     0.999997    0.00006323
  384      -16.4039106395      -0.0000000871     0.999997    0.00006321
  385      -16.4039107265      -0.0000000870     0.999997    0.00006320
  386      -16.4039108135      -0.0000000870     0.999997    0.00006318
  387      -16.4039109004      -0.0000000869     0.999997    0.00006317
  388      -16.4039109873      -0.0000000868     0.999997    0.00006315
  389      -16.4039110740      -0.0000000868     0.999997    0.00006314
  390      -16.4039111607      -0.0000000867     0.999997    0.00006312
  391      -16.4039112474      -0.0000000866     0.999997    0.00006310
  392      -16.4039113339      -0.0000000866     0.999997    0.00006309
  393      -16.4039114205      -0.0000000865     0.999997    0.00006307
  394      -16.4039115069      -0.0000000864     0.999997    0.00006305
  395      -16.4039115933      -0.0000000864     0.999997    0.00006304
  396      -16.4039116796      -0.0000000863     0.999997    0.00006302
  397      -16.4039117658      -0.0000000862     0.999997    0.00006300
  398      -16.4039118520      -0.0000000862     0.999997    0.00006298
  399      -16.4039119381      -0.0000000861     0.999997    0.00006297
  400      -16.4039120241      -0.0000000860     0.999997    0.00006295
  401      -16.4039121101      -0.0000000860     0.999997    0.00006293
  402      -16.4039121960      -0.0000000859     0.999997    0.00006291
  403      -16.4039122818      -0.0000000858     0.999997    0.00006289
  404      -16.4039123676      -0.0000000858     0.999997    0.00006287
  405      -16.4039124532      -0.0000000857     0.999997    0.00006285
  406      -16.4039125388      -0.0000000856     0.999997    0.00006283
  407      -16.4039126244      -0.0000000855     0.999997    0.00006281
  408      -16.4039127099      -0.0000000855     0.999997    0.00006279
  409      -16.4039127952      -0.0000000854     0.999997    0.00006277
  410      -16.4039128806      -0.0000000853     0.999997    0.00006275
  411      -16.4039129658      -0.0000000852     0.999997    0.00006273
  412      -16.4039130510      -0.0000000852     0.999997    0.00006271
  413      -16.4039131361      -0.0000000851     0.999997    0.00006269
  414      -16.4039132211      -0.0000000850     0.999997    0.00006267
  415      -16.4039133061      -0.0000000850     0.999997    0.00006264
  416      -16.4039133910      -0.0000000849     0.999997    0.00006262
  417      -16.4039134758      -0.0000000848     0.999997    0.00006260
  418      -16.4039135605      -0.0000000847     0.999997    0.00006257
  419      -16.4039136451      -0.0000000847     0.999997    0.00006255
  420      -16.4039137297      -0.0000000846     0.999997    0.00006253
  421      -16.4039138142      -0.0000000845     0.999997    0.00006250
  422      -16.4039138986      -0.0000000844     0.999997    0.00006248
  423      -16.4039139830      -0.0000000843     0.999997    0.00006246
  424      -16.4039140672      -0.0000000843     0.999997    0.00006243
  425      -16.4039141514      -0.0000000842     0.999997    0.00006241
  426      -16.4039142355      -0.0000000841     0.999997    0.00006238
  427      -16.4039143195      -0.0000000840     0.999997    0.00006236
  428      -16.4039144035      -0.0000000839     0.999997    0.00006233
  429      -16.4039144873      -0.0000000839     0.999997    0.00006230
  430      -16.4039145711      -0.0000000838     0.999997    0.00006228
  431      -16.4039146548      -0.0000000837     0.999997    0.00006225
  432      -16.4039147384      -0.0000000836     0.999997    0.00006222
  433      -16.4039148220      -0.0000000835     0.999997    0.00006220
  434      -16.4039149054      -0.0000000835     0.999997    0.00006217
  435      -16.4039149888      -0.0000000834     0.999997    0.00006214
  436      -16.4039150721      -0.0000000833     0.999997    0.00006211
  437      -16.4039151553      -0.0000000832     0.999997    0.00006208
  438      -16.4039152384      -0.0000000831     0.999997    0.00006206
  439      -16.4039153214      -0.0000000830     0.999997    0.00006203
  440      -16.4039154043      -0.0000000829     0.999997    0.00006200
  441      -16.4039154872      -0.0000000829     0.999997    0.00006197
  442      -16.4039155700      -0.0000000828     0.999997    0.00006194
  443      -16.4039156526      -0.0000000827     0.999997    0.00006191
  444      -16.4039157352      -0.0000000826     0.999997    0.00006188
  445      -16.4039158177      -0.0000000825     0.999997    0.00006185
  446      -16.4039159002      -0.0000000824     0.999997    0.00006181
  447      -16.4039159825      -0.0000000823     0.999997    0.00006178
  448      -16.4039160647      -0.0000000822     0.999997    0.00006175
  449      -16.4039161468      -0.0000000821     0.999997    0.00006172
  450      -16.4039162289      -0.0000000821     0.999997    0.00006169
  451      -16.4039163109      -0.0000000820     0.999997    0.00006165
  452      -16.4039163927      -0.0000000819     0.999997    0.00006162
  453      -16.4039164745      -0.0000000818     0.999997    0.00006159
  454      -16.4039165562      -0.0000000817     0.999997    0.00006155
  455      -16.4039166378      -0.0000000816     0.999997    0.00006152
  456      -16.4039167192      -0.0000000815     0.999997    0.00006149
  457      -16.4039168006      -0.0000000814     0.999997    0.00006145
  458      -16.4039168819      -0.0000000813     0.999997    0.00006142
  459      -16.4039169631      -0.0000000812     0.999997    0.00006138
  460      -16.4039170443      -0.0000000811     0.999997    0.00006134
  461      -16.4039171253      -0.0000000810     0.999997    0.00006131
  462      -16.4039172062      -0.0000000809     0.999997    0.00006127
  463      -16.4039172870      -0.0000000808     0.999997    0.00006124
  464      -16.4039173677      -0.0000000807     0.999997    0.00006120
  465      -16.4039174483      -0.0000000806     0.999997    0.00006116
  466      -16.4039175288      -0.0000000805     0.999997    0.00006112
  467      -16.4039176092      -0.0000000804     0.999997    0.00006109
  468      -16.4039176895      -0.0000000803     0.999997    0.00006105
  469      -16.4039177697      -0.0000000802     0.999997    0.00006101
  470      -16.4039178499      -0.0000000801     0.999997    0.00006097
  471      -16.4039179299      -0.0000000800     0.999997    0.00006093
  472      -16.4039180098      -0.0000000799     0.999997    0.00006089
  473      -16.4039180895      -0.0000000798     0.999997    0.00006085
  474      -16.4039181692      -0.0000000797     0.999997    0.00006081
  475      -16.4039182488      -0.0000000796     0.999997    0.00006077
  476      -16.4039183283      -0.0000000795     0.999997    0.00006073
  477      -16.4039184077      -0.0000000794     0.999997    0.00006069
  478      -16.4039184869      -0.0000000793     0.999997    0.00006065
  479      -16.4039185661      -0.0000000792     0.999997    0.00006060
  480      -16.4039186451      -0.0000000790     0.999997    0.00006056
  481      -16.4039187241      -0.0000000789     0.999997    0.00006052
  482      -16.4039188029      -0.0000000788     0.999997    0.00006048
  483      -16.4039188816      -0.0000000787     0.999997    0.00006043
  484      -16.4039189602      -0.0000000786     0.999997    0.00006039
  485      -16.4039190387      -0.0000000785     0.999997    0.00006034
  486      -16.4039191171      -0.0000000784     0.999997    0.00006030
  487      -16.4039191954      -0.0000000783     0.999997    0.00006026
  488      -16.4039192735      -0.0000000782     0.999997    0.00006021
  489      -16.4039193516      -0.0000000780     0.999997    0.00006016
  490      -16.4039194295      -0.0000000779     0.999997    0.00006012
  491      -16.4039195073      -0.0000000778     0.999997    0.00006007
  492      -16.4039195850      -0.0000000777     0.999997    0.00006003
  493      -16.4039196626      -0.0000000776     0.999997    0.00005998
  494      -16.4039197401      -0.0000000775     0.999997    0.00005993
  495      -16.4039198174      -0.0000000773     0.999997    0.00005989
  496      -16.4039198946      -0.0000000772     0.999997    0.00005984
  497      -16.4039199717      -0.0000000771     0.999997    0.00005979
  498      -16.4039200487      -0.0000000770     0.999997    0.00005974
  499      -16.4039201256      -0.0000000769     0.999997    0.00005969
  500      -16.4039202024      -0.0000000768     0.999997    0.00005964
  501      -16.4039202790      -0.0000000766     0.999997    0.00005959
  502      -16.4039203555      -0.0000000765     0.999997    0.00005954
  503      -16.4039204319      -0.0000000764     0.999997    0.00005949
  504      -16.4039205081      -0.0000000763     0.999997    0.00005944
  505      -16.4039205843      -0.0000000761     0.999997    0.00005939
  506      -16.4039206603      -0.0000000760     0.999997    0.00005934
  507      -16.4039207362      -0.0000000759     0.999997    0.00005929
  508      -16.4039208119      -0.0000000758     0.999997    0.00005924
  509      -16.4039208876      -0.0000000756     0.999997    0.00005918
  510      -16.4039209631      -0.0000000755     0.999997    0.00005913
  511      -16.4039210385      -0.0000000754     0.999997    0.00005908
  512      -16.4039211137      -0.0000000753     0.999997    0.00005902
  513      -16.4039211889      -0.0000000751     0.999997    0.00005897
  514      -16.4039212639      -0.0000000750     0.999997    0.00005892
  515      -16.4039213387      -0.0000000749     0.999997    0.00005886
  516      -16.4039214135      -0.0000000747     0.999997    0.00005881
  517      -16.4039214881      -0.0000000746     0.999997    0.00005875
  518      -16.4039215626      -0.0000000745     0.999997    0.00005870
  519      -16.4039216369      -0.0000000743     0.999997    0.00005864
  520      -16.4039217111      -0.0000000742     0.999997    0.00005858
  521      -16.4039217852      -0.0000000741     0.999997    0.00005853
  522      -16.4039218592      -0.0000000739     0.999997    0.00005847
  523      -16.4039219330      -0.0000000738     0.999997    0.00005841
  524      -16.4039220067      -0.0000000737     0.999997    0.00005836
  525      -16.4039220802      -0.0000000735     0.999997    0.00005830
  526      -16.4039221536      -0.0000000734     0.999997    0.00005824
  527      -16.4039222269      -0.0000000733     0.999997    0.00005818
  528      -16.4039223000      -0.0000000731     0.999997    0.00005812
  529      -16.4039223730      -0.0000000730     0.999997    0.00005806
  530      -16.4039224459      -0.0000000729     0.999997    0.00005800
  531      -16.4039225186      -0.0000000727     0.999997    0.00005794
  532      -16.4039225912      -0.0000000726     0.999997    0.00005788
  533      -16.4039226636      -0.0000000724     0.999997    0.00005782
  534      -16.4039227359      -0.0000000723     0.999997    0.00005776
  535      -16.4039228080      -0.0000000722     0.999997    0.00005770
  536      -16.4039228801      -0.0000000720     0.999997    0.00005764
  537      -16.4039229519      -0.0000000719     0.999997    0.00005758
  538      -16.4039230237      -0.0000000717     0.999997    0.00005752
  539      -16.4039230952      -0.0000000716     0.999997    0.00005745
  540      -16.4039231667      -0.0000000714     0.999997    0.00005739
  541      -16.4039232380      -0.0000000713     0.999997    0.00005733
  542      -16.4039233091      -0.0000000712     0.999997    0.00005726
  543      -16.4039233801      -0.0000000710     0.999997    0.00005720
  544      -16.4039234510      -0.0000000709     0.999997    0.00005713
  545      -16.4039235217      -0.0000000707     0.999997    0.00005707
  546      -16.4039235923      -0.0000000706     0.999997    0.00005700
  547      -16.4039236627      -0.0000000704     0.999997    0.00005694
  548      -16.4039237330      -0.0000000703     0.999997    0.00005687
  549      -16.4039238031      -0.0000000701     0.999997    0.00005681
  550      -16.4039238731      -0.0000000700     0.999997    0.00005674
  551      -16.4039239429      -0.0000000698     0.999997    0.00005667
  552      -16.4039240126      -0.0000000697     0.999997    0.00005661
  553      -16.4039240821      -0.0000000695     0.999997    0.00005654
  554      -16.4039241515      -0.0000000694     0.999997    0.00005647
  555      -16.4039242207      -0.0000000692     0.999997    0.00005640
  556      -16.4039242897      -0.0000000691     0.999997    0.00005634
  557      -16.4039243586      -0.0000000689     0.999997    0.00005627
  558      -16.4039244274      -0.0000000688     0.999997    0.00005620
  559      -16.4039244960      -0.0000000686     0.999997    0.00005613
  560      -16.4039245645      -0.0000000684     0.999997    0.00005606
  561      -16.4039246327      -0.0000000683     0.999997    0.00005599
  562      -16.4039247009      -0.0000000681     0.999997    0.00005592
  563      -16.4039247689      -0.0000000680     0.999997    0.00005585
  564      -16.4039248367      -0.0000000678     0.999997    0.00005578
  565      -16.4039249044      -0.0000000677     0.999997    0.00005571
  566      -16.4039249719      -0.0000000675     0.999997    0.00005564
  567      -16.4039250392      -0.0000000674     0.999997    0.00005556
  568      -16.4039251064      -0.0000000672     0.999997    0.00005549
  569      -16.4039251735      -0.0000000670     0.999997    0.00005542
  570      -16.4039252403      -0.0000000669     0.999997    0.00005535
  571      -16.4039253071      -0.0000000667     0.999997    0.00005527
  572      -16.4039253736      -0.0000000666     0.999997    0.00005520
  573      -16.4039254400      -0.0000000664     0.999997    0.00005513
  574      -16.4039255062      -0.0000000662     0.999997    0.00005505
  575      -16.4039255723      -0.0000000661     0.999997    0.00005498
  576      -16.4039256382      -0.0000000659     0.999997    0.00005490
  577      -16.4039257040      -0.0000000657     0.999997    0.00005483
  578      -16.4039257696      -0.0000000656     0.999997    0.00005475
  579      -16.4039258350      -0.0000000654     0.999997    0.00005468
  580      -16.4039259002      -0.0000000653     0.999997    0.00005460
  581      -16.4039259653      -0.0000000651     0.999997    0.00005453
  582      -16.4039260302      -0.0000000649     0.999997    0.00005445
  583      -16.4039260950      -0.0000000648     0.999997    0.00005437
  584      -16.4039261596      -0.0000000646     0.999997    0.00005430
  585      -16.4039262240      -0.0000000644     0.999997    0.00005422
  586      -16.4039262883      -0.0000000643     0.999997    0.00005414
  587      -16.4039263524      -0.0000000641     0.999997    0.00005406
  588      -16.4039264163      -0.0000000639     0.999997    0.00005399
  589      -16.4039264801      -0.0000000638     0.999997    0.00005391
  590      -16.4039265437      -0.0000000636     0.999997    0.00005383
  591      -16.4039266071      -0.0000000634     0.999997    0.00005375
  592      -16.4039266704      -0.0000000633     0.999997    0.00005367
  593      -16.4039267335      -0.0000000631     0.999997    0.00005359
  594      -16.4039267964      -0.0000000629     0.999997    0.00005351
  595      -16.4039268591      -0.0000000628     0.999997    0.00005343
  596      -16.4039269217      -0.0000000626     0.999997    0.00005335
  597      -16.4039269841      -0.0000000624     0.999997    0.00005327
  598      -16.4039270464      -0.0000000622     0.999997    0.00005319
  599      -16.4039271084      -0.0000000621     0.999997    0.00005311
  600      -16.4039271703      -0.0000000619     0.999997    0.00005303
  601      -16.4039272321      -0.0000000617     0.999997    0.00005294
  602      -16.4039272936      -0.0000000616     0.999997    0.00005286
  603      -16.4039273550      -0.0000000614     0.999997    0.00005278
  604      -16.4039274162      -0.0000000612     0.999997    0.00005270
  605      -16.4039274772      -0.0000000610     0.999997    0.00005261
  606      -16.4039275381      -0.0000000609     0.999997    0.00005253
  607      -16.4039275988      -0.0000000607     0.999997    0.00005245
  608      -16.4039276593      -0.0000000605     0.999997    0.00005236
  609      -16.4039277196      -0.0000000603     0.999997    0.00005228
  610      -16.4039277798      -0.0000000602     0.999997    0.00005220
  611      -16.4039278398      -0.0000000600     0.999997    0.00005211
  612      -16.4039278996      -0.0000000598     0.999997    0.00005203
  613      -16.4039279592      -0.0000000596     0.999997    0.00005194
  614      -16.4039280187      -0.0000000595     0.999997    0.00005186
  615      -16.4039280780      -0.0000000593     0.999997    0.00005177
  616      -16.4039281371      -0.0000000591     0.999997    0.00005169
  617      -16.4039281960      -0.0000000589     0.999997    0.00005160
  618      -16.4039282548      -0.0000000588     0.999997    0.00005152
  619      -16.4039283133      -0.0000000586     0.999997    0.00005143
  620      -16.4039283717      -0.0000000584     0.999997    0.00005134
  621      -16.4039284300      -0.0000000582     0.999997    0.00005126
  622      -16.4039284880      -0.0000000580     0.999997    0.00005117
  623      -16.4039285459      -0.0000000579     0.999997    0.00005108
  624      -16.4039286035      -0.0000000577     0.999997    0.00005099
  625      -16.4039286611      -0.0000000575     0.999997    0.00005091
  626      -16.4039287184      -0.0000000573     0.999997    0.00005082
  627      -16.4039287755      -0.0000000572     0.999997    0.00005073
  628      -16.4039288325      -0.0000000570     0.999997    0.00005064
  629      -16.4039288893      -0.0000000568     0.999997    0.00005055
  630      -16.4039289459      -0.0000000566     0.999997    0.00005046
  631      -16.4039290024      -0.0000000564     0.999997    0.00005038
  632      -16.4039290586      -0.0000000563     0.999997    0.00005029
  633      -16.4039291147      -0.0000000561     0.999997    0.00005020
  634      -16.4039291706      -0.0000000559     0.999997    0.00005011
  635      -16.4039292263      -0.0000000557     0.999997    0.00005002
  636      -16.4039292818      -0.0000000555     0.999997    0.00004993
  637      -16.4039293372      -0.0000000554     0.999997    0.00004984
  638      -16.4039293923      -0.0000000552     0.999997    0.00004975
  639      -16.4039294473      -0.0000000550     0.999997    0.00004966
  640      -16.4039295021      -0.0000000548     0.999997    0.00004957
  641      -16.4039295568      -0.0000000546     0.999997    0.00004947
  642      -16.4039296112      -0.0000000544     0.999997    0.00004938
  643      -16.4039296655      -0.0000000543     0.999997    0.00004929
  644      -16.4039297196      -0.0000000541     0.999997    0.00004920
  645      -16.4039297735      -0.0000000539     0.999997    0.00004911
  646      -16.4039298272      -0.0000000537     0.999997    0.00004902
  647      -16.4039298807      -0.0000000535     0.999997    0.00004892
  648      -16.4039299341      -0.0000000534     0.999997    0.00004883
  649      -16.4039299873      -0.0000000532     0.999997    0.00004874
  650      -16.4039300402      -0.0000000530     0.999997    0.00004865
  651      -16.4039300931      -0.0000000528     0.999997    0.00004855
  652      -16.4039301457      -0.0000000526     0.999997    0.00004846
  653      -16.4039301981      -0.0000000524     0.999997    0.00004837
  654      -16.4039302504      -0.0000000523     0.999997    0.00004827
  655      -16.4039303025      -0.0000000521     0.999997    0.00004818
  656      -16.4039303544      -0.0000000519     0.999997    0.00004809
  657      -16.4039304061      -0.0000000517     0.999997    0.00004799
  658      -16.4039304576      -0.0000000515     0.999997    0.00004790
  659      -16.4039305089      -0.0000000513     0.999997    0.00004781
  660      -16.4039305601      -0.0000000512     0.999997    0.00004771
  661      -16.4039306111      -0.0000000510     0.999997    0.00004762
  662      -16.4039306619      -0.0000000508     0.999997    0.00004752
  663      -16.4039307125      -0.0000000506     0.999997    0.00004743
  664      -16.4039307629      -0.0000000504     0.999997    0.00004733
  665      -16.4039308132      -0.0000000502     0.999997    0.00004724
  666      -16.4039308633      -0.0000000501     0.999997    0.00004714
  667      -16.4039309131      -0.0000000499     0.999997    0.00004705
  668      -16.4039309628      -0.0000000497     0.999997    0.00004695
  669      -16.4039310124      -0.0000000495     0.999997    0.00004685
  670      -16.4039310617      -0.0000000493     0.999997    0.00004676
  671      -16.4039311108      -0.0000000492     0.999997    0.00004666
  672      -16.4039311598      -0.0000000490     0.999997    0.00004657
  673      -16.4039312086      -0.0000000488     0.999997    0.00004647
  674      -16.4039312572      -0.0000000486     0.999997    0.00004637
  675      -16.4039313056      -0.0000000484     0.999997    0.00004628
  676      -16.4039313539      -0.0000000482     0.999997    0.00004618
  677      -16.4039314019      -0.0000000481     0.999997    0.00004608
  678      -16.4039314498      -0.0000000479     0.999997    0.00004599
  679      -16.4039314975      -0.0000000477     0.999997    0.00004589
  680      -16.4039315450      -0.0000000475     0.999997    0.00004579
  681      -16.4039315923      -0.0000000473     0.999997    0.00004570
  682      -16.4039316395      -0.0000000471     0.999997    0.00004560
  683      -16.4039316864      -0.0000000470     0.999997    0.00004550
  684      -16.4039317332      -0.0000000468     0.999997    0.00004540
  685      -16.4039317798      -0.0000000466     0.999997    0.00004531
  686      -16.4039318262      -0.0000000464     0.999997    0.00004521
  687      -16.4039318724      -0.0000000462     0.999997    0.00004511
  688      -16.4039319185      -0.0000000461     0.999997    0.00004501
  689      -16.4039319644      -0.0000000459     0.999997    0.00004491
  690      -16.4039320101      -0.0000000457     0.999997    0.00004482
  691      -16.4039320556      -0.0000000455     0.999997    0.00004472
  692      -16.4039321009      -0.0000000453     0.999997    0.00004462
  693      -16.4039321460      -0.0000000451     0.999997    0.00004452
  694      -16.4039321910      -0.0000000450     0.999997    0.00004442
  695      -16.4039322358      -0.0000000448     0.999997    0.00004432
  696      -16.4039322804      -0.0000000446     0.999997    0.00004423
  697      -16.4039323248      -0.0000000444     0.999997    0.00004413
  698      -16.4039323690      -0.0000000442     0.999997    0.00004403
  699      -16.4039324131      -0.0000000441     0.999997    0.00004393
  700      -16.4039324570      -0.0000000439     0.999997    0.00004383
  701      -16.4039325007      -0.0000000437     0.999997    0.00004373
  702      -16.4039325442      -0.0000000435     0.999997    0.00004363
  703      -16.4039325875      -0.0000000433     0.999997    0.00004353
  704      -16.4039326307      -0.0000000432     0.999997    0.00004343
  705      -16.4039326737      -0.0000000430     0.999997    0.00004333
  706      -16.4039327165      -0.0000000428     0.999997    0.00004323
  707      -16.4039327591      -0.0000000426     0.999997    0.00004313
  708      -16.4039328016      -0.0000000424     0.999997    0.00004303
  709      -16.4039328438      -0.0000000423     0.999997    0.00004294
  710      -16.4039328859      -0.0000000421     0.999997    0.00004284
  711      -16.4039329278      -0.0000000419     0.999997    0.00004274
  712      -16.4039329696      -0.0000000417     0.999997    0.00004264
  713      -16.4039330111      -0.0000000416     0.999997    0.00004254
  714      -16.4039330525      -0.0000000414     0.999997    0.00004244
  715      -16.4039330937      -0.0000000412     0.999997    0.00004234
  716      -16.4039331347      -0.0000000410     0.999997    0.00004224
  717      -16.4039331756      -0.0000000408     0.999997    0.00004214
  718      -16.4039332162      -0.0000000407     0.999997    0.00004204
  719      -16.4039332567      -0.0000000405     0.999997    0.00004194
  720      -16.4039332971      -0.0000000403     0.999997    0.00004184
  721      -16.4039333372      -0.0000000401     0.999997    0.00004174
  722      -16.4039333772      -0.0000000400     0.999997    0.00004164
  723      -16.4039334170      -0.0000000398     0.999997    0.00004154
  724      -16.4039334566      -0.0000000396     0.999997    0.00004144
  725      -16.4039334960      -0.0000000394     0.999997    0.00004134
  726      -16.4039335353      -0.0000000393     0.999997    0.00004123
  727      -16.4039335744      -0.0000000391     0.999997    0.00004113
  728      -16.4039336133      -0.0000000389     0.999997    0.00004103
  729      -16.4039336521      -0.0000000387     0.999997    0.00004093
  730      -16.4039336906      -0.0000000386     0.999997    0.00004083
  731      -16.4039337290      -0.0000000384     0.999997    0.00004073
  732      -16.4039337673      -0.0000000382     0.999997    0.00004063
  733      -16.4039338053      -0.0000000381     0.999997    0.00004053
  734      -16.4039338432      -0.0000000379     0.999997    0.00004043
  735      -16.4039338809      -0.0000000377     0.999997    0.00004033
  736      -16.4039339185      -0.0000000375     0.999997    0.00004023
  737      -16.4039339558      -0.0000000374     0.999997    0.00004013
  738      -16.4039339930      -0.0000000372     0.999997    0.00004003
  739      -16.4039340301      -0.0000000370     0.999997    0.00003993
  740      -16.4039340669      -0.0000000369     0.999997    0.00003983
  741      -16.4039341036      -0.0000000367     0.999997    0.00003973
  742      -16.4039341401      -0.0000000365     0.999997    0.00003963
  743      -16.4039341765      -0.0000000364     0.999997    0.00003953
  744      -16.4039342127      -0.0000000362     0.999997    0.00003943
  745      -16.4039342487      -0.0000000360     0.999997    0.00003933
  746      -16.4039342845      -0.0000000358     0.999997    0.00003923
  747      -16.4039343202      -0.0000000357     0.999997    0.00003913
  748      -16.4039343557      -0.0000000355     0.999997    0.00003903
  749      -16.4039343911      -0.0000000353     0.999997    0.00003893
  750      -16.4039344263      -0.0000000352     0.999997    0.00003883
  751      -16.4039344613      -0.0000000350     0.999997    0.00003872
  752      -16.4039344961      -0.0000000348     0.999997    0.00003862
  753      -16.4039345308      -0.0000000347     0.999997    0.00003852
  754      -16.4039345653      -0.0000000345     0.999997    0.00003842
  755      -16.4039345997      -0.0000000344     0.999997    0.00003832
  756      -16.4039346339      -0.0000000342     0.999997    0.00003822
  757      -16.4039346679      -0.0000000340     0.999997    0.00003812
  758      -16.4039347017      -0.0000000339     0.999997    0.00003802
  759      -16.4039347354      -0.0000000337     0.999997    0.00003792
  760      -16.4039347690      -0.0000000335     0.999997    0.00003782
  761      -16.4039348023      -0.0000000334     0.999997    0.00003772
  762      -16.4039348355      -0.0000000332     0.999997    0.00003762
  763      -16.4039348686      -0.0000000330     0.999997    0.00003752
  764      -16.4039349015      -0.0000000329     0.999997    0.00003742
  765      -16.4039349342      -0.0000000327     0.999997    0.00003732
  766      -16.4039349668      -0.0000000326     0.999997    0.00003722
  767      -16.4039349992      -0.0000000324     0.999997    0.00003712
  768      -16.4039350314      -0.0000000322     0.999997    0.00003702
  769      -16.4039350635      -0.0000000321     0.999997    0.00003692
  770      -16.4039350954      -0.0000000319     0.999997    0.00003683
  771      -16.4039351272      -0.0000000318     0.999997    0.00003673
  772      -16.4039351588      -0.0000000316     0.999997    0.00003663
  773      -16.4039351902      -0.0000000315     0.999997    0.00003653
  774      -16.4039352215      -0.0000000313     0.999997    0.00003643
  775      -16.4039352527      -0.0000000311     0.999997    0.00003633
  776      -16.4039352836      -0.0000000310     0.999997    0.00003623
  777      -16.4039353145      -0.0000000308     0.999997    0.00003613
  778      -16.4039353451      -0.0000000307     0.999997    0.00003603
  779      -16.4039353757      -0.0000000305     0.999997    0.00003593
  780      -16.4039354060      -0.0000000304     0.999997    0.00003583
  781      -16.4039354362      -0.0000000302     0.999997    0.00003573
  782      -16.4039354663      -0.0000000301     0.999997    0.00003563
  783      -16.4039354962      -0.0000000299     0.999997    0.00003554
  784      -16.4039355259      -0.0000000297     0.999997    0.00003544
  785      -16.4039355555      -0.0000000296     0.999997    0.00003534
  786      -16.4039355849      -0.0000000294     0.999997    0.00003524
  787      -16.4039356142      -0.0000000293     0.999997    0.00003514
  788      -16.4039356434      -0.0000000291     0.999997    0.00003504
  789      -16.4039356724      -0.0000000290     0.999997    0.00003494
  790      -16.4039357012      -0.0000000288     0.999997    0.00003485
  791      -16.4039357299      -0.0000000287     0.999997    0.00003475
  792      -16.4039357584      -0.0000000285     0.999997    0.00003465
  793      -16.4039357868      -0.0000000284     0.999997    0.00003455
  794      -16.4039358151      -0.0000000282     0.999997    0.00003445
  795      -16.4039358431      -0.0000000281     0.999997    0.00003436
  796      -16.4039358711      -0.0000000279     0.999997    0.00003426
  797      -16.4039358989      -0.0000000278     0.999997    0.00003416
  798      -16.4039359265      -0.0000000277     0.999997    0.00003406
  799      -16.4039359540      -0.0000000275     0.999997    0.00003397
  800      -16.4039359814      -0.0000000274     0.999997    0.00003387
  801      -16.4039360086      -0.0000000272     0.999997    0.00003377
  802      -16.4039360357      -0.0000000271     0.999997    0.00003367
  803      -16.4039360626      -0.0000000269     0.999997    0.00003358
  804      -16.4039360894      -0.0000000268     0.999997    0.00003348
  805      -16.4039361160      -0.0000000266     0.999997    0.00003338
  806      -16.4039361425      -0.0000000265     0.999997    0.00003329
  807      -16.4039361689      -0.0000000264     0.999997    0.00003319
  808      -16.4039361951      -0.0000000262     0.999997    0.00003309
  809      -16.4039362212      -0.0000000261     0.999997    0.00003300
  810      -16.4039362471      -0.0000000259     0.999997    0.00003290
  811      -16.4039362729      -0.0000000258     0.999997    0.00003281
  812      -16.4039362986      -0.0000000257     0.999997    0.00003271
  813      -16.4039363241      -0.0000000255     0.999997    0.00003261
  814      -16.4039363494      -0.0000000254     0.999997    0.00003252
  815      -16.4039363747      -0.0000000252     0.999997    0.00003242
  816      -16.4039363998      -0.0000000251     0.999997    0.00003233
  817      -16.4039364247      -0.0000000250     0.999997    0.00003223
  818      -16.4039364496      -0.0000000248     0.999997    0.00003214
  819      -16.4039364742      -0.0000000247     0.999997    0.00003204
  820      -16.4039364988      -0.0000000246     0.999997    0.00003195
  821      -16.4039365232      -0.0000000244     0.999997    0.00003185
  822      -16.4039365475      -0.0000000243     0.999997    0.00003176
  823      -16.4039365716      -0.0000000241     0.999997    0.00003166
  824      -16.4039365956      -0.0000000240     0.999997    0.00003157
  825      -16.4039366195      -0.0000000239     0.999997    0.00003147
  826      -16.4039366433      -0.0000000237     0.999997    0.00003138
  827      -16.4039366669      -0.0000000236     0.999997    0.00003128
  828      -16.4039366904      -0.0000000235     0.999997    0.00003119
  829      -16.4039367137      -0.0000000233     0.999997    0.00003109
  830      -16.4039367369      -0.0000000232     0.999997    0.00003100
  831      -16.4039367600      -0.0000000231     0.999997    0.00003091
  832      -16.4039367830      -0.0000000230     0.999997    0.00003081
  833      -16.4039368058      -0.0000000228     0.999997    0.00003072
  834      -16.4039368285      -0.0000000227     0.999997    0.00003063
  835      -16.4039368511      -0.0000000226     0.999997    0.00003053
  836      -16.4039368735      -0.0000000224     0.999997    0.00003044
  837      -16.4039368958      -0.0000000223     0.999997    0.00003035
  838      -16.4039369180      -0.0000000222     0.999997    0.00003025
  839      -16.4039369401      -0.0000000221     0.999997    0.00003016
  840      -16.4039369620      -0.0000000219     0.999997    0.00003007
  841      -16.4039369838      -0.0000000218     0.999997    0.00002998
  842      -16.4039370055      -0.0000000217     0.999997    0.00002988
  843      -16.4039370271      -0.0000000216     0.999997    0.00002979
  844      -16.4039370485      -0.0000000214     0.999997    0.00002970
  845      -16.4039370698      -0.0000000213     0.999997    0.00002961
  846      -16.4039370910      -0.0000000212     0.999997    0.00002952
  847      -16.4039371121      -0.0000000211     0.999997    0.00002943
  848      -16.4039371330      -0.0000000209     0.999997    0.00002933
  849      -16.4039371539      -0.0000000208     0.999997    0.00002924
  850      -16.4039371746      -0.0000000207     0.999997    0.00002915
  851      -16.4039371951      -0.0000000206     0.999997    0.00002906
  852      -16.4039372156      -0.0000000205     0.999997    0.00002897
  853      -16.4039372360      -0.0000000203     0.999997    0.00002888
  854      -16.4039372562      -0.0000000202     0.999997    0.00002879
  855      -16.4039372763      -0.0000000201     0.999997    0.00002870
  856      -16.4039372963      -0.0000000200     0.999997    0.00002861
  857      -16.4039373162      -0.0000000199     0.999997    0.00002852
  858      -16.4039373359      -0.0000000198     0.999997    0.00002843
  859      -16.4039373555      -0.0000000196     0.999997    0.00002834
  860      -16.4039373751      -0.0000000195     0.999997    0.00002825
  861      -16.4039373945      -0.0000000194     0.999997    0.00002816
  862      -16.4039374138      -0.0000000193     0.999997    0.00002807
  863      -16.4039374329      -0.0000000192     0.999997    0.00002798
  864      -16.4039374520      -0.0000000191     0.999997    0.00002789
  865      -16.4039374710      -0.0000000190     0.999998    0.00002780
  866      -16.4039374898      -0.0000000188     0.999998    0.00002772
  867      -16.4039375085      -0.0000000187     0.999998    0.00002763
  868      -16.4039375271      -0.0000000186     0.999998    0.00002754
  869      -16.4039375456      -0.0000000185     0.999998    0.00002745
  870      -16.4039375640      -0.0000000184     0.999998    0.00002736
  871      -16.4039375823      -0.0000000183     0.999998    0.00002728
  872      -16.4039376005      -0.0000000182     0.999998    0.00002719
  873      -16.4039376185      -0.0000000181     0.999998    0.00002710
  874      -16.4039376365      -0.0000000180     0.999998    0.00002701
  875      -16.4039376543      -0.0000000178     0.999998    0.00002693
  876      -16.4039376721      -0.0000000177     0.999998    0.00002684
  877      -16.4039376897      -0.0000000176     0.999998    0.00002675
  878      -16.4039377072      -0.0000000175     0.999998    0.00002667
  879      -16.4039377246      -0.0000000174     0.999998    0.00002658
  880      -16.4039377419      -0.0000000173     0.999998    0.00002649
  881      -16.4039377591      -0.0000000172     0.999998    0.00002641
  882      -16.4039377762      -0.0000000171     0.999998    0.00002632
  883      -16.4039377932      -0.0000000170     0.999998    0.00002624
  884      -16.4039378101      -0.0000000169     0.999998    0.00002615
  885      -16.4039378269      -0.0000000168     0.999998    0.00002607
  886      -16.4039378436      -0.0000000167     0.999998    0.00002598
  887      -16.4039378602      -0.0000000166     0.999998    0.00002589
  888      -16.4039378767      -0.0000000165     0.999998    0.00002581
  889      -16.4039378930      -0.0000000164     0.999998    0.00002573
  890      -16.4039379093      -0.0000000163     0.999998    0.00002564
  891      -16.4039379255      -0.0000000162     0.999998    0.00002556
  892      -16.4039379416      -0.0000000161     0.999998    0.00002547
  893      -16.4039379575      -0.0000000160     0.999998    0.00002539
  894      -16.4039379734      -0.0000000159     0.999998    0.00002530
  895      -16.4039379892      -0.0000000158     0.999998    0.00002522
  896      -16.4039380049      -0.0000000157     0.999998    0.00002514
  897      -16.4039380205      -0.0000000156     0.999998    0.00002505
  898      -16.4039380359      -0.0000000155     0.999998    0.00002497
  899      -16.4039380513      -0.0000000154     0.999998    0.00002489
  900      -16.4039380666      -0.0000000153     0.999998    0.00002481
  901      -16.4039380818      -0.0000000152     0.999998    0.00002472
  902      -16.4039380969      -0.0000000151     0.999998    0.00002464
  903      -16.4039381119      -0.0000000150     0.999998    0.00002456
  904      -16.4039381268      -0.0000000149     0.999998    0.00002448
  905      -16.4039381416      -0.0000000148     0.999998    0.00002439
  906      -16.4039381564      -0.0000000147     0.999998    0.00002431
  907      -16.4039381710      -0.0000000146     0.999998    0.00002423
  908      -16.4039381855      -0.0000000145     0.999998    0.00002415
  909      -16.4039382000      -0.0000000144     0.999998    0.00002407
  910      -16.4039382143      -0.0000000144     0.999998    0.00002399
  911      -16.4039382286      -0.0000000143     0.999998    0.00002391
  912      -16.4039382428      -0.0000000142     0.999998    0.00002383
  913      -16.4039382569      -0.0000000141     0.999998    0.00002375
  914      -16.4039382708      -0.0000000140     0.999998    0.00002367
  915      -16.4039382847      -0.0000000139     0.999998    0.00002359
  916      -16.4039382986      -0.0000000138     0.999998    0.00002351
  917      -16.4039383123      -0.0000000137     0.999998    0.00002343
  918      -16.4039383259      -0.0000000136     0.999998    0.00002335
  919      -16.4039383395      -0.0000000136     0.999998    0.00002327
  920      -16.4039383529      -0.0000000135     0.999998    0.00002319
  921      -16.4039383663      -0.0000000134     0.999998    0.00002311
  922      -16.4039383796      -0.0000000133     0.999998    0.00002303
  923      -16.4039383928      -0.0000000132     0.999998    0.00002295
  924      -16.4039384059      -0.0000000131     0.999998    0.00002287
  925      -16.4039384190      -0.0000000130     0.999998    0.00002280
  926      -16.4039384319      -0.0000000130     0.999998    0.00002272
  927      -16.4039384448      -0.0000000129     0.999998    0.00002264
  928      -16.4039384576      -0.0000000128     0.999998    0.00002256
  929      -16.4039384703      -0.0000000127     0.999998    0.00002249
  930      -16.4039384829      -0.0000000126     0.999998    0.00002241
  931      -16.4039384954      -0.0000000125     0.999998    0.00002233
  932      -16.4039385079      -0.0000000125     0.999998    0.00002225
  933      -16.4039385203      -0.0000000124     0.999998    0.00002218
  934      -16.4039385325      -0.0000000123     0.999998    0.00002210
  935      -16.4039385448      -0.0000000122     0.999998    0.00002203
  936      -16.4039385569      -0.0000000121     0.999998    0.00002195
  937      -16.4039385689      -0.0000000121     0.999998    0.00002187
  938      -16.4039385809      -0.0000000120     0.999998    0.00002180
  939      -16.4039385928      -0.0000000119     0.999998    0.00002172
  940      -16.4039386046      -0.0000000118     0.999998    0.00002165
  941      -16.4039386164      -0.0000000117     0.999998    0.00002157
  942      -16.4039386280      -0.0000000117     0.999998    0.00002150
  943      -16.4039386396      -0.0000000116     0.999998    0.00002142
  944      -16.4039386511      -0.0000000115     0.999998    0.00002135
  945      -16.4039386626      -0.0000000114     0.999998    0.00002127
  946      -16.4039386739      -0.0000000114     0.999998    0.00002120
  947      -16.4039386852      -0.0000000113     0.999998    0.00002112
  948      -16.4039386964      -0.0000000112     0.999998    0.00002105
  949      -16.4039387075      -0.0000000111     0.999998    0.00002098
  950      -16.4039387186      -0.0000000111     0.999998    0.00002090
  951      -16.4039387296      -0.0000000110     0.999998    0.00002083
  952      -16.4039387405      -0.0000000109     0.999998    0.00002076
  953      -16.4039387513      -0.0000000108     0.999998    0.00002068
  954      -16.4039387621      -0.0000000108     0.999998    0.00002061
  955      -16.4039387728      -0.0000000107     0.999998    0.00002054
  956      -16.4039387834      -0.0000000106     0.999998    0.00002047
  957      -16.4039387940      -0.0000000106     0.999998    0.00002040
  958      -16.4039388044      -0.0000000105     0.999998    0.00002032
  959      -16.4039388149      -0.0000000104     0.999998    0.00002025
  960      -16.4039388252      -0.0000000103     0.999998    0.00002018
  961      -16.4039388355      -0.0000000103     0.999998    0.00002011
  962      -16.4039388457      -0.0000000102     0.999998    0.00002004
  963      -16.4039388558      -0.0000000101     0.999998    0.00001997
  964      -16.4039388659      -0.0000000101     0.999998    0.00001990
  965      -16.4039388759      -0.0000000100     0.999998    0.00001983
  966      -16.4039388858      -0.0000000099     0.999998    0.00001976
  967      -16.4039388957      -0.0000000099     0.999998    0.00001968
  968      -16.4039389055      -0.0000000098     0.999998    0.00001961
  969      -16.4039389152      -0.0000000097     0.999998    0.00001955
  970      -16.4039389249      -0.0000000097     0.999998    0.00001948
  971      -16.4039389344      -0.0000000096     0.999998    0.00001941
  972      -16.4039389440      -0.0000000095     0.999998    0.00001934
  973      -16.4039389534      -0.0000000095     0.999998    0.00001927
  974      -16.4039389629      -0.0000000094     0.999998    0.00001920
  975      -16.4039389722      -0.0000000093     0.999998    0.00001913
  976      -16.4039389815      -0.0000000093     0.999998    0.00001906
  977      -16.4039389907      -0.0000000092     0.999998    0.00001899
  978      -16.4039389998      -0.0000000091     0.999998    0.00001893
  979      -16.4039390089      -0.0000000091     0.999998    0.00001886
  980      -16.4039390179      -0.0000000090     0.999998    0.00001879
  981      -16.4039390269      -0.0000000090     0.999998    0.00001872
  982      -16.4039390358      -0.0000000089     0.999998    0.00001866
  983      -16.4039390446      -0.0000000088     0.999998    0.00001859
  984      -16.4039390534      -0.0000000088     0.999998    0.00001852
  985      -16.4039390621      -0.0000000087     0.999998    0.00001845
  986      -16.4039390708      -0.0000000087     0.999998    0.00001839
  987      -16.4039390794      -0.0000000086     0.999998    0.00001832
  988      -16.4039390879      -0.0000000085     0.999998    0.00001826
  989      -16.4039390964      -0.0000000085     0.999998    0.00001819
  990      -16.4039391048      -0.0000000084     0.999998    0.00001812
  991      -16.4039391132      -0.0000000084     0.999998    0.00001806
  992      -16.4039391215      -0.0000000083     0.999998    0.00001799
  993      -16.4039391298      -0.0000000082     0.999998    0.00001793
  994      -16.4039391379      -0.0000000082     0.999998    0.00001786
  995      -16.4039391461      -0.0000000081     0.999998    0.00001780
  996      -16.4039391542      -0.0000000081     0.999998    0.00001773
  997      -16.4039391622      -0.0000000080     0.999998    0.00001767
  998      -16.4039391701      -0.0000000080     0.999998    0.00001760
  999      -16.4039391781      -0.0000000079     0.999998    0.00001754
 1000      -16.4039391859      -0.0000000079     0.999998    0.00001748

Total Energy:                      -16.4039391859 H         -446.3739 eV
Extrapolated to 0:                 -16.3680134124 H         -445.3963 eV

----------------------------------------------------------------------------------
 Solving CP-REKS equation for  1 state vector...
----------------------------------------------------------------------------------
  CG solver: Constructing Y initial guess
  CG solver: Iteration    1    eps =    0.021464314097
  CG solver: Iteration    2    eps =    0.052619343907
  CG solver: Iteration    3    eps =    0.087362688180
  CG solver: Iteration    4    eps =    0.102783193417
  CG solver: Iteration    5    eps =    0.448399015306
  CG solver: Iteration    6    eps =    0.217612993880
  CG solver: Iteration    7    eps =    0.045104107577
  CG solver: Iteration    8    eps =    0.007531907926
  CG solver: Iteration    9    eps =    0.000661220265
  CG solver: Iteration   10    eps =    0.000125771298
  CG solver: Iteration   11    eps =    0.000022024746
  CG solver: Iteration   12    eps =    0.000004667594
  CG solver: Iteration   13    eps =    0.000001399299
  CG solver: Iteration   14    eps =    0.000000236745
  CG solver: Iteration   15    eps =    0.000000038860
  CG solver: Iteration   16    eps =    0.000000015881
  CG solver: Iteration   17    eps =    0.000000001800
  Convergence reached in CG solver after   17 iterations
  CG solver: Calculating converged R, Z, Q2 matrix
----------------------------------------------------------------------------------

----------------------------------------------------------------------------------
 Solving CP-REKS equation for SI between  1 and  2 state vectors...
----------------------------------------------------------------------------------
  CG solver: Constructing Y initial guess
  CG solver: Iteration    1    eps =    0.058467160317
  CG solver: Iteration    2    eps =    0.002898722735
  CG solver: Iteration    3    eps =    0.003842341547
  CG solver: Iteration    4    eps =    0.012912889586
  CG solver: Iteration    5    eps =    0.008931759151
  CG solver: Iteration    6    eps =    0.036140616628
  CG solver: Iteration    7    eps =    0.027230846954
  CG solver: Iteration    8    eps =    0.004876310308
  CG solver: Iteration    9    eps =    0.000883308923
  CG solver: Iteration   10    eps =    0.000242801473
  CG solver: Iteration   11    eps =    0.000010763441
  CG solver: Iteration   12    eps =    0.000001513911
  CG solver: Iteration   13    eps =    0.000000315330
  CG solver: Iteration   14    eps =    0.000000057797
  CG solver: Iteration   15    eps =    0.000000006756
  Convergence reached in CG solver after   15 iterations
  CG solver: Calculating converged R, Z, Q2 matrix
----------------------------------------------------------------------------------

--------------------------------------------------
 Gradient Information
--------------------------------------------------
           1 st state (SSR)
     0.00000000     0.00000000     0.00000000
     0.00000000     0.00000000     0.00000000
     0.00000000     0.00000000     0.00000000
     0.00000000     0.00000000     0.00000000
     0.00000000     0.00000000     0.00000000
     0.00000000     0.00000000     0.00000000
     0.00000000     0.00000000     0.00000000
     0.00000000     0.00000000     0.00000000
     0.00000000     0.00000000     0.00000000
     0.00000000     0.00000000     0.00000000
     0.00000000     0.00000000     0.00000000
     0.00000000     0.00000000     0.00000000
     0.00000000     0.00000000     0.00000000
     0.00000000     0.00000000     0.00000000

           2 st state (SSR)
     0.00000000     0.00000000     0.00000000
     0.00000000     0.00000000     0.00000000
     0.00000000     0.00000000     0.00000000
     0.00000000     0.00000000     0.00000000
     0.00000000     0.00000000     0.00000000
     0.00000000     0.00000000     0.00000000
     0.00000000     0.00000000     0.00000000
     0.00000000     0.00000000     0.00000000
     0.00000000     0.00000000     0.00000000
     0.00000000     0.00000000     0.00000000
     0.00000000     0.00000000     0.00000000
     0.00000000     0.00000000     0.00000000
     0.00000000     0.00000000     0.00000000
     0.00000000     0.00000000     0.00000000
--------------------------------------------------
 Coupling Information
--------------------------------------------------
 between  1 and  2 states
--------------------------------------------------
 g vector - difference gradient
    -1.73733625    -0.33949621    -0.16645117
     2.39392817    -0.32663608    -0.68026383
     0.26785394    -0.01307742     0.58189570
    -0.03060432     0.10472112    -0.38127962
    -0.09680833     0.05658247     0.76699098
    -1.23979284     0.27529643    -0.92667679
     0.36515692    -0.06990518     0.10889897
    -0.16978214     0.12988588     0.33240192
    -0.09820135     0.19062339     0.45327584
     0.06534319    -0.11877482    -0.06731129
    -0.00225616     0.11960123     0.01933050
     0.22213443     0.03074879    -0.03344138
     0.01119612     0.01773068     0.00625898
     0.04916863    -0.05730028    -0.01362880

 h vector - derivative coupling
    -0.60150607    -0.11286363    -0.03689197
     0.87404237    -0.07547056    -0.26265281
     0.07771543    -0.00771189     0.20203590
     0.00531604     0.04622554    -0.12729510
    -0.09061726     0.01251555     0.24961057
    -0.43479526     0.07115949    -0.27332652
     0.11302424    -0.03187394     0.08824798
    -0.05702510     0.06937105     0.14500227
    -0.01779629     0.04088281     0.12129646
     0.06368646    -0.01389138    -0.11010803
    -0.00791279     0.00382573    -0.00048157
     0.04818206    -0.00165310     0.00446872
     0.01559370     0.00790004     0.05378102
     0.01209247    -0.00841570    -0.05368691

 G vector - GDV
     0.00000000     0.00000000     0.00000000
     0.00000000     0.00000000     0.00000000
     0.00000000     0.00000000     0.00000000
     0.00000000     0.00000000     0.00000000
     0.00000000     0.00000000     0.00000000
     0.00000000     0.00000000     0.00000000
     0.00000000     0.00000000     0.00000000
     0.00000000     0.00000000     0.00000000
     0.00000000     0.00000000     0.00000000
     0.00000000     0.00000000     0.00000000
     0.00000000     0.00000000     0.00000000
     0.00000000     0.00000000     0.00000000
     0.00000000     0.00000000     0.00000000
     0.00000000     0.00000000     0.00000000

 H vector - DCV - non-adiabatic coupling
     0.00000000     0.00000000     0.00000000
     0.00000000     0.00000000     0.00000000
     0.00000000     0.00000000     0.00000000
     0.00000000     0.00000000     0.00000000
     0.00000000     0.00000000     0.00000000
     0.00000000     0.00000000     0.00000000
     0.00000000     0.00000000     0.00000000
     0.00000000     0.00000000     0.00000000
     0.00000000     0.00000000     0.00000000
     0.00000000     0.00000000     0.00000000
     0.00000000     0.00000000     0.00000000
     0.00000000     0.00000000     0.00000000
     0.00000000     0.00000000     0.00000000
     0.00000000     0.00000000     0.00000000
--------------------------------------------------

WARNING!
-> SCC is NOT converged, maximal SCC iterations exceeded

--------------------------------------------------------------------------------
DFTB+ running times                          cpu [s]             wall clock [s]
--------------------------------------------------------------------------------
SCC                                    +     1.38  ( 77.6%)      1.38  ( 77.5%)
      Sparse to dense                        0.07  (  3.9%)      0.07  (  3.7%)
      Dense to sparse                        0.24  ( 13.7%)      0.25  ( 14.1%)
      Range separated Hamiltonian            0.12  (  7.0%)      0.13  (  7.0%)
  Density matrix creation                    0.15  (  8.5%)      0.15  (  8.2%)
  Force calculation                          0.40  ( 22.3%)      0.40  ( 22.2%)
--------------------------------------------------------------------------------
Missing                                +     0.40  ( 22.4%)      0.40  ( 22.5%)
Total                                  =     1.77  (100.0%)      1.78  (100.0%)
--------------------------------------------------------------------------------
