     6
  Step:     0            Position(A)                                  Velocity(au)
C        -0.03883492     0.02663635     0.02278660     0.00004456     0.00003563    -0.00043498
N        -0.03138083    -0.06024789     1.29672142    -0.00015438     0.00010368     0.00031261
H         0.90531808    -0.05943713    -0.53420370    -0.00046147    -0.00005464     0.00058477
H         0.79122441    -0.14585158     1.85913434     0.00082372    -0.00091969     0.00069174
H        -0.99040243     0.00761013     1.80151633     0.00138590    -0.00051780    -0.00043155
H        -1.02024013     0.04772619    -0.52562927    -0.00013375    -0.00037324    -0.00000586
     6
  Step:     1            Position(A)                                  Velocity(au)
C        -0.03859863     0.02688548     0.02003940     0.00004106     0.00005517    -0.00056814
N        -0.03229847    -0.05967639     1.29873627    -0.00017878     0.00010509     0.00042346
H         0.90292655    -0.05991287    -0.53100838    -0.00041007    -0.00011878     0.00057680
H         0.79620770    -0.15108192     1.86314114     0.00098078    -0.00099004     0.00076434
H        -0.98237291     0.00460971     1.79897727     0.00153473    -0.00057775    -0.00048727
H        -1.02092478     0.04552220    -0.52555571    -0.00011020    -0.00043127     0.00003160
     6
  Step:     2            Position(A)                                  Velocity(au)
C        -0.03838561     0.02724011     0.01656900     0.00003607     0.00007380    -0.00069657
N        -0.03333738    -0.05909776     1.30135565    -0.00019793     0.00010590     0.00053136
H         0.90083037    -0.06073700    -0.52789133    -0.00035202    -0.00018067     0.00055484
H         0.80195787    -0.15668643     1.86749911     0.00110039    -0.00105243     0.00081719
H        -0.97360669     0.00128734     1.79618372     0.00164791    -0.00063287    -0.00052166
H        -1.02144609     0.04300641    -0.52528350    -0.00007552    -0.00048503     0.00006597
     6
  Step:     3            Position(A)                                  Velocity(au)
C        -0.03820343     0.02769415     0.01240642     0.00002979     0.00009099    -0.00081662
N        -0.03446734    -0.05851597     1.30455892    -0.00021098     0.00010580     0.00063322
H         0.89906919    -0.06189265    -0.52492845    -0.00028578    -0.00023860     0.00051885
H         0.80826566    -0.16261438     1.87209587     0.00117976    -0.00110314     0.00084775
H        -0.96431516    -0.00232524     1.79326091     0.00171665    -0.00068055    -0.00053105
H        -1.02175237     0.04020731    -0.52483277    -0.00003373    -0.00053222     0.00009586
     6
  Step:     4            Position(A)                                  Velocity(au)
C        -0.03805852     0.02823914     0.00760313     0.00002248     0.00010635    -0.00092435
N        -0.03565376    -0.05793619     1.30830793    -0.00021720     0.00010465     0.00072561
H         0.89769277    -0.06335661    -0.52219471    -0.00021005    -0.00029166     0.00046939
H         0.81491068    -0.16879805     1.87680674     0.00121751    -0.00113953     0.00085433
H        -0.95475917    -0.00618456     1.79035326     0.00173251    -0.00071904    -0.00051243
H        -1.02181645     0.03716307    -0.52423100     0.00001062    -0.00057139     0.00011992
     6
  Step:     5            Position(A)                                  Velocity(au)
C        -0.03795601     0.02886485     0.00223138     0.00001440     0.00011959    -0.00101612
N        -0.03685828    -0.05736398     1.31254633    -0.00021610     0.00010245     0.00080532
H         0.89675696    -0.06510318    -0.51976155    -0.00012462    -0.00033948     0.00040758
H         0.82166770    -0.17515811     1.88150012     0.00121380    -0.00116000     0.00083657
H        -0.94524408    -0.01024024     1.78762017     0.00168895    -0.00074744    -0.00046394
H        -1.02163548     0.03391756    -0.52351274     0.00005330    -0.00060176     0.00013691
     6
  Step:     6            Position(A)                                  Velocity(au)
C        -0.03789952     0.02955976    -0.00361800     0.00000588     0.00013051    -0.00108908
N        -0.03804013    -0.05680486     1.31720118    -0.00020750     0.00009925     0.00086973
H         0.89631663    -0.06710553    -0.51769379    -0.00003057    -0.00038188     0.00033520
H         0.82831490    -0.18160806     1.88604510     0.00117067    -0.00116388     0.00079568
H        -0.93610787    -0.01443862     1.78522985     0.00158266    -0.00076559    -0.00038524
H        -1.02122788     0.03051778    -0.52271905     0.00009074    -0.00062302     0.00014585
     6
  Step:     7            Position(A)                                  Velocity(au)
C        -0.03789087     0.03031138    -0.00983997    -0.00000273     0.00013902    -0.00114161
N        -0.03915819    -0.05626389     1.32218637    -0.00019172     0.00009521     0.00091724
H         0.89641813    -0.06933592    -0.51604616     0.00006975    -0.00041880     0.00025468
H         0.83464342    -0.18805858     1.89031943     0.00109212    -0.00115158     0.00073437
H        -0.92770193    -0.01872600     1.78335018     0.00141470    -0.00077405    -0.00027795
H        -1.02062966     0.02701202    -0.52189611     0.00012020    -0.00063535     0.00014612
     6
  Step:     8            Position(A)                                  Velocity(au)
C        -0.03792986     0.03110680    -0.01632177    -0.00001104     0.00014520    -0.00117368
N        -0.04017358    -0.05574532     1.32740814    -0.00016958     0.00009056     0.00094761
H         0.89709282    -0.07176588    -0.51485979     0.00017320    -0.00045037     0.00016886
H         0.84046793    -0.19442272     1.89421710     0.00098406    -0.00112463     0.00065665
H        -0.92036526    -0.02305214     1.78213688     0.00119114    -0.00077414    -0.00014586
H        -1.01989035     0.02344762    -0.52109304     0.00013976    -0.00063949     0.00013758
     6
  Step:     9            Position(A)                                  Velocity(au)
C        -0.03801420     0.03193343    -0.02295160    -0.00001872     0.00014926    -0.00118702
N        -0.04105265    -0.05525223     1.33277254    -0.00014237     0.00008556     0.00096215
H         0.89835297    -0.07436716    -0.51415974     0.00027637    -0.00047706     0.00008076
H         0.84563679    -0.20062226     1.89765510     0.00085386    -0.00108578     0.00056741
H        -0.91439525    -0.02737425     1.78172067     0.00092275    -0.00076797     0.00000533
H        -1.01906836     0.01986808    -0.52035915     0.00014846    -0.00063676     0.00012062
     6
  Step:    10            Position(A)                                  Velocity(au)
C        -0.03813966     0.03277995    -0.02962808    -0.00002548     0.00015160    -0.00118491
N        -0.04176950    -0.05478619     1.33819377    -0.00011166     0.00008054     0.00096353
H         0.90019091    -0.07711362    -0.51395443     0.00037625    -0.00049973    -0.00000690
H         0.85003959    -0.20659415     1.90057766     0.00070943    -0.00103867     0.00047178
H        -0.91002132    -0.03166096     1.78219668     0.00062346    -0.00075819     0.00016893
H        -1.01822610     0.01630965    -0.51974096     0.00014617    -0.00062905     0.00009600
     6
  Step:    11            Position(A)                                  Velocity(au)
C        -0.03830052     0.03363716    -0.03626828    -0.00003113     0.00015271    -0.00117155
N        -0.04230755    -0.05434709     1.34360130    -0.00007910     0.00007580     0.00095528
H         0.90258149    -0.07998345    -0.51423724     0.00047058    -0.00051959    -0.00009201
H         0.85360973    -0.21229543     1.90295720     0.00055817    -0.00098730     0.00037444
H        -0.90738846    -0.03589524     1.78361923     0.00030809    -0.00074769     0.00033821
H        -1.01742559     0.01279849    -0.51928029     0.00013339    -0.00061850     0.00006465
     6
  Step:    12            Position(A)                                  Velocity(au)
C        -0.03849005     0.03449854    -0.04281257    -0.00003559     0.00015310    -0.00115118
N        -0.04265966    -0.05393315     1.34894441    -0.00004615     0.00007160     0.00094104
H         0.90548674    -0.08296107    -0.51498993     0.00055790    -0.00053791    -0.00017319
H         0.85632118    -0.21770508     1.90479150     0.00040613    -0.00093528     0.00027907
H        -0.90655416    -0.04007531     1.78600281    -0.00000964    -0.00073902     0.00050719
H        -1.01672498     0.00934908    -0.51901337     0.00011097    -0.00060716     0.00002749
     6
  Step:    13            Position(A)                                  Velocity(au)
C        -0.03870104     0.03536031    -0.04922475    -0.00003879     0.00015318    -0.00112725
N        -0.04282693    -0.05354125     1.35419259    -0.00001400     0.00006810     0.00092380
H         0.90886054    -0.08603762    -0.51618644     0.00063718    -0.00055573    -0.00024952
H         0.85818062    -0.22282196     1.90609808     0.00025765    -0.00088531     0.00018823
H        -0.90749690    -0.04421280     1.78932763    -0.00031801    -0.00073402     0.00067086
H        -1.01617662     0.00596493    -0.51897092     0.00007991    -0.00059657    -0.00001473
     6
  Step:    14            Position(A)                                  Velocity(au)
C        -0.03892616     0.03622088    -0.05548747    -0.00004071     0.00015318    -0.00110188
N        -0.04281706    -0.05316743     1.35933177     0.00001640     0.00006537     0.00090553
H         0.91265131    -0.08920975    -0.51779556     0.00070750    -0.00057360    -0.00032045
H         0.85921818    -0.22765956     1.90690792     0.00011573    -0.00083889     0.00010355
H        -0.91012985    -0.04832867     1.79354604    -0.00060721    -0.00073355     0.00082480
H        -1.01582641     0.00264123    -0.51917904     0.00004121    -0.00058757    -0.00006138
     6
  Step:    15            Position(A)                                  Velocity(au)
C        -0.03915803     0.03707993    -0.06159500    -0.00004133     0.00015318    -0.00107596
N        -0.04264284    -0.05280742     1.36435849     0.00004425     0.00006338     0.00088711
H         0.91680331    -0.09247709    -0.51978398     0.00076774    -0.00059154    -0.00038558
H         0.85947983    -0.23223979     1.90726053    -0.00001739    -0.00079662     0.00002616
H        -0.91431371    -0.05244797     1.79858719    -0.00086872    -0.00073757     0.00096485
H        -1.01571398    -0.00063141    -0.51965999    -0.00000412    -0.00058038    -0.00011183
     6
  Step:    16            Position(A)                                  Velocity(au)
C        -0.03938931     0.03793760    -0.06754626    -0.00004063     0.00015314    -0.00104950
N        -0.04232109    -0.05245705     1.36927402     0.00006887     0.00006210     0.00086869
H         0.92125569    -0.09583934    -0.52211697     0.00081654    -0.00060914    -0.00044445
H         0.85902325    -0.23658764     1.90720109    -0.00013967    -0.00075848    -0.00004296
H        -0.91986592    -0.05659488     1.80435957    -0.00109495    -0.00074534     0.00108707
H        -1.01587254    -0.00386334    -0.52043238    -0.00005488    -0.00057475    -0.00016536
     6
  Step:    17            Position(A)                                  Velocity(au)
C        -0.03961271     0.03879371    -0.07334005    -0.00003862     0.00015295    -0.00102209
N        -0.04187205    -0.05211251     1.37408006     0.00008965     0.00006141     0.00084999
H         0.92594129    -0.09929404    -0.52475784     0.00085251    -0.00062578    -0.00049647
H         0.85791679    -0.24072806     1.90677972    -0.00024898    -0.00072428    -0.00010283
H        -0.92656737    -0.06078912     1.81075265    -0.00127943    -0.00075576     0.00118788
H        -1.01632820    -0.00706345    -0.52151057    -0.00010968    -0.00057019    -0.00022107
     6
  Step:    18            Position(A)                                  Velocity(au)
C        -0.03982111     0.03964752    -0.07897284    -0.00003537     0.00015250    -0.00099328
N        -0.04131881    -0.05177047     1.37877659     0.00010609     0.00006126     0.00083064
H         0.93078645    -0.10283531    -0.52766737     0.00087448    -0.00064077    -0.00054111
H         0.85623977    -0.24468488     1.90605150    -0.00034314    -0.00069387    -0.00015244
H        -0.93416949    -0.06504402     1.81763960    -0.00141732    -0.00076762     0.00126453
H        -1.01709878    -0.01023784    -0.52290381    -0.00016685    -0.00056617    -0.00027787
     6
  Step:    19            Position(A)                                  Velocity(au)
C        -0.04000787     0.04049765    -0.08443852    -0.00003096     0.00015169    -0.00096281
N        -0.04068664    -0.05142807     1.38336125     0.00011786     0.00006154     0.00081034
H         0.93571225    -0.10645374    -0.53080394     0.00088172    -0.00065356    -0.00057795
H         0.85408269    -0.24848098     1.90507649    -0.00042011    -0.00066722    -0.00019087
H        -0.94240383    -0.06936607     1.82488191    -0.00150594    -0.00077976     0.00131543
H        -1.01819245    -0.01338957    -0.52461536    -0.00022450    -0.00056223    -0.00033460
     6
  Step:    20            Position(A)                                  Velocity(au)
C        -0.04016702     0.04134216    -0.08972926    -0.00002557     0.00015045    -0.00093060
N        -0.04000210    -0.05108289     1.38782972     0.00012481     0.00006222     0.00078892
H         0.94063703    -0.11013690    -0.53412422     0.00087410    -0.00066376    -0.00060681
H         0.85154632    -0.25213902     1.90391912    -0.00047819    -0.00064447    -0.00021743
H        -0.95099374    -0.07375552     1.83233555    -0.00154497    -0.00079127     0.00134028
H        -1.01960689    -0.01651900    -0.52664197    -0.00028070    -0.00055797    -0.00039007
     6
  Step:    21            Position(A)                                  Velocity(au)
C        -0.04029357     0.04217879    -0.09483688    -0.00001938     0.00014878    -0.00089685
N        -0.03929199    -0.05073283     1.39217650     0.00012702     0.00006324     0.00076636
H         0.94547925    -0.11387044    -0.53758428     0.00085203    -0.00067119    -0.00062776
H         0.84873947    -0.25568211     1.90264694    -0.00051626    -0.00062582    -0.00023174
H        -0.95966704    -0.07820752     1.83985787    -0.00153644    -0.00080144     0.00134002
H        -1.02132889    -0.01962426    -0.52897395    -0.00033353    -0.00055315    -0.00044318
     6
  Step:    22            Position(A)                                  Velocity(au)
C        -0.04038368     0.04300513    -0.09975399    -0.00001263     0.00014667    -0.00086192
N        -0.03858226    -0.05037605     1.39639583     0.00012473     0.00006456     0.00074278
H         0.95016076    -0.11763922    -0.54114109     0.00081651    -0.00067590    -0.00064116
H         0.84577573    -0.25913417     1.90132876    -0.00053388    -0.00061149    -0.00023380
H        -0.96816755    -0.08271377     1.84731379    -0.00148421    -0.00080990     0.00131662
H        -1.02333492    -0.02270193    -0.53159569    -0.00038125    -0.00054759    -0.00049299
     6
  Step:    23            Position(A)                                  Velocity(au)
C        -0.04043479     0.04381889    -0.10447507    -0.00000554     0.00014418    -0.00082627
N        -0.03789719    -0.05001091     1.40048250     0.00011833     0.00006617     0.00071842
H         0.95460965    -0.12142857    -0.54475391     0.00076893    -0.00067815    -0.00064760
H         0.84276947    -0.26251997     1.90003248    -0.00053136    -0.00060166    -0.00022401
H        -0.97626387    -0.08726406     1.85458073    -0.00139350    -0.00081652     0.00127282
H        -1.02559217    -0.02574755    -0.53448668    -0.00042241    -0.00054119    -0.00053877
     6
  Step:    24            Position(A)                                  Velocity(au)
C        -0.04044567     0.04461800    -0.10899705     0.00000165     0.00014137    -0.00079041
N        -0.03725854    -0.04963589     1.40443244     0.00010832     0.00006804     0.00069355
H         0.95876244    -0.12522537    -0.54838545     0.00071099    -0.00067833    -0.00064781
H         0.83983170    -0.26586468     1.89882288    -0.00050969    -0.00059637    -0.00020312
H        -0.98375604    -0.09184783     1.86155221    -0.00127033    -0.00082142     0.00121172
H        -1.02806020    -0.02875600    -0.53762270    -0.00045584    -0.00053390    -0.00058005
     6
  Step:    25            Position(A)                                  Velocity(au)
C        -0.04041637     0.04540074    -0.11331952     0.00000872     0.00013830    -0.00075484
N        -0.03668511    -0.04924959     1.40824311     0.00009527     0.00007016     0.00066849
H         0.96256543    -0.12901890    -0.55200274     0.00064450    -0.00067698    -0.00064265
H         0.83706616    -0.26919320     1.89775964    -0.00047055    -0.00059551    -0.00017222
H        -0.99047851    -0.09645550     1.86813951    -0.00112099    -0.00082491     0.00113661
H        -1.03069285    -0.03172178    -0.54097727    -0.00048073    -0.00052568    -0.00061658
     6
  Step:    26            Position(A)                                  Velocity(au)
C        -0.04034809     0.04616579    -0.11744464     0.00001548     0.00013507    -0.00071999
N        -0.03619236    -0.04885068     1.41191364     0.00007978     0.00007253     0.00064352
H         0.96597518    -0.13280152    -0.55557748     0.00057128    -0.00067468    -0.00063297
H         0.83456571    -0.27252914     1.89689554    -0.00041613    -0.00059874    -0.00013266
H        -0.99630128    -0.10107954     1.87427221    -0.00095174    -0.00082744     0.00105069
H        -1.03344015    -0.03463899    -0.54452292    -0.00049658    -0.00051645    -0.00064831
     6
  Step:    27            Position(A)                                  Velocity(au)
C        -0.04024312     0.04691224    -0.12137677     0.00002176     0.00013172    -0.00068617
N        -0.03579225    -0.04843797     1.41544468     0.00006249     0.00007510     0.00061890
H         0.96895856    -0.13656911    -0.55908615     0.00049311    -0.00067210    -0.00061959
H         0.83240929    -0.27589357     1.89627508    -0.00034911    -0.00060548    -0.00008598
H        -1.00112924    -0.10571524     1.87989764    -0.00076849    -0.00082958     0.00095696
H        -1.03625003    -0.03750123    -0.54823238    -0.00050317    -0.00050606    -0.00067539
     6
  Step:    28            Position(A)                                  Velocity(au)
C        -0.04010463     0.04763955    -0.12512192     0.00002740     0.00012832    -0.00065358
N        -0.03549318    -0.04801040     1.41883824     0.00004400     0.00007786     0.00059478
H         0.97149238    -0.14032144    -0.56250980     0.00041165    -0.00066997    -0.00060327
H         0.83065966    -0.27930361     1.89593357    -0.00027246    -0.00061488    -0.00003383
H        -1.00489964    -0.11036139     1.88497932    -0.00057664    -0.00083197     0.00085805
H        -1.03906991    -0.04030116    -0.55207965    -0.00050050    -0.00049431    -0.00069813
     6
  Step:    29            Position(A)                                  Velocity(au)
C        -0.03993667     0.04834753    -0.12868703     0.00003225     0.00012493    -0.00062228
N        -0.03530009    -0.04756710     1.42209726     0.00002492     0.00008077     0.00057127
H         0.97356282    -0.14406260    -0.56583366     0.00032851    -0.00066908    -0.00058470
H         0.82936191    -0.28277091     1.89589669    -0.00018935    -0.00062579     0.00002210
H        -1.00757887    -0.11502075     1.88949480    -0.00038099    -0.00083536     0.00075619
H        -1.04184801    -0.04302997    -0.55604084    -0.00048878    -0.00048081    -0.00071696
     6
  Step:    30            Position(A)                                  Velocity(au)
C        -0.03974405     0.04903624    -0.13207897     0.00003618     0.00012157    -0.00059213
N        -0.03521457    -0.04710743     1.42522492     0.00000583     0.00008377     0.00054830
H         0.97516503    -0.14780165    -0.56904669     0.00024523    -0.00067041    -0.00056448
H         0.82854274    -0.28629990     1.89618066    -0.00010305    -0.00063673     0.00008020
H        -1.00915907    -0.11970066     1.89343346    -0.00018582    -0.00084063     0.00065325
H        -1.04453436    -0.04567657    -0.56009514    -0.00046839    -0.00046504    -0.00073252
     6
  Step:    31            Position(A)                                  Velocity(au)
C        -0.03953245     0.04970600    -0.13530354     0.00003900     0.00011830    -0.00056281
N        -0.03523497    -0.04663104     1.42822402    -0.00001270     0.00008681     0.00052572
H         0.97630302    -0.15155377    -0.57214122     0.00016346    -0.00067524    -0.00054320
H         0.82821041    -0.28988572     1.89679285    -0.00001678    -0.00064574     0.00013903
H        -1.00965527    -0.12441402     1.89679421     0.00000497    -0.00084890     0.00055071
H        -1.04708179    -0.04822633    -0.56422601    -0.00043990    -0.00044618    -0.00074573
     6
  Step:    32            Position(A)                                  Velocity(au)
C        -0.03930852     0.05035734    -0.13836423     0.00004051     0.00011514    -0.00053370
N        -0.03535639    -0.04613792     1.43109603    -0.00003007     0.00008982     0.00050315
H         0.97699055    -0.15534249    -0.57511296     0.00008521    -0.00068542    -0.00052154
H         0.82835536    -0.29351133     1.89773325     0.00006640    -0.00065024     0.00019748
H        -1.00910357    -0.12918085     1.89958359     0.00018769    -0.00086163     0.00044974
H        -1.04944698    -0.05065933    -0.56842319    -0.00040413    -0.00042301    -0.00075804
     6
  Step:    33            Position(A)                                  Velocity(au)
C        -0.03908036     0.05099113    -0.14126024     0.00004036     0.00011219    -0.00050357
N        -0.03557055    -0.04562850     1.43383974    -0.00004564     0.00009270     0.00047977
H         0.97725405    -0.15920379    -0.57796213     0.00001341    -0.00070383    -0.00050068
H         0.82895155    -0.29714308     1.89899700     0.00014375    -0.00064657     0.00025511
H        -1.00756043    -0.13403082     1.90181385     0.00035863    -0.00088086     0.00035121
H        -1.05159233    -0.05294757    -0.57268660    -0.00036250    -0.00039375    -0.00077204
     6
  Step:    34            Position(A)                                  Velocity(au)
C        -0.03885830     0.05160873    -0.14398139     0.00003809     0.00010955    -0.00046952
N        -0.03586547    -0.04510389     1.43644763    -0.00005871     0.00009529     0.00045356
H         0.97714010    -0.16319344    -0.58069784    -0.00004670    -0.00073477    -0.00048354
H         0.82995880    -0.30072353     1.90057890     0.00021303    -0.00062977     0.00031243
H        -1.00510324    -0.13900649     1.90350119     0.00051380    -0.00090868     0.00025588
H        -1.05349055    -0.05505141    -0.57703498    -0.00031811    -0.00035636    -0.00079278
     6
  Step:    35            Position(A)                                  Velocity(au)
C        -0.03865570     0.05221238    -0.14649455     0.00003339     0.00010741    -0.00042549
N        -0.03622512    -0.04456617     1.43889612    -0.00006876     0.00009737     0.00042026
H         0.97673343    -0.16739525    -0.58335276    -0.00008634    -0.00078146    -0.00047738
H         0.83132650    -0.30416387     1.90248006     0.00027287    -0.00059610     0.00037049
H        -1.00183245    -0.14416099     1.90466646     0.00064930    -0.00094361     0.00016577
H        -1.05513871    -0.05692032    -0.58152477    -0.00027816    -0.00031183    -0.00082889
     6
  Step:    36            Position(A)                                  Velocity(au)
C        -0.03848623     0.05280544    -0.14872220     0.00002718     0.00010583    -0.00036571
N        -0.03663164    -0.04401894     1.44113024    -0.00007614     0.00009878     0.00037579
H         0.97617808    -0.17190055    -0.58601679    -0.00009977    -0.00083741    -0.00049177
H         0.83299908    -0.30736535     1.90470687     0.00032243    -0.00055154     0.00042731
H        -0.99786876    -0.14952020     1.90534819     0.00076364    -0.00097466     0.00008594
H        -1.05658982    -0.05852586    -0.58627048    -0.00025211    -0.00027012    -0.00088573
     6
  Step:    37            Position(A)                                  Velocity(au)
C        -0.03835302     0.05339089    -0.15056707     0.00002129     0.00010463    -0.00029255
N        -0.03707299    -0.04346622     1.44308085    -0.00008185     0.00009958     0.00032178
H         0.97562244    -0.17672045    -0.58882900    -0.00009410    -0.00088868    -0.00052751
H         0.83491696    -0.31030566     1.90723852     0.00036046    -0.00050916     0.00047700
H        -0.99332874    -0.15501459     1.90562350     0.00085860    -0.00098996     0.00002118
H        -1.05794616    -0.05992831    -0.59138804    -0.00024121    -0.00024291    -0.00095628
     6
  Step:    38            Position(A)                                  Velocity(au)
C        -0.03824934     0.05396996    -0.15197810     0.00001666     0.00010357    -0.00021368
N        -0.03754254    -0.04291062     1.44471150    -0.00008632     0.00010002     0.00026367
H         0.97513083    -0.18179103    -0.59188769    -0.00008226    -0.00092830    -0.00057607
H         0.83701079    -0.31303194     1.91001562     0.00038534    -0.00047500     0.00051496
H        -0.98831300    -0.16053789     1.90558391     0.00093573    -0.00098906    -0.00002806
H        -1.05927439    -0.06122928    -0.59691327    -0.00023775    -0.00023178    -0.00102870
     6
  Step:    39            Position(A)                                  Velocity(au)
C        -0.03816772     0.05454294    -0.15294379     0.00001324     0.00010253    -0.00013412
N        -0.03803313    -0.04235370     1.44601362    -0.00008936     0.00010021     0.00020496
H         0.97470742    -0.18704590    -0.59523660    -0.00007198    -0.00095721    -0.00062991
H         0.83920303    -0.31558899     1.91296637     0.00039596    -0.00044731     0.00053997
H        -0.98292070    -0.16601582     1.90531137     0.00099470    -0.00097746    -0.00006340
H        -1.06059060    -0.06250642    -0.60283013    -0.00023468    -0.00023235    -0.00109661
     6
  Step:    40            Position(A)                                  Velocity(au)
C        -0.03810214     0.05510972    -0.15346909     0.00001082     0.00010143    -0.00005592
N        -0.03853592    -0.04179662     1.44698993    -0.00009073     0.00010020     0.00014701
H         0.97433072    -0.19243190    -0.59889007    -0.00006662    -0.00097727    -0.00068506
H         0.84141251    -0.31800445     1.91601816     0.00039197    -0.00042356     0.00055203
H        -0.97725536    -0.17140387     1.90487909     0.00103476    -0.00095926    -0.00008603
H        -1.06188319    -0.06381221    -0.60910372    -0.00022830    -0.00024108    -0.00115760
     6
  Step:    41            Position(A)                                  Velocity(au)
C        -0.03804749     0.05566990    -0.15356504     0.00000931     0.00010023     0.00002017
N        -0.03904113    -0.04124038     1.44764702    -0.00009032     0.00010002     0.00009031
H         0.97396726    -0.19790379    -0.60284796    -0.00006795    -0.00098918    -0.00073957
H         0.84355802    -0.32029488     1.91909962     0.00037357    -0.00040250     0.00055128
H        -0.97142405    -0.17667366     1.90435557     0.00105546    -0.00093635    -0.00009650
H        -1.06312713    -0.06518495    -0.61569157    -0.00021687    -0.00025627    -0.00121050
     6
  Step:    42            Position(A)                                  Velocity(au)
C        -0.03799871     0.05622274    -0.15324509     0.00000883     0.00009885     0.00009373
N        -0.03953897    -0.04068586     1.44799276    -0.00008826     0.00009969     0.00003504
H         0.97357617    -0.20341660    -0.60710293    -0.00007731    -0.00099196    -0.00079249
H         0.84556099    -0.32247412     1.92214011     0.00034140    -0.00038468     0.00053762
H        -0.96553459    -0.18180199     1.90380746     0.00105697    -0.00090857    -0.00009486
H        -1.06429148    -0.06665809    -0.62254623    -0.00019974    -0.00027801    -0.00125416
     6
  Step:    43            Position(A)                                  Velocity(au)
C        -0.03794953     0.05676711    -0.15252461     0.00000989     0.00009717     0.00016386
N        -0.04002079    -0.04013382     1.44803598    -0.00008497     0.00009925    -0.00001821
H         0.97310912    -0.20891456    -0.61164461    -0.00009702    -0.00098102    -0.00084334
H         0.84734757    -0.32456480     1.92506721     0.00029641    -0.00037434     0.00050983
H        -0.95969171    -0.18675875     1.90330266     0.00104050    -0.00087240    -0.00008017
H        -1.06534428    -0.06827087    -0.62961276    -0.00017705    -0.00030941    -0.00128578
     6
  Step:    44            Position(A)                                  Velocity(au)
C        -0.03788895     0.05730093    -0.15142698     0.00001432     0.00009474     0.00022304
N        -0.04048172    -0.03958457     1.44779070    -0.00008175     0.00009902    -0.00006430
H         0.97249970    -0.21430179    -0.61646045    -0.00013839    -0.00093955    -0.00088591
H         0.84884992    -0.32662767     1.92779703     0.00023904    -0.00038748     0.00046211
H        -0.95398947    -0.19148194     1.90291791     0.00100999    -0.00081787    -0.00004966
H        -1.06625595    -0.07009127    -0.63681292    -0.00014526    -0.00036011    -0.00129083
     6