 Fermi distribution function

Calculation with static geometry


********************************************************************************
 iSCC Total electronic   Diff electronic      SCC error    
   10   -0.54168417E+01   -0.30020431E-12    0.22996237E-07
********************************************************************************

 Total charge:     1.00000000

 Atomic gross charges (e)
 Atom           Charge
    1       0.14280742
    2      -0.02827253
    3       0.18139279
    4       0.27105942
    5       0.27569870
    6       0.15731421

Nr. of electrons (up):     12.00000000
Atom populations (up)
 Atom       Population
    1       3.85719258
    2       5.02827253
    3       0.81860721
    4       0.72894058
    5       0.72430130
    6       0.84268579

l-shell populations (up)
 Atom Sh.   l       Population
    1   1   0       1.31479769
    1   2   1       2.54239490
    2   1   0       1.42211979
    2   2   1       3.60615274
    3   1   0       0.81860721
    4   1   0       0.72894058
    5   1   0       0.72430130
    6   1   0       0.84268579

Orbital populations (up)
 Atom Sh.   l   m       Population  Label
    1   1   0   0       1.31479769  s
    1   2   1  -1       0.61357116  p_y
    1   2   1   0       0.87903538  p_z
    1   2   1   1       1.04978835  p_x
    2   1   0   0       1.42211979  s
    2   2   1  -1       1.33244761  p_y
    2   2   1   0       1.11438196  p_z
    2   2   1   1       1.15932317  p_x
    3   1   0   0       0.81860721  s
    4   1   0   0       0.72894058  s
    5   1   0   0       0.72430130  s
    6   1   0   0       0.84268579  s

Fermi level:                        -0.4994563400 H          -13.5909 eV
Band energy:                        -8.9592082728 H         -243.7925 eV
TS:                                  0.0000000000 H            0.0000 eV
Band free energy (E-TS):            -8.9592082728 H         -243.7925 eV
Extrapolated E(0K):                 -8.9592082728 H         -243.7925 eV
Input / Output electrons (q):     12.0000000000     12.0000000000

Energy H0:                          -5.5514502988 H         -151.0626 eV
Energy SCC:                          0.1346086383 H            3.6629 eV
Total Electronic energy:            -5.4168416605 H         -147.3998 eV
Repulsive energy:                    0.1901377966 H            5.1739 eV
Total energy:                       -5.2267038638 H         -142.2258 eV
Extrapolated to 0:                  -5.2267038638 H         -142.2258 eV
Total Mermin free energy:           -5.2267038638 H         -142.2258 eV
Force related energy:               -5.2267038638 H         -142.2258 eV

SCC converged

Excitation Energy:                   0.1525731417 H            4.1517 eV

Total Forces
    1      0.007069443447     -0.000119847223      0.021457338701
    2      0.008978152001      0.006642268680     -0.035916011212
    3     -0.008916721208      0.001019267967      0.003199117781
    4     -0.009465559356     -0.006414498384      0.004455944451
    5      0.001318715034      0.002306611956      0.008489717838
    6      0.001015970083     -0.003433802996     -0.001686107559

Maximal derivative component:        0.359160E-01 au


