|===============================================================================
|
|  DFTB+ release 20.1
|
|  Copyright (C) 2006 - 2020  DFTB+ developers group
|
|===============================================================================
|
|  When publishing results obtained with DFTB+, please cite the following
|  reference:
|
|  * DFTB+, a software package for efficient approximate density functional
|    theory based atomistic simulations, J. Chem. Phys. 152, 124101 (2020).
|    [doi: 10.1063/1.5143190]
|
|  You should also cite additional publications crediting the parametrization
|  data you use. Please consult the documentation of the SK-files for the
|  references.
|
|===============================================================================

Reading input file 'dftb_in.hsd'
Parser version: 8

--------------------------------------------------------------------------------
Reading SK-files:
Done.


Processed input in HSD format written to 'dftb_pin.hsd'

Starting initialization...
--------------------------------------------------------------------------------
WARNING!
-> Excited state forces are not implemented yet for fractional occupations, kT=  0.3158E-02K
OpenMP threads:              1
Chosen random seed:          433435234
Mode:                        Static calculation
Self consistent charges:     Yes
SCC-tolerance:                 0.100000E-05
Max. scc iterations:                    100
Shell resolved Hubbard:      No
Spin polarisation:           No
Nr. of up electrons:             6.000000
Nr. of down electrons:           6.000000
Periodic boundaries:         No
Electronic solver:           Relatively robust
Mixer:                       Broyden mixer
Mixing parameter:                  0.200000
Maximal SCC-cycles:                     100
Nr. of chrg. vec. in memory:              0
Electronic temperature:        0.100000E-07 H      0.272114E-06 eV
Initial charges:             Set automatically (system chrg:   0.100E+01)
Included shells:             C:  s, p
                             N:  s, p
                             H:  s
Extra options:
                             Mulliken analysis
                             Force calculation
Force type                   original
                             Eigenvector printing

--------------------------------------------------------------------------------

***  Geometry step: 0

 iSCC Total electronic   Diff electronic      SCC error    
    1   -0.54110784E+01    0.00000000E+00    0.59768904E+00
    2   -0.54142558E+01   -0.31774459E-02    0.41132166E+00
    3   -0.54166162E+01   -0.23604173E-02    0.53158901E-01
    4   -0.54168406E+01   -0.22438553E-03    0.12663019E-01
    5   -0.54168377E+01    0.29293754E-05    0.59889950E-02
    6   -0.54168417E+01   -0.39563680E-05    0.14608261E-03
    7   -0.54168417E+01   -0.51057114E-09    0.83556099E-04
    8   -0.54168417E+01   -0.24147884E-09    0.40205322E-05
    9   -0.54168417E+01   -0.37125858E-12    0.24517195E-05
   10   -0.54168417E+01   -0.30020431E-12    0.22996237E-07
>> Charges saved for restart in charges.bin

Total Energy:                       -5.0741307221 H         -138.0741 eV
Extrapolated to 0:                  -5.2267038638 H         -142.2258 eV
Total Mermin free energy:           -5.0741307221 H         -138.0741 eV
Force related energy:               -5.2267038638 H         -142.2258 eV

--------------------------------------------------------------------------------
DFTB+ running times                          cpu [s]             wall clock [s]
--------------------------------------------------------------------------------
SCC                                    +     0.01  ( 43.0%)      0.03  ( 38.7%)
Post-SCC processing                    +     0.01  ( 49.4%)      0.03  ( 41.3%)
Post-geometry optimisation             +     0.00  (  3.4%)      0.01  ( 16.0%)
--------------------------------------------------------------------------------
Missing                                +     0.00  (  4.2%)      0.00  (  4.0%)
Total                                  =     0.02  (100.0%)      0.08  (100.0%)
--------------------------------------------------------------------------------
