     6
  Step:   300            Position(A)                                  Velocity(au)
C        -0.02971950     0.01119294     0.01196951     0.00006191     0.00002602    -0.00002171
N        -0.04603801    -0.05293829     1.30208957    -0.00001873     0.00002281    -0.00000514
H         0.91117949    -0.19649083    -0.50552106     0.00036715     0.00097337    -0.00020437
H         0.82143566     0.01700813     1.84265594     0.00001251    -0.00148662     0.00008761
H        -0.95838200    -0.14029617     1.76315722    -0.00019349     0.00127833     0.00024548
H        -0.99326435     0.25227792    -0.44514249    -0.00066361    -0.00139213     0.00020139
