     6
  Step:     0            Position(A)                                  Velocity(au)
C        -0.03637052     0.00529307     0.00004061     0.00008687     0.00004021     0.00012695
N        -0.04776755    -0.06329356     1.31072105     0.00020357    -0.00009186    -0.00009873
H         0.97006923     0.01726942    -0.54627497    -0.00073405    -0.00014783     0.00005969
H         0.85223052    -0.06184272     1.83640808    -0.00137866     0.00045632    -0.00070543
H        -0.94156742     0.00946356     1.91952306    -0.00143601     0.00047662     0.00044744
H        -0.99648203     0.18180948    -0.53233974    -0.00031530     0.00001228     0.00005764
     6
  Step:     1            Position(A)                                  Velocity(au)
C        -0.03588493     0.00551626     0.00066287     0.00009003     0.00004151     0.00010022
N        -0.04667386    -0.06380100     1.31027527     0.00019435    -0.00009370    -0.00006415
H         0.96581977     0.01646339    -0.54596507    -0.00081516    -0.00014700     0.00005119
H         0.84457151    -0.05931569     1.83258272    -0.00140464     0.00046811    -0.00068226
H        -0.94895429     0.01203372     1.92167551    -0.00125386     0.00046225     0.00033203
H        -0.99817137     0.18191047    -0.53219640    -0.00029990     0.00002412    -0.00000353
     6
  Step:     2            Position(A)                                  Velocity(au)
C        -0.03538571     0.00574709     0.00113683     0.00009184     0.00004300     0.00007289
N        -0.04564165    -0.06431848     1.31001929     0.00018118    -0.00009555    -0.00002962
H         0.96115257     0.01566151    -0.54571505    -0.00088629    -0.00014635     0.00003747
H         0.83686588    -0.05672224     1.82894519    -0.00139479     0.00048078    -0.00063621
H        -0.95528282     0.01451986     1.92315497    -0.00105144     0.00044606     0.00020307
H        -0.99976252     0.18207330    -0.53237835    -0.00027955     0.00003491    -0.00006126
     6
  Step:     3            Position(A)                                  Velocity(au)
C        -0.03488042     0.00598660     0.00146018     0.00009226     0.00004468     0.00004533
N        -0.04469208    -0.06484613     1.30995131     0.00016429    -0.00009746     0.00000434
H         0.95612548     0.01486262    -0.54555527    -0.00094647    -0.00014597     0.00001787
H         0.82931514    -0.05405682     1.82562375    -0.00134786     0.00049472    -0.00056657
H        -0.96045501     0.01691272     1.92389676    -0.00083345     0.00042838     0.00006390
H        -1.00122910     0.18229237    -0.53286645    -0.00025460     0.00004473    -0.00011550
     6
  Step:     4            Position(A)                                  Velocity(au)
C        -0.03437668     0.00623576     0.00163256     0.00009131     0.00004654     0.00001785
N        -0.04384489    -0.06538432     1.31006671     0.00014395    -0.00009946     0.00003725
H         0.95080137     0.01406513    -0.54551958    -0.00099487    -0.00014593    -0.00000822
H         0.82212482    -0.05131166     1.82274877    -0.00126373     0.00051034    -0.00047333
H        -0.96439798     0.01920488     1.92385385    -0.00060424     0.00040955    -0.00008244
H        -1.00254704     0.18256247    -0.53364148    -0.00022552     0.00005364    -0.00016628
     6
  Step:     5            Position(A)                                  Velocity(au)
C        -0.03388203     0.00649549     0.00165541     0.00008900     0.00004857    -0.00000921
N        -0.04311815    -0.06593367     1.31035859     0.00012050    -0.00010161     0.00006876
H         0.94524740     0.01326696    -0.54564510    -0.00103077    -0.00014634    -0.00004138
H         0.81549724    -0.04847670     1.82044827    -0.00114366     0.00052804    -0.00035731
H        -0.96706182     0.02139080     1.92299531    -0.00036774     0.00038989    -0.00023319
H        -1.00369501     0.18287887    -0.53468460    -0.00019282     0.00006175    -0.00021374
     6
  Step:     6            Position(A)                                  Velocity(au)
C        -0.03340387     0.00676664     0.00153185     0.00008536     0.00005075    -0.00003559
N        -0.04252774    -0.06649504     1.31081830     0.00009437    -0.00010395     0.00009861
H         0.93953420     0.01246557    -0.54597188    -0.00105360    -0.00014726    -0.00008212
H         0.80962372    -0.04553971     1.81884310    -0.00099030     0.00054821    -0.00022024
H        -0.96841763     0.02346671     1.92130488    -0.00012760     0.00036971    -0.00038578
H        -1.00465470     0.18323743    -0.53597777    -0.00015705     0.00006917    -0.00025803
     6
  Step:     7            Position(A)                                  Velocity(au)
C        -0.03294933     0.00704999     0.00126654     0.00008045     0.00005307    -0.00006101
N        -0.04208698    -0.06706950     1.31143609     0.00006608    -0.00010651     0.00012664
H         0.93373495     0.01165792    -0.54654243    -0.00106294    -0.00014878    -0.00013085
H         0.80467656    -0.04248657     1.81804181    -0.00080781     0.00057112    -0.00006480
H        -0.96845608     0.02543057     1.91877995     0.00011268     0.00034933    -0.00053777
H        -1.00541101     0.18363466    -0.53750400    -0.00011879     0.00007602    -0.00029937
     6
  Step:     8            Position(A)                                  Velocity(au)
C        -0.03252522     0.00734627     0.00086549     0.00007432     0.00005552    -0.00008524
N        -0.04180600    -0.06765832     1.31220153     0.00003625    -0.00010931     0.00015277
H         0.92792450     0.01084052    -0.54740106    -0.00105851    -0.00015100    -0.00018784
H         0.80080068    -0.03930182     1.81813536    -0.00060181     0.00059694     0.00010536
H        -0.96718686     0.02728213     1.91543122     0.00034962     0.00032904    -0.00068669
H        -1.00595215     0.18406775    -0.53924753    -0.00007865     0.00008243    -0.00033797
     6
  Step:     9            Position(A)                                  Velocity(au)
C        -0.03213791     0.00765611     0.00033591     0.00006707     0.00005807    -0.00010806
N        -0.04169122    -0.06826286     1.31310399     0.00000561    -0.00011236     0.00017697
H         0.92217851     0.01000941    -0.54859320    -0.00104018    -0.00015396    -0.00025320
H         0.79810621    -0.03596940     1.81919210    -0.00037921     0.00062567     0.00028572
H        -0.96463904     0.02902292     1.91128288     0.00057950     0.00030919    -0.00082995
H        -1.00626964     0.18453457    -0.54119383    -0.00003722     0.00008850    -0.00037404
     6
  Step:    10            Position(A)                                  Velocity(au)
C        -0.03179327     0.00798005    -0.00031385     0.00005879     0.00006071    -0.00012927
N        -0.04174479    -0.06888454     1.31413288    -0.00002501    -0.00011566     0.00019924
H         0.91657254     0.00916025    -0.55016438    -0.00100804    -0.00015775    -0.00032682
H         0.79666219    -0.03247362     1.82125359    -0.00014793     0.00065711     0.00047105
H        -0.96086249     0.03065644     1.90637360     0.00079822     0.00029015    -0.00096468
H        -1.00635836     0.18503361    -0.54332955     0.00000487     0.00009435    -0.00040774
     6
  Step:    11            Position(A)                                  Velocity(au)
C        -0.03149655     0.00831849    -0.00107448     0.00004960     0.00006341    -0.00014868
N        -0.04196412    -0.06952475     1.31527773    -0.00005470    -0.00011920     0.00021958
H         0.91118066     0.00828836    -0.55215889    -0.00096246    -0.00016238    -0.00040830
H         0.79649230    -0.02880029     1.82433135     0.00008344     0.00069086     0.00065560
H        -0.95593032     0.03218846     1.90075809     0.00100119     0.00027233    -0.00108771
H        -1.00621652     0.18556398    -0.54564229     0.00004699     0.00010006    -0.00043920
     6
  Step:    12            Position(A)                                  Velocity(au)
C        -0.03125220     0.00867169    -0.00193568     0.00003967     0.00006612    -0.00016611
N        -0.04234151    -0.07018475     1.31652811    -0.00008249    -0.00012293     0.00023797
H         0.90607391     0.00738894    -0.55461821    -0.00090415    -0.00016790    -0.00049689
H         0.79757234    -0.02493770     1.82840495     0.00030613     0.00072629     0.00083341
H        -0.94994140     0.03362709     1.89450875     0.00118317     0.00025626    -0.00119546
H        -1.00584582     0.18612504    -0.54812038     0.00008850     0.00010568    -0.00046848
     6
  Step:    13            Position(A)                                  Velocity(au)
C        -0.03106384     0.00903973    -0.00288639     0.00002917     0.00006882    -0.00018141
N        -0.04286391    -0.07086561     1.31787346    -0.00010737    -0.00012681     0.00025432
H         0.90131834     0.00645694    -0.55757889    -0.00083422    -0.00017431    -0.00059145
H         0.79983147    -0.02087810     1.83342204     0.00051172     0.00076257     0.00099865
H        -0.94302461     0.03498374     1.88771824     0.00133825     0.00024258    -0.00128398
H        -1.00525117     0.18671675    -0.55075240     0.00012879     0.00011131    -0.00049558
     6
  Step:    14            Position(A)                                  Velocity(au)
C        -0.03093401     0.00942250    -0.00391480     0.00001831     0.00007146    -0.00019445
N        -0.04351288    -0.07156819     1.31930266    -0.00012837    -0.00013080     0.00026851
H         0.89697298     0.00548728    -0.56107066    -0.00075420    -0.00018161    -0.00069049
H         0.80315490    -0.01661848     1.83929972     0.00069255     0.00079874     0.00114593
H        -0.93534181     0.03627351     1.88050121     0.00146014     0.00023200    -0.00134911
H        -1.00444080     0.18733940    -0.55352692     0.00016723     0.00011698    -0.00052045
     6
  Step:    15            Position(A)                                  Velocity(au)
C        -0.03086406     0.00981965    -0.00500848     0.00000732     0.00007401    -0.00020512
N        -0.04426482    -0.07229309     1.32080376    -0.00014458    -0.00013485     0.00028033
H         0.89308761     0.00447496    -0.56511435    -0.00066603    -0.00018977    -0.00079214
H         0.80738950    -0.01216124     1.84592788     0.00084226     0.00083377     0.00127065
H        -0.92708971     0.03751564     1.87299506     0.00154243     0.00022534    -0.00138673
H        -1.00342617     0.18799343    -0.55643223     0.00020323     0.00012272    -0.00054301
     6
  Step:    16            Position(A)                                  Velocity(au)
C        -0.03085405     0.01023061    -0.00615453    -0.00000353     0.00007641    -0.00021337
N        -0.04509155    -0.07304065     1.32236360    -0.00015524    -0.00013892     0.00028956
H         0.88970056     0.00341521    -0.56972013    -0.00057207    -0.00019873    -0.00089430
H         0.81235160    -0.00751441     1.85317411     0.00095608     0.00086667     0.00136930
H        -0.91849980     0.03873398     1.86535938     0.00157907     0.00022345    -0.00139306
H        -1.00222174     0.18867942    -0.55945614     0.00023626     0.00012854    -0.00056318
     6
  Step:    17            Position(A)                                  Velocity(au)
C        -0.03090262     0.01065460    -0.00733990    -0.00001399     0.00007865    -0.00021920
N        -0.04596109    -0.07381102     1.32396771    -0.00015977    -0.00014298     0.00029598
H         0.88683676     0.00230350    -0.57488610    -0.00047498    -0.00020845    -0.00099467
H         0.81783635    -0.00269136     1.86088990     0.00103110     0.00089653     0.00143961
H        -0.90983554     0.03995717     1.85777343     0.00156498     0.00022718    -0.00136508
H        -1.00084463     0.18939799    -0.56258594     0.00026588     0.00013445    -0.00058088
     6
  Step:    18            Position(A)                                  Velocity(au)
C        -0.03100702     0.01109068    -0.00855161    -0.00002381     0.00008069    -0.00022267
N        -0.04683878    -0.07460422     1.32560038    -0.00015784    -0.00014702     0.00029941
H         0.88450632     0.00113570    -0.58059758    -0.00037759    -0.00021885    -0.00109095
H         0.82362740     0.00228980     1.86891730     0.00106625     0.00092264     0.00148062
H        -0.90138560     0.04121836     1.85043117     0.00149666     0.00023730    -0.00130093
H        -0.99931414     0.19014972    -0.56580847     0.00029177     0.00014044    -0.00059608
     6
  Step:    19            Position(A)                                  Velocity(au)
C        -0.03116319     0.01153776    -0.00977711    -0.00003276     0.00008252    -0.00022391
N        -0.04768872    -0.07542018     1.32724495    -0.00014938    -0.00015103     0.00029976
H         0.88270388    -0.00009198    -0.58682715    -0.00028272    -0.00022990    -0.00118096
H         0.82950701     0.00740739     1.87709611     0.00106226     0.00094452     0.00149269
H        -0.89345376     0.04255456     1.84353406     0.00137290     0.00025438    -0.00120027
H        -0.99765107     0.19093520    -0.56911036     0.00031375     0.00014653    -0.00060881
     6
  Step:    20            Position(A)                                  Velocity(au)
C        -0.03136589     0.01199471    -0.01100464    -0.00004066     0.00008414    -0.00022311
N        -0.04847530    -0.07625885     1.32888439    -0.00013462    -0.00015504     0.00029704
H         0.88140897    -0.00138297    -0.59353554    -0.00019304    -0.00024153    -0.00126274
H         0.83526499     0.01263749     1.88527041     0.00102132     0.00096196     0.00147722
H        -0.88634480     0.04400527     1.83728163     0.00119518     0.00027871    -0.00106457
H        -0.99587691     0.19175501    -0.57247824     0.00033178     0.00015272    -0.00061912
     6
  Step:    21            Position(A)                                  Velocity(au)
C        -0.03160898     0.01246037    -0.01222347    -0.00004736     0.00008557    -0.00022048
N        -0.04916485    -0.07712017     1.33050205    -0.00011409    -0.00015904     0.00029143
H         0.88058719    -0.00274041    -0.60067315    -0.00011088    -0.00025372    -0.00133468
H         0.84070579     0.01795528     1.89329391     0.00094671     0.00097496     0.00143650
H        -0.88034858     0.04561062     1.83186102     0.00096799     0.00031017    -0.00089721
H        -0.99401310     0.19260975    -0.57589907     0.00034598     0.00015902    -0.00062714
     6
  Step:    22            Position(A)                                  Velocity(au)
C        -0.03188566     0.01293368    -0.01342411    -0.00005280     0.00008681    -0.00021627
N        -0.04972724    -0.07800406     1.33208248    -0.00008856    -0.00016302     0.00028322
H         0.88019220    -0.00416723    -0.60818195    -0.00003815    -0.00026643    -0.00139550
H         0.84565395     0.02333639     1.90103418     0.00084249     0.00098373     0.00137337
H        -0.87572231     0.04740894     1.82743587     0.00069887     0.00034818    -0.00070345
H        -0.99208027     0.19350009    -0.57936031     0.00035656     0.00016546    -0.00063298
     6
  Step:    23            Position(A)                                  Velocity(au)
C        -0.03218875     0.01341365    -0.01459843    -0.00005691     0.00008790    -0.00021075
N        -0.05013731    -0.07891032     1.33361222    -0.00005903    -0.00016696     0.00027285
H         0.88016820    -0.00566619    -0.61599756     0.00002368    -0.00027965    -0.00144426
H         0.84995738     0.02875790     1.90837525     0.00071304     0.00098865     0.00129093
H        -0.87267415     0.04943404     1.82413629     0.00039796     0.00039167    -0.00049009
H        -0.99009758     0.19442675    -0.58285004     0.00036386     0.00017206    -0.00063677
     6
  Step:    24            Position(A)                                  Velocity(au)
C        -0.03251101     0.01389946    -0.01573974    -0.00005972     0.00008885    -0.00020413
N        -0.05037587    -0.07983853     1.33508042    -0.00002668    -0.00017079     0.00026080
H         0.88045238    -0.00723995    -0.62405103     0.00007366    -0.00029335    -0.00148029
H         0.85348861     0.03419933     1.91521855     0.00056285     0.00099012     0.00119236
H        -0.87134961     0.05171245     1.82205090     0.00007765     0.00043908    -0.00026521
H        -0.98808225     0.19539064    -0.58635689     0.00036824     0.00017883    -0.00063856
     6
  Step:    25            Position(A)                                  Velocity(au)
C        -0.03284532     0.01439038    -0.01684249    -0.00006127     0.00008968    -0.00019663
N        -0.05043056    -0.08078786     1.33647928     0.00000725    -0.00017443     0.00024765
H         0.88097791    -0.00889107    -0.63227065     0.00011127    -0.00030751    -0.00150318
H         0.85614490     0.03964242     1.92148309     0.00039634     0.00098855     0.00108076
H        -0.87182052     0.05426092     1.82122080    -0.00024830     0.00048844    -0.00003759
H        -0.98604941     0.19639266    -0.58986980     0.00037008     0.00018577    -0.00063837
     6
  Step:    26            Position(A)                                  Velocity(au)
C        -0.03318489     0.01488578    -0.01790227    -0.00006163     0.00009041    -0.00018841
N        -0.05029614    -0.08175688     1.33780415     0.00004146    -0.00017774     0.00023395
H         0.88167619    -0.01062193    -0.64058309     0.00013643    -0.00032206    -0.00151265
H         0.85784759     0.04507147     1.92710482     0.00021777     0.00098435     0.00095905
H        -0.87408043     0.05708440     1.82163753    -0.00056574     0.00053749     0.00018390
H        -0.98401204     0.19743375    -0.59337778     0.00036976     0.00019287    -0.00063616
     6
  Step:    27            Position(A)                                  Velocity(au)
C        -0.03352342     0.01538510    -0.01891552    -0.00006089     0.00009103    -0.00017960
N        -0.04997435    -0.08274349     1.33905340     0.00007473    -0.00018059     0.00022019
H         0.88247909    -0.01243469    -0.64891432     0.00014939    -0.00033695    -0.00150862
H         0.85854099     0.05047314     1.93203550     0.00003124     0.00097789     0.00083001
H        -0.87804533     0.06017489     1.82324421    -0.00086110     0.00058382     0.00039082
H        -0.98198101     0.19851482    -0.59686947     0.00036761     0.00020011    -0.00063180
     6
  Step:    28            Position(A)                                  Velocity(au)
C        -0.03385521     0.01588782    -0.01987940    -0.00005917     0.00009154    -0.00017033
N        -0.04947347    -0.08374485     1.34022807     0.00010593    -0.00018284     0.00020681
H         0.88332070    -0.01433117    -0.65719044     0.00015067    -0.00035208    -0.00149110
H         0.85819144     0.05583635     1.93624184    -0.00015925     0.00096953     0.00069629
H        -0.88355969     0.06351121     1.82593982    -0.00112233     0.00062507     0.00057578
H        -0.97996533     0.19963665    -0.60033284     0.00036394     0.00020746    -0.00062512
     6
  Step:    29            Position(A)                                  Velocity(au)
C        -0.03417517     0.01639338    -0.02079158    -0.00005658     0.00009194    -0.00016066
N        -0.04880755    -0.08475735     1.34133127     0.00013411    -0.00018435     0.00019411
H         0.88413868    -0.01631270    -0.66533818     0.00014105    -0.00036734    -0.00146028
H         0.85678688     0.06115207     1.93970488    -0.00034974     0.00095962     0.00056051
H        -0.89040730     0.06705977     1.82958621    -0.00133966     0.00065914     0.00073282
H        -0.97797238     0.20079987    -0.60375490     0.00035902     0.00021486    -0.00061593
     6
  Step:    30            Position(A)                                  Velocity(au)
C        -0.03447888     0.01690117    -0.02165017    -0.00005326     0.00009221    -0.00015067
N        -0.04799533    -0.08577678     1.34236752     0.00015850    -0.00018503     0.00018228
H         0.88487534    -0.01838006    -0.67328577     0.00012148    -0.00038263    -0.00141654
H         0.85433656     0.06641337     1.94241977    -0.00053629     0.00094857     0.00042525
H        -0.89832556     0.07077633     1.83401698    -0.00150614     0.00068431     0.00085768
H        -0.97600823     0.20200486    -0.60712165     0.00035306     0.00022228    -0.00060405
     6
  Step:    31            Position(A)                                  Velocity(au)
C        -0.03476264     0.01741054    -0.02245357    -0.00004932     0.00009234    -0.00014041
N        -0.04705919    -0.08679845     1.34334204     0.00017855    -0.00018483     0.00017141
H         0.88547877    -0.02053345    -0.68096397     0.00009313    -0.00039782    -0.00136051
H         0.85087106     0.07161567     1.94439579    -0.00071500     0.00093684     0.00029315
H        -0.90702150     0.07460840     1.83904720    -0.00161788     0.00069937     0.00094797
H        -0.97407780     0.20325180    -0.61041810     0.00034626     0.00022967    -0.00058933
     6
  Step:    32            Position(A)                                  Velocity(au)
C        -0.03502345     0.01792076    -0.02320050    -0.00004491     0.00009234    -0.00012996
N        -0.04602390    -0.08781748     1.34426009     0.00019395    -0.00018373     0.00016145
H         0.88590365    -0.02277250    -0.68830738     0.00005728    -0.00041285    -0.00129311
H         0.84644216     0.07675717     1.94565651    -0.00088205     0.00092503     0.00016685
H        -0.91618881     0.07849818     1.84448364    -0.00167404     0.00070367     0.00100314
H        -0.97218517     0.20454067    -0.61362857     0.00033877     0.00023701    -0.00057173
     6
  Step:    33            Position(A)                                  Velocity(au)
C        -0.03525904     0.01843108    -0.02388994    -0.00004016     0.00009219    -0.00011937
N        -0.04491554    -0.08882907     1.34512644     0.00020458    -0.00018179     0.00015228
H         0.88611190    -0.02509640    -0.69525586     0.00001530    -0.00042765    -0.00121550
H         0.84112234     0.08183941     1.94623985    -0.00103383     0.00091384     0.00004893
H        -0.92552358     0.08238563     1.85013420    -0.00167651     0.00069714     0.00102425
H        -0.97033365     0.20587137    -0.61673706     0.00033073     0.00024432    -0.00055126
     6
  Step:    34            Position(A)                                  Velocity(au)
C        -0.03546783     0.01894074    -0.02452122    -0.00003520     0.00009191    -0.00010871
N        -0.04376041    -0.08982878     1.34594489     0.00021049    -0.00017910     0.00014370
H         0.88607296    -0.02750411    -0.70175583    -0.00003143    -0.00044224    -0.00112908
H         0.83500372     0.08686804     1.94619783    -0.00116704     0.00090414    -0.00005813
H        -0.93473796     0.08621145     1.85581606    -0.00162946     0.00068022     0.00101374
H        -0.96852595     0.20724384    -0.61972776     0.00032227     0.00025162    -0.00052804
     6
  Step:    35            Position(A)                                  Velocity(au)
C        -0.03564886     0.01944904    -0.02509399    -0.00003012     0.00009152    -0.00009805
N        -0.04258417    -0.09081281     1.34671809     0.00021189    -0.00017583     0.00013551
H         0.88576383    -0.02999461    -0.70776146    -0.00008155    -0.00045667    -0.00103542
H         0.82819630     0.09185354     1.94559596    -0.00127882     0.00089689    -0.00015205
H        -0.94357126     0.08991962     1.86136232    -0.00153866     0.00065374     0.00097505
H        -0.96676424     0.20865825    -0.62258556     0.00031349     0.00025898    -0.00050229
     6
  Step:    36            Position(A)                                  Velocity(au)
C        -0.03580180     0.01995538    -0.02560830    -0.00002505     0.00009104    -0.00008746
N        -0.04141119    -0.09177824     1.34744735     0.00020909    -0.00017216     0.00012748
H         0.88516883    -0.03256726    -0.71323561    -0.00013379    -0.00047108    -0.00093620
H         0.82082540     0.09681193     1.94451204    -0.00136688     0.00089320    -0.00023085
H        -0.95179708     0.09345947     1.86662641    -0.00141091     0.00061886     0.00091221
H        -0.96505024     0.21011521    -0.62529663     0.00030451     0.00026654    -0.00047430
     6
  Step:    37            Position(A)                                  Velocity(au)
C        -0.03592681     0.02045932    -0.02606457    -0.00002006     0.00009052    -0.00007702
N        -0.04026396    -0.09272321     1.34813267     0.00020247    -0.00016828     0.00011937
H         0.88427923    -0.03522216    -0.71815033    -0.00018697    -0.00048567    -0.00083310
H         0.81302830     0.10176527     1.94303426    -0.00142960     0.00089422    -0.00029296
H        -0.95922793     0.09678704     1.87148495    -0.00125342     0.00057690     0.00082955
H        -0.96338520     0.21161600    -0.62784875     0.00029539     0.00027444    -0.00044441
     6
  Step:    38            Position(A)                                  Velocity(au)
C        -0.03602453     0.02096060    -0.02646359    -0.00001522     0.00009000    -0.00006678
N        -0.03916281    -0.09364699     1.34877289     0.00019247    -0.00016443     0.00011100
H         0.88309254    -0.03796052    -0.72248693    -0.00024011    -0.00050070    -0.00072773
H         0.80495011     0.10674197     1.94125880    -0.00146610     0.00090112    -0.00033727
H        -0.96571594     0.09986578     1.87583836    -0.00107324     0.00052922     0.00073136
H        -0.96177000     0.21316282    -0.63023166     0.00028622     0.00028289    -0.00041299
     6
  Step:    39            Position(A)                                  Velocity(au)
C        -0.03609590     0.02145925    -0.02680649    -0.00001058     0.00008953    -0.00005679
N        -0.03812565    -0.09455005     1.34936585     0.00017951    -0.00016081     0.00010220
H         0.88161163    -0.04078502    -0.72623550    -0.00029235    -0.00051649    -0.00062155
H         0.79673976     0.11177686     1.93928711    -0.00147619     0.00091508    -0.00036317
H        -0.97115173     0.10266669     1.87961044    -0.00087695     0.00047712     0.00062165
H        -0.96020521     0.21475895    -0.63243716     0.00027706     0.00029211    -0.00038041
     6
  Step:    40            Position(A)                                  Velocity(au)
C        -0.03614215     0.02195551    -0.02709465    -0.00000619     0.00008915    -0.00004708
N        -0.03716795    -0.09543400     1.34990863     0.00016404    -0.00015761     0.00009287
H         0.87984379    -0.04370009    -0.72939409    -0.00034302    -0.00053338    -0.00051582
H         0.78854570     0.11691093     1.93722300    -0.00146038     0.00093715    -0.00037056
H        -0.97546120     0.10516788     1.88274653    -0.00067036     0.00042179     0.00050399
H        -0.95869116     0.21640899    -0.63445903     0.00026791     0.00030237    -0.00034697
     6
  Step:    41            Position(A)                                  Velocity(au)
C        -0.03616466     0.02244991    -0.02732971    -0.00000205     0.00008891    -0.00003770
N        -0.03630276    -0.09630148     1.35039780     0.00014648    -0.00015501     0.00008291
H         0.87779984    -0.04671216    -0.73196748    -0.00039162    -0.00055177    -0.00041155
H         0.78051159     0.12219074     1.93516931    -0.00141986     0.00096827    -0.00035990
H        -0.97860095     0.10735378     1.88521097    -0.00045841     0.00036423     0.00038148
H        -0.95722807     0.21811899    -0.63629281     0.00025880     0.00031394    -0.00031294
     6
  Step:    42            Position(A)                                  Velocity(au)
C        -0.03616489     0.02294320    -0.02751342     0.00000183     0.00008885    -0.00002863
N        -0.03554073    -0.09715603     1.35082969     0.00012722    -0.00015315     0.00007230
H         0.87549330    -0.04982973    -0.73396598    -0.00043772    -0.00057203    -0.00030951
H         0.77277240     0.12766744     1.93322480    -0.00135642     0.00100917    -0.00033217
H        -0.98055367     0.10921416     1.88698439    -0.00024522     0.00030525     0.00025670
H        -0.95581616     0.21989658    -0.63793549     0.00024968     0.00032711    -0.00027850
     6
  Step:    43            Position(A)                                  Velocity(au)
C        -0.03614434     0.02343637    -0.02764764     0.00000545     0.00008899    -0.00001991
N        -0.03489023    -0.09800189     1.35120060     0.00010666    -0.00015212     0.00006105
H         0.87293976    -0.05306345    -0.73540404    -0.00048101    -0.00059453    -0.00021030
H         0.76545109     0.13339568     1.93148117    -0.00127237     0.00106035    -0.00028884
H        -0.98132367     0.11074302     1.88806110    -0.00003419     0.00024547     0.00013180
H        -0.95445579     0.22175099    -0.63938507     0.00024051     0.00034219    -0.00024377
     6
  Step:    44            Position(A)                                  Velocity(au)
C        -0.03610446     0.02393058    -0.02773430     0.00000881     0.00008937    -0.00001152
N        -0.03435735    -0.09884381     1.35150706     0.00008518    -0.00015199     0.00004920
H         0.87015649    -0.05642613    -0.73629925    -0.00052118    -0.00061965    -0.00011432
H         0.75865530     0.13943212     1.93002011    -0.00117059     0.00112201    -0.00023190
H        -0.98093305     0.11193767     1.88844675     0.00017183     0.00018536     0.00000862
H        -0.95314762     0.22369318    -0.64064015     0.00023121     0.00035946    -0.00020878
     6