|===============================================================================
|
|  DFTB+ release 20.1
|
|  Copyright (C) 2006 - 2020  DFTB+ developers group
|
|===============================================================================
|
|  When publishing results obtained with DFTB+, please cite the following
|  reference:
|
|  * DFTB+, a software package for efficient approximate density functional
|    theory based atomistic simulations, J. Chem. Phys. 152, 124101 (2020).
|    [doi: 10.1063/1.5143190]
|
|  You should also cite additional publications crediting the parametrization
|  data you use. Please consult the documentation of the SK-files for the
|  references.
|
|===============================================================================

Reading input file 'dftb_in.hsd'
Parser version: 8

--------------------------------------------------------------------------------
Reading SK-files:
Done.


Processed input in HSD format written to 'dftb_pin.hsd'

Starting initialization...
--------------------------------------------------------------------------------
WARNING!
-> Excited state forces are not implemented yet for fractional occupations, kT=  0.3158E-02K
OpenMP threads:              1
Chosen random seed:          433438019
Mode:                        Static calculation
Self consistent charges:     Yes
SCC-tolerance:                 0.100000E-05
Max. scc iterations:                    100
Shell resolved Hubbard:      No
Spin polarisation:           No
Nr. of up electrons:             6.000000
Nr. of down electrons:           6.000000
Periodic boundaries:         No
Electronic solver:           Relatively robust
Mixer:                       Broyden mixer
Mixing parameter:                  0.200000
Maximal SCC-cycles:                     100
Nr. of chrg. vec. in memory:              0
Electronic temperature:        0.100000E-07 H      0.272114E-06 eV
Initial charges:             Set automatically (system chrg:   0.100E+01)
Included shells:             C:  s, p
                             N:  s, p
                             H:  s
Extra options:
                             Mulliken analysis
                             Force calculation
Force type                   original
                             Eigenvector printing

--------------------------------------------------------------------------------

***  Geometry step: 0

 iSCC Total electronic   Diff electronic      SCC error    
    1   -0.53298869E+01    0.00000000E+00    0.94808235E+00
    2   -0.53410225E+01   -0.11135567E-01    0.62810697E+00
    3   -0.53474562E+01   -0.64336762E-02    0.15866753E+00
    4   -0.53481655E+01   -0.70934673E-03    0.14932528E+00
    5   -0.53486126E+01   -0.44704855E-03    0.28303229E-01
    6   -0.53486074E+01    0.51597003E-05    0.26253414E-01
    7   -0.53486461E+01   -0.38656185E-04    0.10249623E-02
    8   -0.53486461E+01   -0.13377521E-08    0.99460456E-03
    9   -0.53486461E+01   -0.56702830E-07    0.92068820E-05
   10   -0.53486461E+01    0.12454038E-10    0.17007206E-04
   11   -0.53486461E+01   -0.17718271E-10    0.10110513E-06
>> Charges saved for restart in charges.bin

Total Energy:                       -5.0823889299 H         -138.2988 eV
Extrapolated to 0:                  -5.1826259121 H         -141.0264 eV
Total Mermin free energy:           -5.0823889299 H         -138.2988 eV
Force related energy:               -5.1826259121 H         -141.0264 eV

--------------------------------------------------------------------------------
DFTB+ running times                          cpu [s]             wall clock [s]
--------------------------------------------------------------------------------
Global initialisation                  +     0.00  (  5.8%)      0.01  ( 11.6%)
SCC                                    +     0.02  ( 59.7%)      0.08  ( 68.7%)
Post-SCC processing                    +     0.01  ( 31.5%)      0.02  ( 17.0%)
--------------------------------------------------------------------------------
Missing                                +     0.00  (  3.0%)      0.00  (  2.7%)
Total                                  =     0.04  (100.0%)      0.11  (100.0%)
--------------------------------------------------------------------------------
