 Fermi distribution function

Calculation with static geometry


********************************************************************************
 iSCC Total electronic   Diff electronic      SCC error    
   13   -0.53373589E+01   -0.71231909E-12    0.57912000E-07
********************************************************************************

 Total charge:     1.00000000

 Atomic gross charges (e)
 Atom           Charge
    1       0.32905736
    2      -0.22305822
    3       0.16364180
    4       0.27026726
    5       0.29342406
    6       0.16666775

Nr. of electrons (up):     12.00000000
Atom populations (up)
 Atom       Population
    1       3.67094264
    2       5.22305822
    3       0.83635820
    4       0.72973274
    5       0.70657594
    6       0.83333225

l-shell populations (up)
 Atom Sh.   l       Population
    1   1   0       1.34931464
    1   2   1       2.32162800
    2   1   0       1.46033765
    2   2   1       3.76272057
    3   1   0       0.83635820
    4   1   0       0.72973274
    5   1   0       0.70657594
    6   1   0       0.83333225

Orbital populations (up)
 Atom Sh.   l   m       Population  Label
    1   1   0   0       1.34931464  s
    1   2   1  -1       0.51964037  p_y
    1   2   1   0       0.87952679  p_z
    1   2   1   1       0.92246084  p_x
    2   1   0   0       1.46033765  s
    2   2   1  -1       1.37428569  p_y
    2   2   1   0       1.07827459  p_z
    2   2   1   1       1.31016029  p_x
    3   1   0   0       0.83635820  s
    4   1   0   0       0.72973274  s
    5   1   0   0       0.70657594  s
    6   1   0   0       0.83333225  s

Fermi level:                        -0.4961205748 H          -13.5001 eV
Band energy:                        -8.7412513813 H         -237.8616 eV
TS:                                  0.0000000000 H            0.0000 eV
Band free energy (E-TS):            -8.7412513813 H         -237.8616 eV
Extrapolated E(0K):                 -8.7412513813 H         -237.8616 eV
Input / Output electrons (q):     12.0000000000     12.0000000000

Energy H0:                          -5.4709482210 H         -148.8721 eV
Energy SCC:                          0.1335893249 H            3.6352 eV
Total Electronic energy:            -5.3373588961 H         -145.2369 eV
Repulsive energy:                    0.1573545524 H            4.2818 eV
Total energy:                       -5.1800043437 H         -140.9551 eV
Extrapolated to 0:                  -5.1800043437 H         -140.9551 eV
Total Mermin free energy:           -5.1800043437 H         -140.9551 eV
Force related energy:               -5.1800043437 H         -140.9551 eV

SCC converged

Excitation Energy:                   0.0972298817 H            2.6458 eV

Total Forces
    1      0.005208589299     -0.002500237085      0.078272778859
    2     -0.000760407186     -0.002723833534     -0.077230217415
    3     -0.010134704020     -0.013094202903      0.002571596637
    4     -0.013446750144      0.015014580651     -0.005590136445
    5      0.013202103595     -0.011638283021     -0.000956919693
    6      0.005931168455      0.014941975891      0.002932898058

Maximal derivative component:        0.782728E-01 au


