|===============================================================================
|
|  DFTB+ release 20.1
|
|  Copyright (C) 2006 - 2020  DFTB+ developers group
|
|===============================================================================
|
|  When publishing results obtained with DFTB+, please cite the following
|  reference:
|
|  * DFTB+, a software package for efficient approximate density functional
|    theory based atomistic simulations, J. Chem. Phys. 152, 124101 (2020).
|    [doi: 10.1063/1.5143190]
|
|  You should also cite additional publications crediting the parametrization
|  data you use. Please consult the documentation of the SK-files for the
|  references.
|
|===============================================================================

Reading input file 'dftb_in.hsd'
Parser version: 8

--------------------------------------------------------------------------------
Reading SK-files:
Done.


Processed input in HSD format written to 'dftb_pin.hsd'

Starting initialization...
--------------------------------------------------------------------------------
WARNING!
-> Excited state forces are not implemented yet for fractional occupations, kT=  0.3158E-02K
OpenMP threads:              1
Chosen random seed:          505837578
Mode:                        Static calculation
Self consistent charges:     Yes
SCC-tolerance:                 0.100000E-05
Max. scc iterations:                    100
Shell resolved Hubbard:      No
Spin polarisation:           No
Nr. of up electrons:             6.000000
Nr. of down electrons:           6.000000
Periodic boundaries:         No
Electronic solver:           Relatively robust
Mixer:                       Broyden mixer
Mixing parameter:                  0.200000
Maximal SCC-cycles:                     100
Nr. of chrg. vec. in memory:              0
Electronic temperature:        0.100000E-07 H      0.272114E-06 eV
Initial charges:             Set automatically (system chrg:   0.100E+01)
Included shells:             C:  s, p
                             N:  s, p
                             H:  s
Extra options:
                             Mulliken analysis
                             Force calculation
Force type                   original
                             Eigenvector printing

--------------------------------------------------------------------------------

***  Geometry step: 0

 iSCC Total electronic   Diff electronic      SCC error    
    1   -0.53139808E+01    0.00000000E+00    0.10226986E+01
    2   -0.53277159E+01   -0.13735069E-01    0.67773127E+00
    3   -0.53352228E+01   -0.75069351E-02    0.20349855E+00
    4   -0.52637004E+01    0.71522395E-01    0.94042920E+00
    5   -0.53373157E+01   -0.73615264E-01    0.21836930E-01
    6   -0.53373329E+01   -0.17251095E-04    0.21674020E-01
    7   -0.53373391E+01   -0.62304308E-05    0.17818016E-01
    8   -0.53373566E+01   -0.17464968E-04    0.59816872E-02
    9   -0.53373575E+01   -0.85365594E-06    0.47427248E-02
   10   -0.53373589E+01   -0.14133953E-05    0.49932443E-03
   11   -0.53373589E+01   -0.12770390E-07    0.23061432E-03
   12   -0.53373589E+01   -0.35371581E-08    0.32852800E-05
   13   -0.53373589E+01   -0.71231909E-12    0.57912000E-07
>> Charges saved for restart in charges.bin

Total Energy:                       -5.0827744620 H         -138.3093 eV
Extrapolated to 0:                  -5.1800043437 H         -140.9551 eV
Total Mermin free energy:           -5.0827744620 H         -138.3093 eV
Force related energy:               -5.1800043437 H         -140.9551 eV

--------------------------------------------------------------------------------
DFTB+ running times                          cpu [s]             wall clock [s]
--------------------------------------------------------------------------------
SCC                                    +     0.02  ( 58.4%)      0.18  ( 88.6%)
Post-SCC processing                    +     0.01  ( 33.0%)      0.02  (  8.5%)
--------------------------------------------------------------------------------
Missing                                +     0.00  (  8.6%)      0.01  (  3.0%)
Total                                  =     0.03  (100.0%)      0.20  (100.0%)
--------------------------------------------------------------------------------
