     6
  Step:   120            Position(A)                                  Velocity(au)
C        -0.04140560     0.05247428    -0.00418083    -0.00011001    -0.00007561     0.00040942
N        -0.03124610    -0.01763652     1.33103110     0.00007837    -0.00002842    -0.00037614
H         0.83400636     0.25212347    -0.67541673    -0.00029718     0.00163106     0.00059243
H         0.47401328    -0.87413029     1.70548490    -0.00124358    -0.00092529    -0.00026247
H        -0.83956430     0.22987003     1.93913832     0.00070234     0.00161391    -0.00028248
H        -0.75381844    -0.65785529    -0.52381776     0.00106019    -0.00102378     0.00030072
