     6
  Step:   120            Position(A)                                  Velocity(au)
C        -0.03657438    -0.02357990    -0.22368422     0.00001801    -0.00012584     0.00003707
N        -0.03825536    -0.13888327     1.51804749     0.00001028    -0.00005716    -0.00000443
H         0.94020643     0.21917614    -0.67428370     0.00014188    -0.00015157     0.00006482
H         0.69381806     0.53436770     1.81119812    -0.00077491     0.00125292    -0.00094284
H        -0.94023956     0.25208236     1.90427327     0.00016737    -0.00038229    -0.00030380
H        -0.93929138     0.53553460    -0.57904728     0.00010824     0.00157480     0.00080159
