     6
  Step:     0            Position(A)                                  Velocity(au)
C        -0.03024679     0.00226510     0.01086460     0.00002420     0.00012578    -0.00024172
N        -0.04082086    -0.04745363     1.30705372     0.00013701    -0.00013230     0.00015805
H         0.90416450     0.07971080    -0.52923425    -0.00025869    -0.00045757     0.00040085
H         0.82889969    -0.11132644     1.83407934    -0.00137872     0.00068994    -0.00074224
H        -0.97781863    -0.06729405     1.82081577    -0.00070642     0.00037780     0.00089637
H        -1.04049993     0.06157290    -0.52636151     0.00015151    -0.00027056     0.00012901
     6
  Step:     1            Position(A)                                  Velocity(au)
C        -0.03015591     0.00294991     0.00918998     0.00000871     0.00012490    -0.00036917
N        -0.04011146    -0.04820042     1.30821029     0.00012022    -0.00014050     0.00026348
H         0.90292871     0.07732881    -0.52712200    -0.00018909    -0.00041497     0.00036765
H         0.82155229    -0.10748136     1.83020173    -0.00128666     0.00071348    -0.00066233
H        -0.98133297    -0.06513022     1.82561870    -0.00056915     0.00041170     0.00085428
H        -1.03934348     0.06016294    -0.52551662     0.00027040    -0.00024616     0.00017805
     6
  Step:     2            Position(A)                                  Velocity(au)
C        -0.03015146     0.00363149     0.00682603    -0.00000727     0.00012451    -0.00049281
N        -0.03950569    -0.04899068     1.30993604     0.00009922    -0.00014807     0.00036535
H         0.90209597     0.07517119    -0.52521231    -0.00011148    -0.00037550     0.00032674
H         0.81482426    -0.10352127     1.82683379    -0.00115180     0.00073170    -0.00055578
H        -0.98404482    -0.06279021     1.83016121    -0.00041481     0.00044173     0.00080178
H        -1.03754191     0.05888004    -0.52441375     0.00038589    -0.00022396     0.00022252
     6
  Step:     3            Position(A)                                  Velocity(au)
C        -0.03023549     0.00431235     0.00379731    -0.00002346     0.00012445    -0.00061086
N        -0.03902567    -0.04982074     1.31220821     0.00007441    -0.00015489     0.00046217
H         0.90170883     0.07321980    -0.52354653    -0.00002645    -0.00033916     0.00027851
H         0.80894844    -0.09947457     1.82411996    -0.00097524     0.00074474    -0.00042366
H        -0.98587219    -0.06029646     1.83439242    -0.00024768     0.00046743     0.00074079
H        -1.03512082     0.05771225    -0.52308168     0.00049485    -0.00020367     0.00026087
     6
  Step:     4            Position(A)                                  Velocity(au)
C        -0.03040827     0.00499409     0.00013789    -0.00003946     0.00012454    -0.00072142
N        -0.03869100    -0.05068652     1.31499622     0.00004635    -0.00016086     0.00055241
H         0.90180641     0.07145786    -0.52216300     0.00006505    -0.00030557     0.00022367
H         0.80414658    -0.09536733     1.82219528    -0.00076032     0.00075305    -0.00026856
H        -0.98675664    -0.05767249     1.83827193    -0.00007234     0.00048862     0.00067326
H        -1.03212397     0.05665012    -0.52155756     0.00059369    -0.00018476     0.00029148
     6
  Step:     5            Position(A)                                  Velocity(au)
C        -0.03066791     0.00567708    -0.00410815    -0.00005484     0.00012453    -0.00082247
N        -0.03851773    -0.05158354     1.31826171     0.00001584    -0.00016591     0.00063457
H         0.90242169     0.06987131    -0.52109554     0.00016148    -0.00027423     0.00016322
H         0.80061662    -0.09122241     1.82117701    -0.00051295     0.00075717    -0.00009474
H        -0.98666487    -0.05494203     1.84177014     0.00010624     0.00050523     0.00060127
H        -1.02861506     0.05568761    -0.51988758     0.00067856    -0.00016661     0.00031265
     6
  Step:     6            Position(A)                                  Velocity(au)
C        -0.03100998     0.00636041    -0.00888633    -0.00006908     0.00012417    -0.00091198
N        -0.03851718    -0.05250688     1.32195874    -0.00001611    -0.00016991     0.00070717
H         0.90357819     0.06844898    -0.52037216     0.00026067    -0.00024467     0.00009842
H         0.79851840    -0.08705955     1.82115580    -0.00024177     0.00075756     0.00009190
H        -0.98559096    -0.05212902     1.84486913     0.00028259     0.00051717     0.00052712
H        -1.02467879     0.05482211    -0.51812712     0.00074553    -0.00014864     0.00032272
     6
  Step:     7            Position(A)                                  Velocity(au)
C        -0.03142720     0.00704187    -0.01413165    -0.00008164     0.00012326    -0.00098799
N        -0.03869475    -0.05345103     1.32603409    -0.00004827    -0.00017276     0.00076888
H         0.90528666     0.06718217    -0.52001377     0.00035986    -0.00021652     0.00003079
H         0.79795939    -0.08289620     1.82218706     0.00004212     0.00075451     0.00028398
H        -0.98355896    -0.04925794     1.84756369     0.00045082     0.00052428     0.00045331
H        -1.02042101     0.05405398    -0.51634057     0.00079083    -0.00013038     0.00032019
     6
  Step:     8            Position(A)                                  Velocity(au)
C        -0.03190924     0.00771811    -0.01976909    -0.00009195     0.00012159    -0.00104876
N        -0.03904890    -0.05440983     1.33042799    -0.00007928    -0.00017433     0.00081860
H         0.90754207     0.06606404    -0.52003297     0.00045585    -0.00018953    -0.00003795
H         0.79898237    -0.07874855     1.82428389     0.00032572     0.00074820     0.00047312
H        -0.98062519    -0.04635404     1.84986238     0.00060474     0.00052648     0.00038252
H        -1.01596779     0.05338597    -0.51460026     0.00081114    -0.00011151     0.00030389
     6
  Step:     9            Position(A)                                  Velocity(au)
C        -0.03244277     0.00838480    -0.02571484    -0.00009952     0.00011904    -0.00109301
N        -0.03957041    -0.05537647     1.33507516    -0.00010771    -0.00017454     0.00085554
H         0.91032138     0.06508886    -0.52043286     0.00054521    -0.00016362    -0.00010587
H         0.80155686    -0.07463257     1.82741254     0.00059520     0.00073868     0.00065060
H        -0.97687986    -0.04344321     1.85178852     0.00073818     0.00052376     0.00031756
H        -1.01146232     0.05282240    -0.51298427     0.00080405    -0.00009185     0.00027323
     6
  Step:    10            Position(A)                                  Velocity(au)
C        -0.03301181     0.00903694    -0.03187870    -0.00010396     0.00011554    -0.00112014
N        -0.04024223    -0.05634359     1.33990657    -0.00013220    -0.00017335     0.00087942
H         0.91358252     0.06425128    -0.52120595     0.00062459    -0.00013882    -0.00017095
H         0.80557671    -0.07056466     1.83149201     0.00083731     0.00072599     0.00080831
H        -0.97244683    -0.04055126     1.85338069     0.00084551     0.00051637     0.00026120
H        -1.00705967     0.05236831    -0.51157312     0.00076845    -0.00007140     0.00022835
     6
  Step:    11            Position(A)                                  Velocity(au)
C        -0.03359845     0.00966924    -0.03816761    -0.00017526     0.00018537    -0.00188586
N        -0.04104011    -0.05730364     1.34485178    -0.00025298    -0.00028496     0.00148570
H         0.91726504     0.06354556    -0.52233329     0.00115296    -0.00019232    -0.00038566
H         0.81086538    -0.06656162     1.83639859     0.00173642     0.00118497     0.00156757
H        -0.96748025    -0.03770265     1.85469235     0.00153852     0.00084221     0.00036029
H        -1.00291934     0.05202863    -0.51044568     0.00117591    -0.00008387     0.00028392
     6
  Step:    12            Position(A)                                  Velocity(au)
C        -0.03456698     0.01067226    -0.04835283    -0.00009946     0.00010190    -0.00103098
N        -0.04248586    -0.05885875     1.35290791    -0.00015303    -0.00015951     0.00081911
H         0.92409413     0.06256005    -0.52497131     0.00075318    -0.00009500    -0.00032359
H         0.82102643    -0.06010396     1.84546206     0.00109771     0.00066239     0.00097276
H        -0.95883765    -0.03309292     1.85661934     0.00089991     0.00047457     0.00020042
H        -0.99692026     0.05160454    -0.50938171     0.00056096    -0.00003969     0.00005296
     6
  Step:    13            Position(A)                                  Velocity(au)
C        -0.03510918     0.01122799    -0.05409928    -0.00009163     0.00009513    -0.00100340
N        -0.04336778    -0.05974187     1.35748503    -0.00015720    -0.00015358     0.00080146
H         0.92842020     0.06208529    -0.52691434     0.00077407    -0.00007439    -0.00036184
H         0.82750842    -0.05643880     1.85112813     0.00117974     0.00063762     0.00102353
H        -0.95375556    -0.03047536     1.85769453     0.00088843     0.00045385     0.00018788
H        -0.99409401     0.05144633    -0.50931039     0.00043417    -0.00001658    -0.00003045
     6
  Step:    14            Position(A)                                  Velocity(au)
C        -0.03560123     0.01174605    -0.05967839    -0.00008200     0.00008871    -0.00097382
N        -0.04426023    -0.06059222     1.36195417    -0.00015711    -0.00014815     0.00078250
H         0.93283120     0.06172038    -0.52905546     0.00078475    -0.00005605    -0.00039453
H         0.83434241    -0.05290701     1.85701490     0.00122519     0.00061597     0.00105330
H        -0.94880978    -0.02797021     1.85873994     0.00085361     0.00043560     0.00018990
H        -0.99201972     0.05141738    -0.50972543     0.00029690     0.00000610    -0.00011858
     6
  Step:    15            Position(A)                                  Velocity(au)
C        -0.03603391     0.01222835    -0.06508111    -0.00007106     0.00008279    -0.00094508
N        -0.04513957    -0.06141255     1.36630938    -0.00015333    -0.00014352     0.00076441
H         0.93726986     0.06145322    -0.53136346     0.00078732    -0.00003978    -0.00042286
H         0.84132497    -0.04949245     1.86300635     0.00123870     0.00059826     0.00106583
H        -0.94412934    -0.02556303     1.85983610     0.00079840     0.00042089     0.00020625
H        -0.99074586     0.05151508    -0.51064760     0.00015296     0.00002840    -0.00021010
     6
  Step:    16            Position(A)                                  Velocity(au)
C        -0.03640087     0.01267771    -0.07031383    -0.00005916     0.00007741    -0.00091859
N        -0.04598567    -0.06220726     1.37055641    -0.00014626    -0.00013978     0.00074820
H         0.94169130     0.06127272    -0.53381407     0.00078306    -0.00002529    -0.00044771
H         0.84828210    -0.04617446     1.86900916     0.00122417     0.00058455     0.00106394
H        -0.93982502    -0.02323370     1.86106094     0.00072488     0.00041015     0.00023624
H        -0.99029843     0.05173703    -0.51208976     0.00000536     0.00005046    -0.00030390
     6
  Step:    17            Position(A)                                  Velocity(au)
C        -0.03669785     0.01309718    -0.07539048    -0.00004659     0.00007253    -0.00089452
N        -0.04678109    -0.06298127     1.37470654    -0.00013622    -0.00013686     0.00073395
H         0.94605818     0.06116940    -0.53638818     0.00077234    -0.00001226    -0.00046952
H         0.85506389    -0.04293199     1.87494705     0.00118427     0.00057426     0.00104934
H        -0.93599400    -0.02095993     1.86248745     0.00063452     0.00040326     0.00027880
H        -0.99068570     0.05208140    -0.51405827    -0.00014308     0.00007235    -0.00039870
     6
  Step:    18            Position(A)                                  Velocity(au)
C        -0.03692228     0.01348947    -0.08032587    -0.00003360     0.00006802    -0.00087238
N        -0.04751031    -0.06373911     1.37877122    -0.00012343    -0.00013461     0.00072113
H         0.95033582     0.06113551    -0.53906919     0.00075503    -0.00000041    -0.00048832
H         0.86153725    -0.03974692     1.88075408     0.00112100     0.00056653     0.00102300
H        -0.93272307    -0.01872012     1.86418144     0.00052883     0.00039984     0.00033240
H        -0.99189982     0.05254680    -0.51655228    -0.00028927     0.00009406    -0.00049289
     6
  Step:    19            Position(A)                                  Velocity(au)
C        -0.03707304     0.01385676    -0.08513198    -0.00002048     0.00006380    -0.00085144
N        -0.04815937    -0.06448444     1.38275912    -0.00010817    -0.00013284     0.00070908
H         0.95448931     0.06116481    -0.54184104     0.00073088     0.00001047    -0.00050400
H         0.86758166    -0.03660582     1.88637043     0.00103623     0.00056041     0.00098564
H        -0.93008875    -0.01649507     1.86619922     0.00040989     0.00039935     0.00039507
H        -0.99391586     0.05313176    -0.51956213    -0.00042975     0.00011550    -0.00058453
     6
  Step:    20            Position(A)                                  Velocity(au)
C        -0.03715059     0.01420066    -0.08981668    -0.00000754     0.00005978    -0.00083106
N        -0.04871605    -0.06521989     1.38667516    -0.00009080    -0.00013139     0.00069718
H         0.95848274     0.06125226    -0.54468716     0.00069978     0.00002056    -0.00051642
H         0.87308784    -0.03350015     1.89174071     0.00093215     0.00055512     0.00093813
H        -0.92815417    -0.01426870     1.86858515     0.00028063     0.00040123     0.00046441
H        -0.99669016     0.05383422    -0.52306784    -0.00056084     0.00013648    -0.00067156
     6
  Step:    21            Position(A)                                  Velocity(au)
C        -0.03715704     0.01452232    -0.09438412     0.00000489     0.00005591    -0.00081074
N        -0.04917028    -0.06594718     1.39052087    -0.00007179    -0.00013011     0.00068499
H         0.96228000     0.06139373    -0.54759032     0.00066192     0.00002998    -0.00052550
H         0.87795932    -0.03042563     1.89681457     0.00081147     0.00055004     0.00088161
H        -0.92696452    -0.01202820     1.87136947     0.00014485     0.00040495     0.00053769
H        -1.00015965     0.05465122    -0.52703861    -0.00067893     0.00015681    -0.00075200
     6
  Step:    22            Position(A)                                  Velocity(au)
C        -0.03709617     0.01482258    -0.09883570     0.00001652     0.00005214    -0.00079020
N        -0.04951467    -0.06666725     1.39429537    -0.00005168    -0.00012889     0.00067225
H         0.96584626     0.06158577    -0.55053303     0.00061776     0.00003883    -0.00053127
H         0.88211505    -0.02738119     1.90154819     0.00067737     0.00054475     0.00081755
H        -0.92654278    -0.00976390     1.87456669     0.00000699     0.00040998     0.00061199
H        -1.00424287     0.05557863    -0.53143341    -0.00078082     0.00017626    -0.00082408
     6
  Step:    23            Position(A)                                  Velocity(au)
C        -0.03697338     0.01510209    -0.10317116     0.00002705     0.00004846    -0.00076931
N        -0.04974491    -0.06738046     1.39799632    -0.00003106    -0.00012767     0.00065883
H         0.96914948     0.06182548    -0.55349811     0.00056800     0.00004718    -0.00053389
H         0.88549172    -0.02436796     1.90590581     0.00053338     0.00053899     0.00074764
H        -0.92688681    -0.00746915     1.87817486    -0.00012820     0.00041585     0.00068434
H        -1.00884245     0.05661126    -0.53620243    -0.00086393     0.00019465    -0.00088640
     6
  Step:    24            Position(A)                                  Velocity(au)
C        -0.03679541     0.01536138    -0.10738935     0.00003627     0.00004486    -0.00074805
N        -0.04985999    -0.06808675     1.40162070    -0.00001055    -0.00012638     0.00064475
H         0.97216168     0.06211039    -0.55646919     0.00051355     0.00005512    -0.00053359
H         0.88804553    -0.02138836     1.90986097     0.00038323     0.00053265     0.00067372
H        -0.92796818    -0.00514022     1.88217564    -0.00025596     0.00042207     0.00075189
H        -1.01384864     0.05774282    -0.54128893    -0.00092642     0.00021179    -0.00093793
     6
  Step:    25            Position(A)                                  Velocity(au)
C        -0.03657012     0.01560095    -0.11148890     0.00004400     0.00004136    -0.00072646
N        -0.04986218    -0.06878576     1.40516546     0.00000927    -0.00012500     0.00063006
H         0.97485983     0.06243843    -0.55943124     0.00045541     0.00006272    -0.00053067
H         0.88975293    -0.01844532     1.91339710     0.00023064     0.00052572     0.00059766
H        -0.92973294    -0.00277607     1.88653535    -0.00037189     0.00042819     0.00081206
H        -1.01914357     0.05896621    -0.54663159    -0.00096726     0.00022756    -0.00097811
     6
  Step:    26            Position(A)                                  Velocity(au)
C        -0.03630611     0.01582132    -0.11546860     0.00005013     0.00003794    -0.00070466
N        -0.04975688    -0.06947691     1.40862786     0.00002786    -0.00012349     0.00061490
H         0.97722648     0.06280790    -0.56237092     0.00039466     0.00007003    -0.00052549
H         0.89061054    -0.01554168     1.91650779     0.00007926     0.00051829     0.00052134
H        -0.93210409    -0.00037821     1.89120684    -0.00047216     0.00043380     0.00086268
H        -1.02460583     0.06027364    -0.55216679    -0.00098624     0.00024188    -0.00100674
     6
  Step:    27            Position(A)                                  Velocity(au)
C        -0.03601243     0.01602298    -0.11932766     0.00005463     0.00003462    -0.00068276
N        -0.04955231    -0.07015952     1.41200577     0.00004474    -0.00012186     0.00059941
H         0.97925007     0.06321744    -0.56527687     0.00033238     0.00007712    -0.00051845
H         0.89063465    -0.01267972     1.91919665    -0.00006744     0.00051053     0.00044657
H        -0.93498533     0.00204966     1.89613201    -0.00055375     0.00043857     0.00090208
H        -1.03011473     0.06165694    -0.55783083    -0.00098388     0.00025469    -0.00102405
     6
  Step:    28            Position(A)                                  Velocity(au)
C        -0.03569822     0.01620649    -0.12306591     0.00005749     0.00003140    -0.00066091
N        -0.04925905    -0.07083290     1.41529772     0.00005954    -0.00012011     0.00058373
H         0.98092500     0.06366603    -0.56813990     0.00026965     0.00008405    -0.00050996
H         0.88986013    -0.00986076     1.92147699    -0.00020625     0.00050265     0.00037505
H        -0.93826592     0.00450193     1.90124469    -0.00061458     0.00044220     0.00092915
H        -1.03555389     0.06310772    -0.56356178    -0.00096129     0.00026600    -0.00103052
     6
  Step:    29            Position(A)                                  Velocity(au)
C        -0.03537250     0.01637244    -0.12668392     0.00005877     0.00002829    -0.00063925
N        -0.04888962    -0.07149638     1.41850296     0.00007196    -0.00011825     0.00056800
H         0.98225146     0.06415301    -0.57095304     0.00020749     0.00009090    -0.00050045
H         0.88833901    -0.00708490     1.92337119    -0.00033425     0.00049491     0.00030835
H        -0.94182594     0.00697160     1.90647393    -0.00065350     0.00044451     0.00094332
H        -1.04081438     0.06461764    -0.56930107    -0.00092006     0.00027582    -0.00102692
     6
  Step:    30            Position(A)                                  Velocity(au)
C        -0.03504387     0.01652142    -0.13018294     0.00005856     0.00002529    -0.00061792
N        -0.04845792    -0.07214941     1.42162140     0.00008180    -0.00011631     0.00055232
H         0.98323504     0.06467806    -0.57371157     0.00014681     0.00009773    -0.00049031
H         0.88613881    -0.00435075     1.92490997    -0.00044888     0.00048759     0.00024789
H        -0.94554150     0.00945076     1.91174699    -0.00067026     0.00044537     0.00094457
H        -1.04579721     0.06617856    -0.57499484    -0.00086217     0.00028424    -0.00101422
     6
  Step:    31            Position(A)                                  Velocity(au)
C        -0.03472042     0.01665405    -0.13356471     0.00005696     0.00002240    -0.00059698
N        -0.04797876    -0.07279157     1.42465327     0.00008894    -0.00011432     0.00053675
H         0.98388628     0.06524129    -0.57641291     0.00008845     0.00010462    -0.00047995
H         0.88334054    -0.00165537     1.92613151    -0.00054794     0.00048098     0.00019489
H        -0.94928955     0.01193102     1.91699210    -0.00066543     0.00044478     0.00093330
H        -1.05041498     0.06778277    -0.58059487    -0.00078977     0.00029133    -0.00099348
     6
  Step:    32            Position(A)                                  Velocity(au)
C        -0.03440951     0.01677092    -0.13683139     0.00005411     0.00001963    -0.00057652
N        -0.04746743    -0.07342261     1.42759907     0.00009334    -0.00011232     0.00052133
H         0.98422004     0.06584321    -0.57905660     0.00003310     0.00011166    -0.00046970
H         0.88003657     0.00100581     1.92708043    -0.00062963     0.00047537     0.00015041
H        -0.95295217     0.01440414     1.92214091    -0.00064026     0.00044279     0.00091033
H        -1.05459266     0.06942299    -0.58605896    -0.00070512     0.00029718    -0.00096583
     6
  Step:    33            Position(A)                                  Velocity(au)
C        -0.03411779     0.01687261    -0.13998546     0.00005014     0.00001695    -0.00055663
N        -0.04693919    -0.07404252     1.43045939     0.00009505    -0.00011035     0.00050611
H         0.98425490     0.06648489    -0.58164401    -0.00001863     0.00011897    -0.00045989
H         0.87632830     0.00363884     1.92780664    -0.00069259     0.00047099     0.00011526
H        -0.95642018     0.01686244     1.92713048    -0.00059656     0.00043958     0.00087674
H        -1.05826800     0.07109244    -0.59135137    -0.00061050     0.00030187    -0.00093242
     6
  Step:    34            Position(A)                                  Velocity(au)
C        -0.03385111     0.01695972    -0.14303027     0.00004520     0.00001439    -0.00053748
N        -0.04640896    -0.07465150     1.43323537     0.00009414    -0.00010845     0.00049120
H         0.98401253     0.06716811    -0.58417814    -0.00006626     0.00012671    -0.00045077
H         0.87232355     0.00625098     1.92836397    -0.00073593     0.00046801     0.00009001
H        -0.95959569     0.01929944     1.93190467    -0.00053648     0.00043540     0.00083382
H        -1.06139147     0.07278475    -0.59644279    -0.00050811     0.00030545    -0.00089440
     6
  Step:    35            Position(A)                                  Velocity(au)
C        -0.03361454     0.01703282    -0.14597016     0.00003940     0.00001193    -0.00051922
N        -0.04589096    -0.07525006     1.43592883     0.00009078    -0.00010667     0.00047671
H         0.98351708     0.06789576    -0.58666325    -0.00010938     0.00013519    -0.00044253
H         0.86813392     0.00885005     1.92880890    -0.00075919     0.00046638     0.00007503
H        -0.96239377     0.02171054     1.93641488    -0.00046244     0.00043075     0.00078294
H        -1.06392564     0.07449353    -0.60131023    -0.00039999     0.00030780    -0.00085286
     6
  Step:    36            Position(A)                                  Velocity(au)
C        -0.03341247     0.01709248    -0.14881029     0.00003284     0.00000957    -0.00050196
N        -0.04539842    -0.07583891     1.43854210     0.00008517    -0.00010504     0.00046268
H         0.98279485     0.06867311    -0.58910444    -0.00014756     0.00014535    -0.00043521
H         0.86387213     0.01144281     1.92919917    -0.00076242     0.00046529     0.00007047
H        -0.96474360     0.02409458     1.94062047    -0.00037698     0.00042679     0.00072547
H        -1.06584420     0.07621119    -0.60593685    -0.00028795     0.00030819    -0.00080895
     6
  Step:    37            Position(A)                                  Velocity(au)
C        -0.03324911     0.01713926    -0.15155626     0.00002475     0.00000725    -0.00048781
N        -0.04494310    -0.07641896     1.44107780     0.00007898    -0.00010448     0.00045185
H         0.98187495     0.06951331    -0.59150649    -0.00017511     0.00017516    -0.00043559
H         0.85964928     0.01402802     1.92959310    -0.00075398     0.00045049     0.00007964
H        -0.96658904     0.02646013     1.94448835    -0.00028637     0.00044600     0.00066910
H        -1.06713006     0.07792329    -0.61031262    -0.00017705     0.00029377    -0.00077946
     6
  Step:    38            Position(A)                                  Velocity(au)
C        -0.03312116     0.01716604    -0.15401999     0.00001957     0.00000375    -0.00043596
N        -0.04453264    -0.07698491     1.44341175     0.00006846    -0.00010126     0.00041343
H         0.98104318     0.07040597    -0.59420850    -0.00016472     0.00016069    -0.00048395
H         0.85556817     0.01662816     1.93008538    -0.00071197     0.00047621     0.00009753
H        -0.96793771     0.02878936     1.94807733    -0.00019079     0.00041051     0.00061203
H        -1.06809692     0.07964667    -0.61476740    -0.00011704     0.00031495    -0.00077588
     6
  Step:    39            Position(A)                                  Velocity(au)
C        -0.03303147     0.01718100    -0.15640377     0.00001248     0.00000167    -0.00042242
N        -0.04418192    -0.07754485     1.44567480     0.00005712    -0.00010036     0.00040118
H         0.98004338     0.07130000    -0.59688758    -0.00019297     0.00016284    -0.00048008
H         0.85173275     0.01932303     1.93067755    -0.00066020     0.00049283     0.00011986
H        -0.96871049     0.03102469     1.95129366    -0.00008593     0.00039569     0.00054431
H        -1.06843150     0.08142525    -0.61893975    -0.00000340     0.00032336    -0.00072546
     6
  Step:    40            Position(A)                                  Velocity(au)
C        -0.03298252     0.01718455    -0.15871435     0.00000507    -0.00000036    -0.00040991
N        -0.04389781    -0.07810018     1.44787007     0.00004467    -0.00009971     0.00038938
H         0.97889870     0.07221565    -0.59954363    -0.00021719     0.00016746    -0.00047658
H         0.84823137     0.02210505     1.93141735    -0.00059350     0.00050946     0.00015011
H        -0.96889263     0.03318664     1.95412632     0.00002044     0.00038336     0.00047537
H        -1.06813475     0.08324018    -0.62282948     0.00010907     0.00032964    -0.00067525
     6
  Step:    41            Position(A)                                  Velocity(au)
C        -0.03297512     0.01717699    -0.16095659    -0.00000241    -0.00000235    -0.00039820
N        -0.04368580    -0.07865234     1.44999949     0.00003138    -0.00009933     0.00037787
H         0.97763115     0.07315997    -0.60218084    -0.00023752     0.00017310    -0.00047391
H         0.84514085     0.02498145     1.93234477    -0.00051416     0.00052764     0.00018689
H        -0.96848348     0.03528262     1.95657350     0.00012584     0.00037220     0.00040671
H        -1.06722008     0.08508646    -0.62643961     0.00021851     0.00033535    -0.00062583
     6
  Step:    42            Position(A)                                  Velocity(au)
C        -0.03300926     0.01715850    -0.16313449    -0.00000983    -0.00000431    -0.00038713
N        -0.04354950    -0.07920279     1.45206460     0.00001760    -0.00009921     0.00036662
H         0.97626217     0.07413711    -0.60480423    -0.00025406     0.00017939    -0.00047216
H         0.84252399     0.02796198     1.93349193    -0.00042483     0.00054758     0.00022872
H        -0.96749577     0.03731824     1.95864091     0.00022792     0.00036206     0.00033961
H        -1.06570923     0.08696272    -0.62977637     0.00032349     0.00034099    -0.00057775
     6
  Step:    43            Position(A)                                  Velocity(au)
C        -0.03308420     0.01712919    -0.16525141    -0.00001707    -0.00000626    -0.00037659
N        -0.04349049    -0.07975300     1.45406673     0.00000372    -0.00009935     0.00035556
H         0.97481258     0.07515008    -0.60741895    -0.00026693     0.00018617    -0.00047130
H         0.84042777     0.03105632     1.93488219    -0.00032846     0.00056918     0.00027396
H        -0.96595495     0.03929937     1.96034114     0.00032442     0.00035305     0.00027528
H        -1.06363129     0.08886941    -0.63284913     0.00042271     0.00034681    -0.00053156
     6
  Step:    44            Position(A)                                  Velocity(au)
C        -0.03319856     0.01708907    -0.16731005    -0.00002401    -0.00000822    -0.00036645
N        -0.04350826    -0.08030437     1.45600705    -0.00000990    -0.00009973     0.00034470
H         0.97330251     0.07620133    -0.61002998    -0.00027625     0.00019336    -0.00047130
H         0.83888204     0.03427296     1.93652951    -0.00022821     0.00059214     0.00032086
H        -0.96389859     0.04123281     1.96169319     0.00041321     0.00034534     0.00021485
H        -1.06102228     0.09080813    -0.63567020     0.00051494     0.00035301    -0.00048777
     6