 Fermi distribution function

Calculation with static geometry


********************************************************************************
 iSCC Total electronic   Diff electronic      SCC error    
   10   -0.54296479E+01   -0.10036416E-12    0.12940454E-07
********************************************************************************

 Total charge:     1.00000000

 Atomic gross charges (e)
 Atom           Charge
    1       0.13892954
    2      -0.02126693
    3       0.15474525
    4       0.27330346
    5       0.27238269
    6       0.18190599

Nr. of electrons (up):     12.00000000
Atom populations (up)
 Atom       Population
    1       3.86107046
    2       5.02126693
    3       0.84525475
    4       0.72669654
    5       0.72761731
    6       0.81809401

l-shell populations (up)
 Atom Sh.   l       Population
    1   1   0       1.31033547
    1   2   1       2.55073500
    2   1   0       1.41838957
    2   2   1       3.60287736
    3   1   0       0.84525475
    4   1   0       0.72669654
    5   1   0       0.72761731
    6   1   0       0.81809401

Orbital populations (up)
 Atom Sh.   l   m       Population  Label
    1   1   0   0       1.31033547  s
    1   2   1  -1       0.62504642  p_y
    1   2   1   0       0.87783733  p_z
    1   2   1   1       1.04785125  p_x
    2   1   0   0       1.41838957  s
    2   2   1  -1       1.34374081  p_y
    2   2   1   0       1.10418838  p_z
    2   2   1   1       1.15494817  p_x
    3   1   0   0       0.84525475  s
    4   1   0   0       0.72669654  s
    5   1   0   0       0.72761731  s
    6   1   0   0       0.81809401  s

Fermi level:                        -0.4928857762 H          -13.4121 eV
Band energy:                        -8.9690552917 H         -244.0604 eV
TS:                                  0.0000000000 H            0.0000 eV
Band free energy (E-TS):            -8.9690552917 H         -244.0604 eV
Extrapolated E(0K):                 -8.9690552917 H         -244.0604 eV
Input / Output electrons (q):     12.0000000000     12.0000000000

Energy H0:                          -5.5637909361 H         -151.3985 eV
Energy SCC:                          0.1341430421 H            3.6502 eV
Total Electronic energy:            -5.4296478941 H         -147.7482 eV
Repulsive energy:                    0.1958274044 H            5.3287 eV
Total energy:                       -5.2338204897 H         -142.4195 eV
Extrapolated to 0:                  -5.2338204897 H         -142.4195 eV
Total Mermin free energy:           -5.2338204897 H         -142.4195 eV
Force related energy:               -5.2338204897 H         -142.4195 eV

SCC converged

Excitation Energy:                   0.1568676190 H            4.2686 eV

Total Forces
    1     -0.005089828138     -0.000536046441     -0.006934164815
    2      0.004629321752      0.008452389411     -0.013206371463
    3     -0.005453959074     -0.004387584914      0.004203838942
    4     -0.007878705606      0.002510442717      0.003124759483
    5      0.003666496486     -0.007527180677      0.007094731796
    6      0.010126674579      0.001487979904      0.005717206058

Maximal derivative component:        0.132064E-01 au


