     6
  Step:     0            Position(A)                                  Velocity(au)
C        -0.03080934     0.00892299     0.03577962     0.00005265    -0.00012510     0.00016791
N        -0.05066641    -0.04163763     1.28475335    -0.00001572     0.00008633    -0.00015629
H         0.88168302     0.00968969    -0.54738108    -0.00005793     0.00042233     0.00032360
H         0.84964524    -0.19185378     1.85551226    -0.00040434    -0.00024597     0.00002314
H        -0.88651521    -0.07308102     1.79128759     0.00068466    -0.00030183     0.00030470
H        -0.98654644     0.05775084    -0.48711385    -0.00063134     0.00041654    -0.00048044
     6
  Step:     1            Position(A)                                  Velocity(au)
C        -0.03051599     0.00824445     0.03647925     0.00005403    -0.00012323     0.00008689
N        -0.05067969    -0.04117161     1.28410444     0.00001080     0.00008428    -0.00008055
H         0.88160146     0.01202598    -0.54588758     0.00002871     0.00043293     0.00022182
H         0.84704212    -0.19317739     1.85545602    -0.00054495    -0.00023880    -0.00004295
H        -0.88343131    -0.07477549     1.79347391     0.00044051    -0.00031865     0.00049650
H        -0.99025684     0.06004237    -0.49005689    -0.00071809     0.00042176    -0.00059141
     6
  Step:     2            Position(A)                                  Velocity(au)
C        -0.03021871     0.00757580     0.03672953     0.00005419    -0.00012176     0.00000398
N        -0.05054839    -0.04071624     1.28387272     0.00003686     0.00008263    -0.00000399
H         0.88199687     0.01442266    -0.54495602     0.00011608     0.00044538     0.00011879
H         0.84368762    -0.19446440     1.85504269    -0.00067911    -0.00023337    -0.00010658
H        -0.88169934    -0.07656462     1.79671547     0.00019468    -0.00033699     0.00068942
H        -0.99439688     0.06236173    -0.49357932    -0.00078969     0.00042756    -0.00069356
     6
  Step:     3            Position(A)                                  Velocity(au)
C        -0.02992419     0.00691479     0.03652268     0.00005311    -0.00012066    -0.00008020
N        -0.05027711    -0.04026918     1.28406082     0.00006179     0.00008141     0.00007299
H         0.88286909     0.01688987    -0.54459033     0.00020296     0.00045957     0.00001514
H         0.83962578    -0.19572597     1.85429211    -0.00080383    -0.00023019    -0.00016559
H        -0.88130522    -0.07845573     1.80100289    -0.00004544    -0.00035642     0.00087831
H        -0.99888083     0.06471164    -0.49763112    -0.00084523     0.00043365    -0.00078647
     6
  Step:     4            Position(A)                                  Velocity(au)
C        -0.02963919     0.00625925     0.03585447     0.00005077    -0.00011989    -0.00016483
N        -0.04987421    -0.03982801     1.28466908     0.00008484     0.00008059     0.00014982
H         0.88421134     0.01943711    -0.54479088     0.00028795     0.00047521    -0.00008834
H         0.83491692    -0.19697605     1.85323591    -0.00091562    -0.00022973    -0.00021764
H        -0.88219516    -0.08045359     1.80629880    -0.00027252    -0.00037630     0.00105761
H        -1.00361926     0.06709335    -0.50216060    -0.00088379     0.00043963    -0.00086950
     6
  Step:     5            Position(A)                                  Velocity(au)
C        -0.02937049     0.00560733     0.03472511     0.00004717    -0.00011935    -0.00024886
N        -0.04935191    -0.03939034     1.28569470     0.00010526     0.00008015     0.00022569
H         0.88600923     0.02207222    -0.54555368     0.00036938     0.00049181    -0.00019056
H         0.82964058    -0.19823129     1.85191868    -0.00101038    -0.00023245    -0.00026014
H        -0.88427713    -0.08255942     1.81253644    -0.00047938    -0.00039581     0.00122147
H        -1.00851881     0.06950591    -0.50711335    -0.00090439     0.00044494    -0.00094176
     6
  Step:     6            Position(A)                                  Velocity(au)
C        -0.02912483     0.00495773     0.03314067     0.00004232    -0.00011891    -0.00033088
N        -0.04872637    -0.03895401     1.28713029     0.00012228     0.00008003     0.00029945
H         0.88823947     0.02480032    -0.54686896     0.00044532     0.00050867    -0.00029011
H         0.82389863    -0.19951089     1.85039909    -0.00108349    -0.00023875    -0.00029032
H        -0.88742282    -0.08476992     1.81961897    -0.00065926    -0.00041397     0.00136399
H        -1.01348166     0.07194541    -0.51243051    -0.00090609     0.00044892    -0.00100205
     6
  Step:     7            Position(A)                                  Velocity(au)
C        -0.02890876     0.00430985     0.03111471     0.00003628    -0.00011842    -0.00040918
N        -0.04801763    -0.03851712     1.28896213     0.00013518     0.00008016     0.00036958
H         0.89086836     0.02762268    -0.54871928     0.00051356     0.00052495    -0.00038519
H         0.81781797    -0.20083643     1.84875081    -0.00113007    -0.00024900    -0.00030540
H        -0.89147072    -0.08707654     1.82741973    -0.00080615    -0.00042971     0.00147953
H        -1.01840569     0.07440441    -0.51804733    -0.00088817     0.00045086    -0.00104903
     6
  Step:     8            Position(A)                                  Velocity(au)
C        -0.02872843     0.00366393     0.02867001     0.00002918    -0.00011771    -0.00048179
N        -0.04724943    -0.03807814     1.29116833     0.00014332     0.00008048     0.00043434
H         0.89385058     0.03053585    -0.55107755     0.00057179     0.00053964    -0.00047368
H         0.81155156    -0.20223141     1.84706226    -0.00114552    -0.00026343    -0.00030288
H        -0.89623072    -0.08946494     1.83578419    -0.00091519    -0.00044193     0.00156317
H        -1.02318570     0.07687152    -0.52389216    -0.00085035     0.00045002    -0.00108134
     6
  Step:     9            Position(A)                                  Velocity(au)
C        -0.02858932     0.00302115     0.02583989     0.00002118    -0.00011662    -0.00054660
N        -0.04644854    -0.03763602     1.29371743     0.00014624     0.00008088     0.00049179
H         0.89712856     0.03353095    -0.55390534     0.00061775     0.00055174    -0.00055327
H         0.80527626    -0.20372061     1.84543475    -0.00112617    -0.00028213    -0.00028089
H        -0.90149066    -0.09191499     1.84453402    -0.00098313    -0.00044960     0.00161117
H        -1.02771568     0.07933141    -0.52988634    -0.00079298     0.00044571    -0.00109780
     6
  Step:    10            Position(A)                                  Velocity(au)
C        -0.02849594     0.00238359     0.02266884     0.00001251    -0.00011500    -0.00060159
N        -0.04564386    -0.03719016     1.29656771     0.00014373     0.00008128     0.00054007
H         0.90063298     0.03659348    -0.55715192     0.00064952     0.00056027    -0.00062168
H         0.79918720    -0.20532891     1.84397837    -0.00106995    -0.00030491    -0.00023860
H        -0.90702467    -0.09440121     1.85347339    -0.00100869    -0.00045191     0.00162144
H        -1.03189199     0.08176508    -0.53594501    -0.00071725     0.00043743    -0.00109765
     6
  Step:    11            Position(A)                                  Velocity(au)
C        -0.02845154     0.00175414     0.01921198     0.00000345    -0.00011276    -0.00064506
N        -0.04486502    -0.03674050     1.29966758     0.00013589     0.00008161     0.00057763
H         0.90428458     0.03970361    -0.56075454     0.00066576     0.00056445    -0.00067695
H         0.79348827    -0.20707988     1.84280600    -0.00097710    -0.00033134    -0.00017657
H        -0.91260376    -0.09689387     1.86239793    -0.00099289    -0.00044836     0.00159398
H        -1.03561790     0.08415075    -0.54197948    -0.00062529     0.00042490    -0.00108084
     6
  Step:    12            Position(A)                                  Velocity(au)
C        -0.02845783     0.00113628     0.01553334    -0.00000570    -0.00010985    -0.00067590
N        -0.04414064    -0.03628745     1.30295728     0.00012318     0.00008179     0.00060345
H         0.90799749     0.04283724    -0.56464018     0.00066599     0.00056382    -0.00071775
H         0.78837883    -0.20899413     1.84202522    -0.00085058    -0.00036072    -0.00009691
H        -0.91800771    -0.09936080     1.87110561    -0.00093905    -0.00043885     0.00153108
H        -1.03880879     0.08646517    -0.54790101    -0.00052018     0.00040815    -0.00104825
     6
  Step:    13            Position(A)                                  Velocity(au)
C        -0.02851485     0.00053369     0.01170257    -0.00001462    -0.00010631    -0.00069385
N        -0.04349651    -0.03583179     1.30637212     0.00010636     0.00008180     0.00061738
H         0.91168388     0.04596782    -0.56872897     0.00065076     0.00055841    -0.00074368
H         0.78403813    -0.21108755     1.84172935    -0.00069616    -0.00039214    -0.00000322
H        -0.92303682    -0.10176958     1.87940862    -0.00085265    -0.00042381     0.00143732
H        -1.04139719     0.08868543    -0.55362577    -0.00040575     0.00038763    -0.00100178
     6
  Step:    14            Position(A)                                  Velocity(au)
C        -0.02862099    -0.00005012     0.00779023    -0.00002306    -0.00010229    -0.00069971
N        -0.04295372    -0.03537455     1.30984696     0.00008649     0.00008166     0.00062020
H         0.91525969     0.04906889    -0.57293930     0.00062175     0.00054878    -0.00075548
H         0.78061000    -0.21337029     1.84198928    -0.00052185    -0.00042473     0.00009983
H        -0.92752299    -0.10409035     1.88714551    -0.00074081    -0.00040417     0.00131929
H        -1.04333682     0.09079098    -0.55908049    -0.00028625     0.00036418    -0.00094443
     6
  Step:    15            Position(A)                                  Velocity(au)
C        -0.02877319    -0.00061244     0.00386224    -0.00003083    -0.00009800    -0.00069529
N        -0.04252739    -0.03491674     1.31332154     0.00006475     0.00008145     0.00061369
H         0.91865066     0.05211701    -0.57719426     0.00058154     0.00053610    -0.00075510
H         0.77819071    -0.21584668     1.84284796    -0.00033682    -0.00045779     0.00020725
H        -0.93133774    -0.10629841     1.89419151    -0.00061146    -0.00038132     0.00118490
H        -1.04460462     0.09276610    -0.56420829    -0.00016570     0.00033894    -0.00088000
     6
  Step:    16            Position(A)                                  Velocity(au)
C        -0.02896750    -0.00115177    -0.00002584    -0.00003786    -0.00009374    -0.00068322
N        -0.04222589    -0.03445893     1.31674570     0.00004228     0.00008130     0.00060034
H         0.92179708     0.05509545    -0.58142771     0.00053323     0.00052199    -0.00074537
H         0.77682364    -0.21851649     1.84431907    -0.00014998    -0.00049104     0.00031450
H        -0.93439668    -0.10837694     1.90046551    -0.00047227    -0.00035689     0.00104224
H        -1.04519949     0.09460113    -0.56897295    -0.00004736     0.00031318    -0.00081261
     6
  Step:    17            Position(A)                                  Velocity(au)
C        -0.02919959    -0.00166821    -0.00383295    -0.00004418    -0.00008979    -0.00066638
N        -0.04205124    -0.03400105     1.32008320     0.00002002     0.00008137     0.00058287
H         0.92465649     0.05799618    -0.58558935     0.00047980     0.00050813    -0.00072946
H         0.77650151    -0.22137723     1.84639019     0.00003126    -0.00052454     0.00041806
H        -0.93665690    -0.11031804     1.90593036    -0.00032953    -0.00033243     0.00089834
H        -1.04513803     0.09629351    -0.57336079     0.00006669     0.00028811    -0.00074606
     6
  Step:    18            Position(A)                                  Velocity(au)
C        -0.02946528    -0.00216342    -0.00753393    -0.00004988    -0.00008638    -0.00064730
N        -0.04200031    -0.03354219     1.32331283    -0.00000134     0.00008178     0.00056366
H         0.92720298     0.06082055    -0.58964645     0.00042361     0.00049598    -0.00071023
H         0.77717584    -0.22442639     1.84902932     0.00020151    -0.00055851     0.00051551
H        -0.93810945    -0.11212243     1.91058699    -0.00018768    -0.00030919     0.00075826
H        -1.04444805     0.09784724    -0.57737868     0.00017561     0.00026459    -0.00068317
     6
  Step:    19            Position(A)                                  Velocity(au)
C        -0.02976096    -0.00264033    -0.01111741    -0.00005507    -0.00008365    -0.00062770
N        -0.04206634    -0.03308069     1.32642643    -0.00002138     0.00008263     0.00054437
H         0.92942364     0.06357776    -0.59358196     0.00036611     0.00048643    -0.00068967
H         0.77876918    -0.22766253     1.85219158     0.00035714    -0.00059302     0.00060515
H        -0.93876897    -0.11379754     1.91446356    -0.00004940    -0.00028790     0.00062496
H        -1.04316182     0.09927113    -0.58104891     0.00027936     0.00024308    -0.00062558
     6
  Step:    20            Position(A)                                  Velocity(au)
C        -0.03008355    -0.00310258    -0.01458146    -0.00005979    -0.00008161    -0.00060836
N        -0.04224031    -0.03261450     1.32942482    -0.00003979     0.00008388     0.00052580
H         0.93131352     0.06628204    -0.59738979     0.00030793     0.00047978    -0.00066877
H         0.78118572    -0.23108463     1.85582374     0.00049557    -0.00062770     0.00068545
H        -0.93866410    -0.11535491     1.91760380     0.00008374    -0.00026886     0.00049969
H        -1.04131153     0.10057645    -0.58440250     0.00037817     0.00022363    -0.00057383
     6
  Step:    21            Position(A)                                  Velocity(au)
C        -0.03043035    -0.00355396    -0.01792840    -0.00006406    -0.00008020    -0.00058934
N        -0.04251183    -0.03214162     1.33231308    -0.00005635     0.00008546     0.00050808
H         0.93287114     0.06894922    -0.60106924     0.00024921     0.00047583    -0.00064769
H         0.78431738    -0.23469000     1.85986560     0.00061454    -0.00066172     0.00075474
H        -0.93783146    -0.11680763     1.92005790     0.00021052    -0.00025205     0.00038284
H        -1.03892797     0.10177477    -0.58747326     0.00047204     0.00020604    -0.00052773
     6
  Step:    22            Position(A)                                  Velocity(au)
C        -0.03079866    -0.00399793    -0.02116067    -0.00006781    -0.00007933    -0.00057022
N        -0.04286936    -0.03166043     1.33509684    -0.00007080     0.00008725     0.00049091
H         0.93409564     0.07159406    -0.60462046     0.00018990     0.00047408    -0.00062612
H         0.78804627    -0.23847187     1.86424948     0.00071192    -0.00069394     0.00081124
H        -0.93631386    -0.11816871     1.92187775     0.00032958    -0.00023730     0.00027461
H        -1.03604183     0.10287660    -0.59029397     0.00056049     0.00019001    -0.00048685
     6
  Step:    23            Position(A)                                  Velocity(au)
C        -0.03118551    -0.00443742    -0.02427845    -0.00007097    -0.00007889    -0.00055046
N        -0.04330025    -0.03116996     1.33777994    -0.00008289     0.00008912     0.00047387
H         0.93498593     0.07422868    -0.60804184     0.00013005     0.00047398    -0.00060360
H         0.79224542    -0.24241775     1.86889963     0.00078580    -0.00072311     0.00085324
H        -0.93416126    -0.11945028     1.92311596     0.00043916    -0.00022447     0.00017539
H        -1.03268633     0.10389079    -0.59289489     0.00064260     0.00017527    -0.00045075
     6
  Step:    24            Position(A)                                  Velocity(au)
C        -0.03158750    -0.00487478    -0.02727879    -0.00007345    -0.00007878    -0.00052956
N        -0.04379066    -0.03066990     1.34036365    -0.00009239     0.00009094     0.00045651
H         0.93554108     0.07686211    -0.61132922     0.00006986     0.00047498    -0.00057973
H         0.79678012    -0.24650897     1.87373282     0.00083477    -0.00074814     0.00087943
H        -0.93143278    -0.12066361     1.92382710     0.00053725    -0.00021346     0.00008590
H        -1.02889957     0.10482465    -0.59530385     0.00071721     0.00016159    -0.00041916
     6
  Step:    25            Position(A)                                  Velocity(au)
C        -0.03200071    -0.00531180    -0.03015606    -0.00007515    -0.00007892    -0.00050719
N        -0.04432570    -0.03016056     1.34284675    -0.00009911     0.00009264     0.00043851
H         0.93576131     0.07950054    -0.61447631     0.00000972     0.00047669    -0.00055430
H         0.80151059    -0.25072143     1.87866040     0.00085820    -0.00076823     0.00088909
H        -0.92819827    -0.12181951     1.92406938     0.00062169    -0.00020427     0.00000713
H        -1.02472598     0.10568424    -0.59754716     0.00078306     0.00014883    -0.00039200
     6
  Step:    26            Position(A)                                  Velocity(au)
C        -0.03242079    -0.00574987    -0.03290275    -0.00007572    -0.00007657    -0.00052286
N        -0.04488959    -0.02964263     1.34522611    -0.00010241     0.00009415     0.00045039
H         0.93564887     0.08214793    -0.61747552    -0.00007114     0.00052485    -0.00048774
H         0.80629627    -0.25502747     1.88359145     0.00083413    -0.00084987     0.00086045
H        -0.92453913    -0.12292867     1.92390612     0.00070071    -0.00013693    -0.00006077
H        -1.02021657     0.10647492    -0.59965059     0.00086171     0.00006608    -0.00034024
     6
  Step:    27            Position(A)                                  Velocity(au)
C        -0.03283989    -0.00616042    -0.03595106    -0.00007534    -0.00007107    -0.00058235
N        -0.04546075    -0.02911711     1.34783848    -0.00010224     0.00009445     0.00049753
H         0.93497280     0.08531751    -0.61988199    -0.00017288     0.00059900    -0.00037870
H         0.81075539    -0.26014074     1.88819696     0.00076285    -0.00096675     0.00079076
H        -0.92043217    -0.12333716     1.92339585     0.00077452    -0.00002783    -0.00012679
H        -1.01517552     0.10641662    -0.60131813     0.00095403    -0.00007002    -0.00025975
     6
  Step:    28            Position(A)                                  Velocity(au)
C        -0.03325595    -0.00653773    -0.03935830    -0.00007426    -0.00006490    -0.00064486
N        -0.04602296    -0.02859561     1.35074134    -0.00009895     0.00009319     0.00054842
H         0.93373246     0.08878797    -0.62167350    -0.00027182     0.00064479    -0.00026843
H         0.81475265    -0.26574412     1.89235722     0.00066883    -0.00104111     0.00070273
H        -0.91595339    -0.12323714     1.92250061     0.00082930     0.00005629    -0.00019113
H        -1.00964087     0.10569870    -0.60252999     0.00103367    -0.00018157    -0.00018017
     6
  Step:    29            Position(A)                                  Velocity(au)
C        -0.03366384    -0.00688053    -0.04310620    -0.00007212    -0.00005853    -0.00070166
N        -0.04655873    -0.02808314     1.35392365    -0.00009246     0.00009105     0.00059518
H         0.93195674     0.09247190    -0.62286039    -0.00036355     0.00067643    -0.00016132
H         0.81817651    -0.27169256     1.89599428     0.00055631    -0.00109123     0.00060206
H        -0.91123054    -0.12271260     1.92127517     0.00085825     0.00012679    -0.00024291
H        -1.00370616     0.10440201    -0.60331720     0.00109321    -0.00027980    -0.00010775
     6
  Step:    30            Position(A)                                  Velocity(au)
C        -0.03405743    -0.00718824    -0.04715640    -0.00006880    -0.00005209    -0.00074985
N        -0.04705056    -0.02758367     1.35735611    -0.00008286     0.00008821     0.00063516
H         0.92969198     0.09630570    -0.62346642    -0.00044493     0.00069710    -0.00005993
H         0.82093539    -0.27787189     1.89904845     0.00042960    -0.00112144     0.00049238
H        -0.90641494    -0.12182800     1.91980094     0.00085804     0.00018609    -0.00027830
H        -0.99749115     0.10258905    -0.60372751     0.00112858    -0.00036676    -0.00004528
     6
  Step:    31            Position(A)                                  Velocity(au)
C        -0.03443013    -0.00746073    -0.05145828    -0.00006428    -0.00004568    -0.00078775
N        -0.04748167    -0.02710067     1.36099822    -0.00007041     0.00008476     0.00066679
H         0.92700096     0.10023638    -0.62352793    -0.00051322     0.00070856     0.00003341
H         0.82296151    -0.28418339     1.90147857     0.00029354    -0.00113441     0.00037744
H        -0.90167352    -0.12063990     1.91817539     0.00082703     0.00023531    -0.00029515
H        -0.99113577     0.10031691    -0.60382150     0.00113707    -0.00044309     0.00000515
     6
  Step:    32            Position(A)                                  Velocity(au)
C        -0.03477527    -0.00769830    -0.05595331    -0.00005862    -0.00003939    -0.00081455
N        -0.04783684    -0.02663710     1.36480228    -0.00005551     0.00008086     0.00068933
H         0.92396079     0.10421827    -0.62309335    -0.00056628     0.00071232     0.00011662
H         0.82421343    -0.29054001     1.90326335     0.00015326    -0.00113275     0.00026109
H        -0.89717942    -0.11920024     1.91650499     0.00076548     0.00027523    -0.00029269
H        -0.98479335     0.09764105    -0.60367004     0.00111741    -0.00050914     0.00004195
     6
  Step:    33            Position(A)                                  Velocity(au)
C        -0.03508658    -0.00790179    -0.06057948    -0.00005195    -0.00003333    -0.00083033
N        -0.04810322    -0.02619518     1.36871728    -0.00003867     0.00007667     0.00070280
H         0.92065987     0.10821281    -0.62222200    -0.00060275     0.00070998     0.00018809
H         0.82467770    -0.29686773     1.90440217     0.00001379    -0.00111940     0.00014706
H        -0.89310174    -0.11755790     1.91489793     0.00067556     0.00030666    -0.00027150
H        -0.97862315     0.09461563    -0.60335172     0.00106986    -0.00056547     0.00006421
     6
  Step:    34            Position(A)                                  Velocity(au)
C        -0.03535855    -0.00807253    -0.06527581    -0.00004445    -0.00002761    -0.00083597
N        -0.04827105    -0.02577629     1.37269295    -0.00002051     0.00007236     0.00070793
H         0.91719344     0.11218954    -0.62098152    -0.00062220     0.00070332     0.00024685
H         0.82436824    -0.30310807     1.90491442    -0.00012040    -0.00109764     0.00003863
H        -0.88959451    -0.11575724     1.91345675     0.00056115     0.00033067    -0.00023338
H        -0.97278149     0.09129219    -0.60294912     0.00099622    -0.00061298     0.00007173
     6
  Step:    35            Position(A)                                  Velocity(au)
C        -0.03558681    -0.00821243    -0.06998665    -0.00003636    -0.00002229    -0.00083295
N        -0.04833407    -0.02538087     1.37668358    -0.00000164     0.00006813     0.00070597
H         0.91365827     0.11612730    -0.61944424    -0.00062499     0.00069423     0.00029257
H         0.82332283    -0.30921953     1.90483690    -0.00024571    -0.00107091    -0.00006160
H        -0.88678708    -0.11383691     1.91227170     0.00042729     0.00034855    -0.00018105
H        -0.96741267     0.08771780    -0.60254451     0.00089946    -0.00065293     0.00006504
     6
  Step:    36            Position(A)                                  Velocity(au)
C        -0.03576837    -0.00832382    -0.07466474    -0.00002790    -0.00001744    -0.00082301
N        -0.04828955    -0.02500836     1.38065065     0.00001736     0.00006412     0.00069845
H         0.91014856     0.12001486    -0.61768366    -0.00061202     0.00068449     0.00032553
H         0.82159864    -0.31517931     1.90422007    -0.00035948    -0.00104255    -0.00015183
H        -0.88477807    -0.11182842     1.91141600     0.00027956     0.00036174    -0.00011775
H        -0.96264285     0.08393245    -0.60221603     0.00078313    -0.00068689     0.00004518
     6
  Step:    37            Position(A)                                  Velocity(au)
C        -0.03590163    -0.00840923    -0.07927276    -0.00001931    -0.00001306    -0.00080787
N        -0.04813816    -0.02465737     1.38456424     0.00003598     0.00006047     0.00068683
H         0.90675275     0.12385046    -0.61577126    -0.00058446     0.00067562     0.00034637
H         0.81926683    -0.32098268     1.90312379    -0.00045990    -0.00101547    -0.00023095
H        -0.88363275    -0.10975535     1.91094314     0.00012358     0.00037168    -0.00004693
H        -0.95857657     0.07996750    -0.60203470     0.00065096    -0.00071651     0.00001364
     6
  Step:    38            Position(A)                                  Velocity(au)
C        -0.03598634    -0.00847126    -0.08378292    -0.00001080    -0.00000914    -0.00078894
N        -0.04788351    -0.02432581     1.38840272     0.00005373     0.00005727     0.00067235
H         0.90355192     0.12764041    -0.61377424    -0.00054353     0.00066875     0.00035597
H         0.81640786    -0.32664065     1.90161345    -0.00054577    -0.00099199    -0.00029834
H        -0.88338322    -0.10763341     1.91088625    -0.00003525     0.00037964     0.00002798
H        -0.95529560     0.07584533    -0.60206208     0.00050664    -0.00074327    -0.00002784
     6
  Step:    39            Position(A)                                  Velocity(au)
C        -0.03602354    -0.00851238    -0.08817543    -0.00000258    -0.00000564    -0.00076729
N        -0.04753186    -0.02401114     1.39215131     0.00007020     0.00005455     0.00065593
H         0.90061937     0.13139686    -0.61175437    -0.00049043     0.00066458     0.00035525
H         0.81310813    -0.33217668     1.89975723    -0.00061623    -0.00097380    -0.00035370
H        -0.88403050    -0.10547131     1.91125885    -0.00019186     0.00038672     0.00010374
H        -0.95285942     0.07158014    -0.60234887     0.00035373    -0.00076838    -0.00007732
     6
  Step:    40            Position(A)                                  Velocity(au)
C        -0.03601542    -0.00853484    -0.09243643     0.00000517    -0.00000250    -0.00074363
N        -0.04709180    -0.02371058     1.39580033     0.00008500     0.00005235     0.00063817
H         0.89802078     0.13513562    -0.60976765    -0.00042635     0.00066347     0.00034517
H         0.80945795    -0.33762319     1.89762438    -0.00067060    -0.00096201    -0.00039688
H        -0.88554708    -0.10327198     1.91205626    -0.00034154     0.00039373     0.00017734
H        -0.95130622     0.06717946    -0.60293411     0.00019575    -0.00079274    -0.00013272
     6
  Step:    41            Position(A)                                  Velocity(au)
C        -0.03596531    -0.00854061    -0.09655612     0.00001224     0.00000031    -0.00071845
N        -0.04657393    -0.02342121     1.39934346     0.00009777     0.00005065     0.00061945
H         0.89581442     0.13887409    -0.60786437    -0.00035255     0.00066545     0.00032666
H         0.80555045    -0.34301850     1.89528436    -0.00070837    -0.00095735    -0.00042784
H        -0.88787960    -0.10103401     1.91325745    -0.00047992     0.00040128     0.00024604
H        -0.95065335     0.06264599    -0.60384466     0.00003631    -0.00081696    -0.00019187
     6
  Step:    42            Position(A)                                  Velocity(au)
C        -0.03587761    -0.00853136    -0.10052736     0.00001845     0.00000285    -0.00069209
N        -0.04599070    -0.02314013     1.40277635     0.00010822     0.00004947     0.00060000
H         0.89405051     0.14262964    -0.60608893    -0.00027051     0.00067039     0.00030077
H         0.80148058    -0.34840446     1.89280620    -0.00072924    -0.00096021    -0.00044666
H        -0.89095180    -0.09875290     1.91482712    -0.00060315     0.00040979     0.00030749
H        -0.95089732     0.05797913    -0.60509486    -0.00012087    -0.00084145    -0.00025251
     6
  Step:    43            Position(A)                                  Velocity(au)
C        -0.03575767    -0.00850849    -0.10434490     0.00002365     0.00000518    -0.00066482
N        -0.04535599    -0.02286445     1.40609591     0.00011611     0.00004879     0.00057998
H         0.89277009     0.14641868    -0.60447948    -0.00018199     0.00067802     0.00026864
H         0.79734350    -0.35382481     1.89025762    -0.00073328    -0.00097080    -0.00045361
H        -0.89466752    -0.09642221     1.91671794    -0.00070796     0.00041950     0.00035973
H        -0.95201363     0.05317622    -0.60668640    -0.00027204    -0.00086645    -0.00031241
     6
  Step:    44            Position(A)                                  Velocity(au)
C        -0.03561165    -0.00847310    -0.10800507     0.00002769     0.00000733    -0.00063692
N        -0.04468473    -0.02259135     1.40929985     0.00012128     0.00004860     0.00055953
H         0.89200357     0.15025580    -0.60306739    -0.00008900     0.00068797     0.00023150
H         0.79323285    -0.35932374     1.88770409    -0.00072094    -0.00098907    -0.00044919
H        -0.89891476    -0.09403445     1.91887330    -0.00079185     0.00043051     0.00040134
H        -0.95395716     0.04823347    -0.60860880    -0.00041359    -0.00089207    -0.00036947
     6