|===============================================================================
|
|  DFTB+ release 20.1
|
|  Copyright (C) 2006 - 2020  DFTB+ developers group
|
|===============================================================================
|
|  When publishing results obtained with DFTB+, please cite the following
|  reference:
|
|  * DFTB+, a software package for efficient approximate density functional
|    theory based atomistic simulations, J. Chem. Phys. 152, 124101 (2020).
|    [doi: 10.1063/1.5143190]
|
|  You should also cite additional publications crediting the parametrization
|  data you use. Please consult the documentation of the SK-files for the
|  references.
|
|===============================================================================

Reading input file 'dftb_in.hsd'
Parser version: 8

--------------------------------------------------------------------------------
Reading SK-files:
Done.


Processed input in HSD format written to 'dftb_pin.hsd'

Starting initialization...
--------------------------------------------------------------------------------
OpenMP threads:              1
Chosen random seed:          449659488
Mode:                        Static calculation
Self consistent charges:     Yes
SCC-tolerance:                 0.100000E-05
Max. scc iterations:                   1000
Shell resolved Hubbard:      No
Spin polarisation:           No
Nr. of up electrons:             6.000000
Nr. of down electrons:           6.000000
Periodic boundaries:         No
Electronic solver:           Relatively robust
Maximal SCC-cycles:                    1000
Initial charges:             Set automatically (system chrg:   0.100E+01)
Included shells:             C:  s, p
                             N:  s, p
                             H:  s
Spin coupling constants:     C   1(s)-1(s):  -0.455900E-01
                             C   1(s)-2(p):  -0.293000E-01
                             C   2(p)-1(s):  -0.293000E-01
                             C   2(p)-2(p):  -0.275500E-01
                             N   1(s)-1(s):  -0.468700E-01
                             N   1(s)-2(p):  -0.317000E-01
                             N   2(p)-1(s):  -0.317000E-01
                             N   2(p)-2(p):  -0.307200E-01
                             H   1(s)-1(s):  -0.792500E-01
Range separated hybrid:      Yes
  Screening parameter omega:   0.300000E+00
  Range separated algorithm:   MatrixBased
Extra options:
                             Mulliken analysis
                             Force calculation
Force type                   original
                             Eigenvector printing


REKS Calcuation:             Yes
SSR(2,2) Calcuation:         Yes
Energy Functional:           (PPS+OSS)/2
Number of Core Orbitals:                  5
Number of Active Orbitals:                2
Number of Basis:                         12
Number of States:                         2
State-Averaging Weight:          0.500000
                                 0.500000
State of Interest:                        1
Initial Guess:               Diagonalize H0 matrix
Newton-Raphson for FON opt:  Yes
NR max. Iterations:                      50
Level Shifting:              Yes
Shift Value:                     0.300000
W Scale Factor:              C  =    3.200000
                             N  =    3.200000
                             H  =    3.200000
Transition Dipole:           No
Gradient of Microstate:      No
CP-REKS Solver:              Preconditioned Conjugate-Gradient
CG max. Iterations:                     100
CG Tolerance:                  0.100000E-07
Memory for A and Hxc:        Direct Updating Without Saving
Non-Adiabatic Coupling:      Yes

--------------------------------------------------------------------------------

***  Geometry step: 0

  iSCC       reks energy        Diff energy         x_a       SCC error   
    1       -6.1592807594       0.0000000000     0.999658    1.03093081
    2       -6.1670286193      -0.0077478599     0.999972    0.05365255
    3       -6.1687266719      -0.0016980526     0.999993    0.01552720
    4       -6.1692971998      -0.0005705279     0.999997    0.00837009
    5       -6.1695439573      -0.0002467575     0.999998    0.00592993
    6       -6.1696635821      -0.0001196248     0.999999    0.00458246
    7       -6.1697251031      -0.0000615210     0.999999    0.00356962
    8       -6.1697578931      -0.0000327900     0.999999    0.00275950
    9       -6.1697757770      -0.0000178839     0.999999    0.00211675
   10       -6.1697856812      -0.0000099042     0.999999    0.00161467
   11       -6.1697912233      -0.0000055421     0.999999    0.00122716
   12       -6.1697943467      -0.0000031234     0.999999    0.00093046
   13       -6.1697961159      -0.0000017692     0.999999    0.00070446
   14       -6.1697971216      -0.0000010057     0.999999    0.00053287
   15       -6.1697976948      -0.0000005732     0.999999    0.00040287
   16       -6.1697980221      -0.0000003273     1.000000    0.00030450
   17       -6.1697982093      -0.0000001872     1.000000    0.00023012
   18       -6.1697983165      -0.0000001072     1.000000    0.00017391
   19       -6.1697983779      -0.0000000614     1.000000    0.00013144
   20       -6.1697984131      -0.0000000352     1.000000    0.00009935
   21       -6.1697984333      -0.0000000202     1.000000    0.00007511
   22       -6.1697984449      -0.0000000116     1.000000    0.00005679
   23       -6.1697984516      -0.0000000067     1.000000    0.00004295
   24       -6.1697984554      -0.0000000038     1.000000    0.00003248
   25       -6.1697984576      -0.0000000022     1.000000    0.00002457
   26       -6.1697984589      -0.0000000013     1.000000    0.00001859
   27       -6.1697984596      -0.0000000007     1.000000    0.00001407
   28       -6.1697984600      -0.0000000004     1.000000    0.00001065
   29       -6.1697984602      -0.0000000002     1.000000    0.00000806
   30       -6.1697984604      -0.0000000001     1.000000    0.00000610
   31       -6.1697984605      -0.0000000001     1.000000    0.00000462
   32       -6.1697984605      -0.0000000000     1.000000    0.00000350
   33       -6.1697984605      -0.0000000000     1.000000    0.00000265
   34       -6.1697984605      -0.0000000000     1.000000    0.00000200
   35       -6.1697984606      -0.0000000000     1.000000    0.00000152
   36       -6.1697984606      -0.0000000000     1.000000    0.00000115
   37       -6.1697984606      -0.0000000000     1.000000    0.00000087
  
--------------------------------------------------
 Final SA-REKS(2,2) energy:      -6.16979846
  
 State     Energy      FON(1)    FON(2)   Spin
  PPS   -6.19718843   1.999999  0.000001  0.00
  OSS   -6.14240849   1.000000  1.000000  0.00
 Trip   -6.17029035   1.000000  1.000000  1.00
--------------------------------------------------

 Lagrangian Wab:   0.02005084  0.02005101

--------------------------------------------------
 SSR: 2SI-2SA-REKS(2,2) Hamiltonian matrix
               PPS           OSS
   PPS    -6.19718843    0.02833659
   OSS     0.02833659   -6.14240849
--------------------------------------------------

----------------------------------------------------------------
 SSR: 2SI-2SA-REKS(2,2) states
                    E_n       C_{PPS}    C_{OSS}
 SSR state  1   -6.20920878  -0.920596   0.390516
 SSR state  2   -6.13038814  -0.390516  -0.920596
----------------------------------------------------------------

 unrelaxed SSR FONs for S0:  1.847497  0.152503

Total Energy:                       -6.2092087775 H         -168.9612 eV
Extrapolated to 0:                  -6.2092087775 H         -168.9612 eV

----------------------------------------------------------------------------------
 Solving CP-REKS equation for  1 state vector...
----------------------------------------------------------------------------------
  CG solver: Constructing Y initial guess
  CG solver: Iteration    1    eps =    0.001714994846
  CG solver: Iteration    2    eps =    0.000123844684
  CG solver: Iteration    3    eps =    0.000015085794
  CG solver: Iteration    4    eps =    0.000002203200
  CG solver: Iteration    5    eps =    0.000000112268
  CG solver: Iteration    6    eps =    0.000000009505
  Convergence reached in CG solver after    6 iterations
  CG solver: Calculating converged R, Z, Q2 matrix
----------------------------------------------------------------------------------

----------------------------------------------------------------------------------
 Solving CP-REKS equation for SI between  1 and  2 state vectors...
----------------------------------------------------------------------------------
  CG solver: Constructing Y initial guess
  CG solver: Iteration    1    eps =    0.005704014333
  CG solver: Iteration    2    eps =    0.001741276334
  CG solver: Iteration    3    eps =    0.000041002292
  CG solver: Iteration    4    eps =    0.000003744758
  CG solver: Iteration    5    eps =    0.000000143130
  CG solver: Iteration    6    eps =    0.000000012536
  CG solver: Iteration    7    eps =    0.000000001061
  Convergence reached in CG solver after    7 iterations
  CG solver: Calculating converged R, Z, Q2 matrix
----------------------------------------------------------------------------------

--------------------------------------------------
 Gradient Information
--------------------------------------------------
           1 st state (SSR)
    -0.01546606    -0.03799778    -0.11454956
    -0.29734054     0.11280537     0.27180190
     0.06764561     0.04010619    -0.01656327
     0.08775972    -0.01008421    -0.02003665
     0.13499410    -0.12084674    -0.15772437
     0.02240717     0.01601718     0.03707195

           2 st state (SSR)
    -0.03783614    -0.07008360    -0.03004254
    -0.27125639     0.14047963     0.16804061
     0.07594187     0.02075188    -0.01439451
     0.09335631     0.02297070    -0.01111593
     0.13312092    -0.15014197    -0.14324368
     0.00667344     0.03602335     0.03075605
--------------------------------------------------
 Coupling Information
--------------------------------------------------
 between  1 and  2 states
--------------------------------------------------
 g vector - difference gradient
     0.00684019     0.00985520    -0.06904366
     0.01337206     0.00607649     0.05869891
    -0.00509699     0.00340633     0.00268191
    -0.00850382    -0.01483344     0.01007856
    -0.00975677    -0.00070665    -0.00566577
     0.00314532    -0.00379793     0.00325005

 h vector - derivative coupling
    -0.00894438    -0.01278638    -0.00797131
     0.03106417     0.02511807    -0.01541721
     0.00084247    -0.01016637     0.00410047
    -0.00432790     0.00864834     0.01594531
    -0.01073343    -0.02105484     0.00459331
    -0.00790093     0.01024117    -0.00125057

 G vector - GDV
     0.01118504     0.01604291    -0.04225351
    -0.01304208    -0.01383713     0.05188065
    -0.00414813     0.00967715    -0.00108438
    -0.00279829    -0.01652746    -0.00446036
     0.00093659     0.01464762    -0.00724034
     0.00786687    -0.01000309     0.00315795

 H vector - DCV - non-adiabatic coupling
    -0.01646912    -0.02284218    -0.70011385
     0.39588813     0.27690743     0.39952085
    -0.03906714    -0.05856806     0.06062037
    -0.11573413    -0.05905696     0.23253487
    -0.18364403    -0.19209568    -0.01118292
    -0.04097371     0.05565544     0.01862069
--------------------------------------------------


--------------------------------------------------------------------------------
DFTB+ running times                          cpu [s]             wall clock [s]
--------------------------------------------------------------------------------
SCC                                    +     0.02  ( 60.3%)      0.02  ( 52.9%)
Post-SCC processing                    +     0.01  ( 34.8%)      0.01  ( 32.4%)
--------------------------------------------------------------------------------
Missing                                +     0.00  (  4.9%)      0.01  ( 14.7%)
Total                                  =     0.03  (100.0%)      0.03  (100.0%)
--------------------------------------------------------------------------------
