|===============================================================================
|
|  DFTB+ release 20.1
|
|  Copyright (C) 2006 - 2020  DFTB+ developers group
|
|===============================================================================
|
|  When publishing results obtained with DFTB+, please cite the following
|  reference:
|
|  * DFTB+, a software package for efficient approximate density functional
|    theory based atomistic simulations, J. Chem. Phys. 152, 124101 (2020).
|    [doi: 10.1063/1.5143190]
|
|  You should also cite additional publications crediting the parametrization
|  data you use. Please consult the documentation of the SK-files for the
|  references.
|
|===============================================================================

Reading input file 'dftb_in.hsd'
Parser version: 8

--------------------------------------------------------------------------------
Reading SK-files:
Done.


Processed input in HSD format written to 'dftb_pin.hsd'

Starting initialization...
--------------------------------------------------------------------------------
OpenMP threads:              1
Chosen random seed:          511178897
Mode:                        Static calculation
Self consistent charges:     Yes
SCC-tolerance:                 0.100000E-05
Max. scc iterations:                   1000
Shell resolved Hubbard:      No
Spin polarisation:           No
Nr. of up electrons:             6.000000
Nr. of down electrons:           6.000000
Periodic boundaries:         No
Electronic solver:           Relatively robust
Maximal SCC-cycles:                    1000
Initial charges:             Set automatically (system chrg:   0.100E+01)
Included shells:             C:  s, p
                             N:  s, p
                             H:  s
Spin coupling constants:     C   1(s)-1(s):  -0.455900E-01
                             C   1(s)-2(p):  -0.293000E-01
                             C   2(p)-1(s):  -0.293000E-01
                             C   2(p)-2(p):  -0.275500E-01
                             N   1(s)-1(s):  -0.468700E-01
                             N   1(s)-2(p):  -0.317000E-01
                             N   2(p)-1(s):  -0.317000E-01
                             N   2(p)-2(p):  -0.307200E-01
                             H   1(s)-1(s):  -0.792500E-01
Range separated hybrid:      Yes
  Screening parameter omega:   0.300000E+00
  Range separated algorithm:   MatrixBased
Extra options:
                             Mulliken analysis
                             Force calculation
Force type                   original
                             Eigenvector printing


REKS Calcuation:             Yes
SSR(2,2) Calcuation:         Yes
Energy Functional:           (PPS+OSS)/2
Number of Core Orbitals:                  5
Number of Active Orbitals:                2
Number of Basis:                         12
Number of States:                         2
State-Averaging Weight:          0.500000
                                 0.500000
State of Interest:                        1
Initial Guess:               Diagonalize H0 matrix
Newton-Raphson for FON opt:  Yes
NR max. Iterations:                      50
Level Shifting:              Yes
Shift Value:                     0.300000
W Scale Factor:              C  =    3.000000
                             N  =    3.000000
                             H  =    3.000000
Transition Dipole:           No
Gradient of Microstate:      No
CP-REKS Solver:              Preconditioned Conjugate-Gradient
CG max. Iterations:                     100
CG Tolerance:                  0.100000E-07
Memory for A and Hxc:        Direct Updating Without Saving
Non-Adiabatic Coupling:      Yes

--------------------------------------------------------------------------------

***  Geometry step: 0

  iSCC       reks energy        Diff energy         x_a       SCC error   
    1       -6.2638040286       0.0000000000     0.999605    1.19589071
    2       -6.2751929587      -0.0113889302     0.999825    0.08063499
    3       -6.2787616201      -0.0035686614     0.999898    0.03219385
    4       -6.2805260685      -0.0017644484     0.999929    0.01449499
    5       -6.2815132897      -0.0009872212     0.999945    0.00737337
    6       -6.2820940027      -0.0005807130     0.999954    0.00633929
    7       -6.2824413406      -0.0003473379     0.999958    0.00523531
    8       -6.2826496492      -0.0002083086     0.999961    0.00445710
    9       -6.2827744198      -0.0001247706     0.999963    0.00374767
   10       -6.2828490831      -0.0000746633     0.999964    0.00311270
   11       -6.2828937980      -0.0000447149     0.999965    0.00256406
   12       -6.2829206507      -0.0000268527     0.999965    0.00210002
   13       -6.2829368474      -0.0000161967     0.999966    0.00171291
   14       -6.2829466710      -0.0000098236     0.999966    0.00139295
   15       -6.2829526664      -0.0000059954     0.999966    0.00113020
   16       -6.2829563493      -0.0000036828     0.999966    0.00091540
   17       -6.2829586261      -0.0000022768     0.999966    0.00074042
   18       -6.2829600421      -0.0000014161     0.999966    0.00059822
   19       -6.2829609278      -0.0000008857     0.999966    0.00048290
   20       -6.2829614845      -0.0000005567     0.999966    0.00038953
   21       -6.2829618359      -0.0000003514     0.999966    0.00031402
   22       -6.2829620585      -0.0000002227     0.999966    0.00025301
   23       -6.2829622001      -0.0000001415     0.999966    0.00020377
   24       -6.2829622903      -0.0000000902     0.999966    0.00016405
   25       -6.2829623479      -0.0000000576     0.999966    0.00013203
   26       -6.2829623847      -0.0000000369     0.999966    0.00010623
   27       -6.2829624084      -0.0000000236     0.999966    0.00008546
   28       -6.2829624235      -0.0000000152     0.999966    0.00006873
   29       -6.2829624333      -0.0000000097     0.999966    0.00005526
   30       -6.2829624395      -0.0000000063     0.999966    0.00004443
   31       -6.2829624435      -0.0000000040     0.999966    0.00003572
   32       -6.2829624461      -0.0000000026     0.999966    0.00002871
   33       -6.2829624478      -0.0000000017     0.999966    0.00002307
   34       -6.2829624489      -0.0000000011     0.999966    0.00001854
   35       -6.2829624496      -0.0000000007     0.999966    0.00001490
   36       -6.2829624500      -0.0000000004     0.999966    0.00001197
   37       -6.2829624503      -0.0000000003     0.999966    0.00000962
   38       -6.2829624505      -0.0000000002     0.999966    0.00000773
   39       -6.2829624506      -0.0000000001     0.999966    0.00000621
   40       -6.2829624507      -0.0000000001     0.999966    0.00000499
   41       -6.2829624507      -0.0000000000     0.999966    0.00000401
   42       -6.2829624508      -0.0000000000     0.999966    0.00000322
   43       -6.2829624508      -0.0000000000     0.999966    0.00000258
   44       -6.2829624508      -0.0000000000     0.999966    0.00000208
   45       -6.2829624508      -0.0000000000     0.999966    0.00000167
   46       -6.2829624508      -0.0000000000     0.999966    0.00000134
   47       -6.2829624508      -0.0000000000     0.999966    0.00000108
   48       -6.2829624508      -0.0000000000     0.999966    0.00000086
  
--------------------------------------------------
 Final SA-REKS(2,2) energy:      -6.28296245
  
 State     Energy      FON(1)    FON(2)   Spin
  PPS   -6.41033999   1.999932  0.000068  0.00
  OSS   -6.15558491   1.000000  1.000000  0.00
 Trip   -6.23397047   1.000000  1.000000  1.00
--------------------------------------------------

 Lagrangian Wab:   0.00414389  0.00414377

--------------------------------------------------
 SSR: 2SI-2SA-REKS(2,2) Hamiltonian matrix
               PPS           OSS
   PPS    -6.41033999    0.00582597
   OSS     0.00582597   -6.15558491
--------------------------------------------------

----------------------------------------------------------------
 SSR: 2SI-2SA-REKS(2,2) states
                    E_n       C_{PPS}    C_{OSS}
 SSR state  1   -6.41047315  -0.999739   0.022851
 SSR state  2   -6.15545175  -0.022851  -0.999739
----------------------------------------------------------------

 unrelaxed SSR FONs for S0:  1.999409  0.000591

Total Energy:                       -6.4104731527 H         -174.4378 eV
Extrapolated to 0:                  -6.4104731527 H         -174.4378 eV

----------------------------------------------------------------------------------
 Solving CP-REKS equation for  1 state vector...
----------------------------------------------------------------------------------
  CG solver: Constructing Y initial guess
  CG solver: Iteration    1    eps =    0.000059473901
  CG solver: Iteration    2    eps =    0.000028487726
  CG solver: Iteration    3    eps =    0.000000887417
  CG solver: Iteration    4    eps =    0.000000240096
  CG solver: Iteration    5    eps =    0.000000009368
  Convergence reached in CG solver after    5 iterations
  CG solver: Calculating converged R, Z, Q2 matrix
----------------------------------------------------------------------------------

----------------------------------------------------------------------------------
 Solving CP-REKS equation for SI between  1 and  2 state vectors...
----------------------------------------------------------------------------------
  CG solver: Constructing Y initial guess
  CG solver: Iteration    1    eps =    0.001213250314
  CG solver: Iteration    2    eps =    0.001132202637
  CG solver: Iteration    3    eps =    0.000210997853
  CG solver: Iteration    4    eps =    0.000003940005
  CG solver: Iteration    5    eps =    0.000000602944
  CG solver: Iteration    6    eps =    0.000000022218
  CG solver: Iteration    7    eps =    0.000000000646
  Convergence reached in CG solver after    7 iterations
  CG solver: Calculating converged R, Z, Q2 matrix
----------------------------------------------------------------------------------

--------------------------------------------------
 Gradient Information
--------------------------------------------------
           1 st state (SSR)
    -0.00833942     0.00552362     0.03114853
     0.02927483    -0.00851430    -0.04009044
    -0.00825636    -0.00247411    -0.00446869
    -0.01775213     0.01000956     0.00014943
    -0.00316232    -0.00356526     0.00927713
     0.00823541    -0.00097950     0.00398405

           2 st state (SSR)
     0.00516123    -0.01171832     0.13578095
    -0.01295509     0.01244487    -0.16168172
     0.00403115    -0.01431434     0.01490913
     0.01555830     0.00688243    -0.00581901
    -0.00333720    -0.00912974    -0.00387212
    -0.00845840     0.01583509     0.02068276
--------------------------------------------------
 Coupling Information
--------------------------------------------------
 between  1 and  2 states
--------------------------------------------------
 g vector - difference gradient
    -0.00679465     0.00873822    -0.05266724
     0.02126926    -0.01083615     0.06103224
    -0.00655508     0.00594703    -0.00968640
    -0.01714455     0.00184786     0.00293982
     0.00044229     0.00279200     0.00670393
     0.00878274    -0.00848895    -0.00832235

 h vector - derivative coupling
    -0.00081466     0.00236647    -0.00647889
     0.00289088    -0.00755637     0.00378321
    -0.00885270     0.00045314     0.00027639
    -0.01031803     0.00618011    -0.00103890
     0.00775637     0.00014967     0.00267697
     0.00933813    -0.00159302     0.00078122

 G vector - GDV
    -0.00675033     0.00862097    -0.05231621
     0.02111496    -0.01047959     0.06079564
    -0.00614376     0.00592011    -0.00968891
    -0.01665522     0.00156356     0.00298422
     0.00008744     0.00278224     0.00657462
     0.00834691    -0.00840730    -0.00834936

 H vector - DCV - non-adiabatic coupling
    -0.00440848     0.01083537    -0.03481471
     0.01513464    -0.03154081     0.02575403
    -0.03585171     0.00284048    -0.00065277
    -0.04348884     0.02453947    -0.00354281
     0.03046207     0.00108649     0.01168716
     0.03815232    -0.00776099     0.00156911
--------------------------------------------------


--------------------------------------------------------------------------------
DFTB+ running times                          cpu [s]             wall clock [s]
--------------------------------------------------------------------------------
SCC                                    +     0.02  ( 66.1%)      0.02  ( 62.9%)
Post-SCC processing                    +     0.01  ( 30.1%)      0.01  ( 28.6%)
--------------------------------------------------------------------------------
Missing                                +     0.00  (  3.8%)      0.00  (  8.6%)
Total                                  =     0.03  (100.0%)      0.04  (100.0%)
--------------------------------------------------------------------------------
