 Fermi distribution function

Calculation with static geometry


********************************************************************************
 iSCC Total electronic   Diff electronic      SCC error    
   10   -0.54015993E+01   -0.47961635E-13    0.26441149E-07
********************************************************************************

 Total charge:     1.00000000

 Atomic gross charges (e)
 Atom           Charge
    1       0.14304117
    2      -0.02968210
    3       0.16479192
    4       0.27385666
    5       0.27007651
    6       0.17791584

Nr. of electrons (up):     12.00000000
Atom populations (up)
 Atom       Population
    1       3.85695883
    2       5.02968210
    3       0.83520808
    4       0.72614334
    5       0.72992349
    6       0.82208416

l-shell populations (up)
 Atom Sh.   l       Population
    1   1   0       1.32675875
    1   2   1       2.53020008
    2   1   0       1.43037214
    2   2   1       3.59930997
    3   1   0       0.83520808
    4   1   0       0.72614334
    5   1   0       0.72992349
    6   1   0       0.82208416

Orbital populations (up)
 Atom Sh.   l   m       Population  Label
    1   1   0   0       1.32675875  s
    1   2   1  -1       0.61101078  p_y
    1   2   1   0       0.86850374  p_z
    1   2   1   1       1.05068556  p_x
    2   1   0   0       1.43037214  s
    2   2   1  -1       1.32167318  p_y
    2   2   1   0       1.12393515  p_z
    2   2   1   1       1.15370164  p_x
    3   1   0   0       0.83520808  s
    4   1   0   0       0.72614334  s
    5   1   0   0       0.72992349  s
    6   1   0   0       0.82208416  s

Fermi level:                        -0.5042910453 H          -13.7225 eV
Band energy:                        -8.9290957836 H         -242.9731 eV
TS:                                  0.0000000000 H            0.0000 eV
Band free energy (E-TS):            -8.9290957836 H         -242.9731 eV
Extrapolated E(0K):                 -8.9290957836 H         -242.9731 eV
Input / Output electrons (q):     12.0000000000     12.0000000000

Energy H0:                          -5.5355628531 H         -150.6303 eV
Energy SCC:                          0.1339635344 H            3.6453 eV
Total Electronic energy:            -5.4015993187 H         -146.9850 eV
Repulsive energy:                    0.1787158211 H            4.8631 eV
Total energy:                       -5.2228834977 H         -142.1219 eV
Extrapolated to 0:                  -5.2228834977 H         -142.1219 eV
Total Mermin free energy:           -5.2228834977 H         -142.1219 eV
Force related energy:               -5.2228834977 H         -142.1219 eV

SCC converged

Excitation Energy:                   0.1508108758 H            4.1038 eV

Total Forces
    1     -0.001206236380     -0.005498583890      0.051537390092
    2     -0.004786487203     -0.000990642980     -0.055605834655
    3     -0.003326186200      0.001930890403     -0.000950977827
    4     -0.004402481284      0.001174491250      0.001620288489
    5      0.007552372251      0.004737799991      0.003383587911
    6      0.006169018817     -0.001353954774      0.000015545990

Maximal derivative component:        0.556058E-01 au


