|===============================================================================
|
|  DFTB+ release 20.1
|
|  Copyright (C) 2006 - 2020  DFTB+ developers group
|
|===============================================================================
|
|  When publishing results obtained with DFTB+, please cite the following
|  reference:
|
|  * DFTB+, a software package for efficient approximate density functional
|    theory based atomistic simulations, J. Chem. Phys. 152, 124101 (2020).
|    [doi: 10.1063/1.5143190]
|
|  You should also cite additional publications crediting the parametrization
|  data you use. Please consult the documentation of the SK-files for the
|  references.
|
|===============================================================================

Reading input file 'dftb_in.hsd'
Parser version: 8

--------------------------------------------------------------------------------
Reading SK-files:
Done.


Processed input in HSD format written to 'dftb_pin.hsd'

Starting initialization...
--------------------------------------------------------------------------------
OpenMP threads:              1
Chosen random seed:          500622785
Mode:                        Static calculation
Self consistent charges:     Yes
SCC-tolerance:                 0.100000E-05
Max. scc iterations:                   1000
Shell resolved Hubbard:      No
Spin polarisation:           No
Nr. of up electrons:            16.000000
Nr. of down electrons:          16.000000
Periodic boundaries:         No
Electronic solver:           Relatively robust
Maximal SCC-cycles:                    1000
Initial charges:             Set automatically (system chrg:   0.100E+01)
Included shells:             C:  s, p
                             H:  s
                             N:  s, p
Spin coupling constants:     C   1(s)-1(s):  -0.455900E-01
                             C   1(s)-2(p):  -0.293000E-01
                             C   2(p)-1(s):  -0.293000E-01
                             C   2(p)-2(p):  -0.275500E-01
                             H   1(s)-1(s):  -0.792500E-01
                             N   1(s)-1(s):  -0.468700E-01
                             N   1(s)-2(p):  -0.317000E-01
                             N   2(p)-1(s):  -0.317000E-01
                             N   2(p)-2(p):  -0.307200E-01
Range separated hybrid:      Yes
  Screening parameter omega:   0.300000E+00
  Range separated algorithm:   MatrixBased
Extra options:
                             Mulliken analysis
                             Force calculation
Force type                   original
                             Eigenvector printing


REKS Calcuation:             Yes
SSR(2,2) Calcuation:         Yes
Energy Functional:           (PPS+OSS)/2
Number of Core Orbitals:                 15
Number of Active Orbitals:                2
Number of Basis:                         32
Number of States:                         2
State-Averaging Weight:          0.500000
                                 0.500000
State of Interest:                        1
Initial Guess:               Diagonalize H0 matrix
Newton-Raphson for FON opt:  Yes
NR max. Iterations:                      50
Level Shifting:              Yes
Shift Value:                     0.300000
W Scale Factor:              C  =    3.200000
                             H  =    3.200000
                             N  =    3.200000
Transition Dipole:           No
Gradient of Microstate:      No
CP-REKS Solver:              Preconditioned Conjugate-Gradient
CG max. Iterations:                     100
CG Tolerance:                  0.100000E-07
Memory for A and Hxc:        Direct Updating Without Saving
Non-Adiabatic Coupling:      Yes

--------------------------------------------------------------------------------

***  Geometry step: 0

  iSCC       reks energy        Diff energy         x_a       SCC error   
    1      -16.4110252118       0.0000000000     0.975271    1.18857604
    2      -16.4324935981      -0.0214683863     0.996124    0.05574230
    3      -16.4371790795      -0.0046854814     0.998656    0.02263349
    4      -16.4388694498      -0.0016903703     0.999262    0.01302176
    5      -16.4396415675      -0.0007721177     0.999494    0.00919559
    6      -16.4400482021      -0.0004066347     0.999607    0.00687231
    7      -16.4402876941      -0.0002394920     0.999670    0.00528180
    8      -16.4404426820      -0.0001549879     0.999708    0.00413713
    9      -16.4405514237      -0.0001087416     0.999733    0.00329150
   10      -16.4406330836      -0.0000816599     0.999750    0.00265556
   11      -16.4406978646      -0.0000647810     0.999762    0.00217064
   12      -16.4407514849      -0.0000536203     0.999771    0.00179653
   13      -16.4407973068      -0.0000458219     0.999778    0.00150490
   14      -16.4408374041      -0.0000400972     0.999784    0.00127534
   15      -16.4408731185      -0.0000357145     0.999789    0.00112844
   16      -16.4409053604      -0.0000322419     0.999794    0.00104625
   17      -16.4409347750      -0.0000294146     0.999798    0.00099102
   18      -16.4409618381      -0.0000270631     0.999801    0.00094332
   19      -16.4409869125      -0.0000250743     0.999805    0.00089769
   20      -16.4410102823      -0.0000233699     0.999808    0.00085446
   21      -16.4410321756      -0.0000218932     0.999811    0.00081375
   22      -16.4410527780      -0.0000206025     0.999814    0.00077562
   23      -16.4410722435      -0.0000194654     0.999817    0.00074001
   24      -16.4410907006      -0.0000184571     0.999820    0.00070685
   25      -16.4411082582      -0.0000175576     0.999823    0.00067601
   26      -16.4411250090      -0.0000167508     0.999826    0.00064737
   27      -16.4411410326      -0.0000160236     0.999829    0.00062078
   28      -16.4411563979      -0.0000153653     0.999832    0.00059611
   29      -16.4411711649      -0.0000147669     0.999835    0.00057320
   30      -16.4411853858      -0.0000142210     0.999838    0.00055192
   31      -16.4411991070      -0.0000137211     0.999841    0.00053289
   32      -16.4412123691      -0.0000132621     0.999843    0.00051766
   33      -16.4412252085      -0.0000128394     0.999846    0.00050605
   34      -16.4412376577      -0.0000124491     0.999849    0.00050071
   35      -16.4412497456      -0.0000120879     0.999852    0.00049543
   36      -16.4412614986      -0.0000117530     0.999854    0.00049024
   37      -16.4412729404      -0.0000114418     0.999857    0.00048514
   38      -16.4412840925      -0.0000111521     0.999860    0.00048015
   39      -16.4412949747      -0.0000108822     0.999863    0.00047528
   40      -16.4413056049      -0.0000106302     0.999865    0.00047053
   41      -16.4413159996      -0.0000103947     0.999868    0.00046592
   42      -16.4413261740      -0.0000101744     0.999870    0.00046144
   43      -16.4413361421      -0.0000099681     0.999873    0.00045710
   44      -16.4413459168      -0.0000097747     0.999876    0.00045289
   45      -16.4413555102      -0.0000095934     0.999878    0.00044881
   46      -16.4413649334      -0.0000094231     0.999881    0.00044487
   47      -16.4413741966      -0.0000092632     0.999883    0.00044106
   48      -16.4413833095      -0.0000091130     0.999886    0.00043737
   49      -16.4413922812      -0.0000089716     0.999888    0.00043381
   50      -16.4414011199      -0.0000088387     0.999890    0.00043037
   51      -16.4414098335      -0.0000087136     0.999893    0.00042705
   52      -16.4414184293      -0.0000085958     0.999895    0.00042384
   53      -16.4414269142      -0.0000084849     0.999897    0.00042073
   54      -16.4414352945      -0.0000083803     0.999900    0.00041774
   55      -16.4414435762      -0.0000082817     0.999902    0.00041484
   56      -16.4414517649      -0.0000081887     0.999904    0.00041203
   57      -16.4414598659      -0.0000081010     0.999906    0.00040932
   58      -16.4414678840      -0.0000080181     0.999909    0.00040669
   59      -16.4414758239      -0.0000079399     0.999911    0.00040415
   60      -16.4414836898      -0.0000078659     0.999913    0.00040308
   61      -16.4414914857      -0.0000077959     0.999915    0.00040310
   62      -16.4414992153      -0.0000077296     0.999917    0.00040315
   63      -16.4415068821      -0.0000076668     0.999919    0.00040323
   64      -16.4415144893      -0.0000076072     0.999921    0.00040334
   65      -16.4415220398      -0.0000075505     0.999923    0.00040348
   66      -16.4415295364      -0.0000074966     0.999925    0.00040364
   67      -16.4415369816      -0.0000074452     0.999927    0.00040382
   68      -16.4415443778      -0.0000073961     0.999929    0.00040402
   69      -16.4415517269      -0.0000073492     0.999930    0.00040423
   70      -16.4415590310      -0.0000073041     0.999932    0.00040445
   71      -16.4415662917      -0.0000072607     0.999934    0.00040468
   72      -16.4415735106      -0.0000072189     0.999936    0.00040492
   73      -16.4415806889      -0.0000071783     0.999937    0.00040516
   74      -16.4415878279      -0.0000071390     0.999939    0.00040539
   75      -16.4415949285      -0.0000071006     0.999941    0.00040562
   76      -16.4416019915      -0.0000070630     0.999942    0.00040584
   77      -16.4416090176      -0.0000070261     0.999944    0.00040604
   78      -16.4416160073      -0.0000069897     0.999945    0.00040623
   79      -16.4416229609      -0.0000069536     0.999947    0.00040639
   80      -16.4416298785      -0.0000069176     0.999948    0.00040653
   81      -16.4416367602      -0.0000068817     0.999950    0.00040664
   82      -16.4416436058      -0.0000068456     0.999951    0.00040672
   83      -16.4416504150      -0.0000068093     0.999953    0.00040675
   84      -16.4416571875      -0.0000067725     0.999954    0.00040675
   85      -16.4416639226      -0.0000067351     0.999955    0.00040670
   86      -16.4416706197      -0.0000066971     0.999957    0.00040660
   87      -16.4416772779      -0.0000066582     0.999958    0.00040644
   88      -16.4416838962      -0.0000066183     0.999959    0.00040623
   89      -16.4416904737      -0.0000065774     0.999960    0.00040596
   90      -16.4416970090      -0.0000065353     0.999962    0.00040562
   91      -16.4417035008      -0.0000064919     0.999963    0.00040521
   92      -16.4417099478      -0.0000064470     0.999964    0.00040472
   93      -16.4417163485      -0.0000064006     0.999965    0.00040416
   94      -16.4417227011      -0.0000063526     0.999966    0.00040352
   95      -16.4417290041      -0.0000063029     0.999967    0.00040279
   96      -16.4417352555      -0.0000062515     0.999968    0.00040197
   97      -16.4417414536      -0.0000061981     0.999969    0.00040106
   98      -16.4417475964      -0.0000061428     0.999970    0.00040006
   99      -16.4417536819      -0.0000060855     0.999971    0.00039895
  100      -16.4417597081      -0.0000060262     0.999972    0.00039775
  101      -16.4417656729      -0.0000059648     0.999973    0.00039644
  102      -16.4417715742      -0.0000059012     0.999974    0.00039503
  103      -16.4417774097      -0.0000058355     0.999974    0.00039351
  104      -16.4417831774      -0.0000057677     0.999975    0.00039188
  105      -16.4417888750      -0.0000056977     0.999976    0.00039013
  106      -16.4417945005      -0.0000056254     0.999977    0.00038827
  107      -16.4418000516      -0.0000055511     0.999977    0.00038630
  108      -16.4418055261      -0.0000054746     0.999978    0.00038421
  109      -16.4418109221      -0.0000053960     0.999979    0.00038200
  110      -16.4418162374      -0.0000053153     0.999980    0.00037967
  111      -16.4418214700      -0.0000052326     0.999980    0.00037723
  112      -16.4418266179      -0.0000051479     0.999981    0.00037466
  113      -16.4418316793      -0.0000050614     0.999981    0.00037198
  114      -16.4418366523      -0.0000049730     0.999982    0.00036918
  115      -16.4418415353      -0.0000048830     0.999982    0.00036627
  116      -16.4418463265      -0.0000047913     0.999983    0.00036324
  117      -16.4418510245      -0.0000046980     0.999984    0.00036009
  118      -16.4418556279      -0.0000046034     0.999984    0.00035683
  119      -16.4418601354      -0.0000045074     0.999985    0.00035347
  120      -16.4418645457      -0.0000044103     0.999985    0.00034999
  121      -16.4418688578      -0.0000043121     0.999985    0.00034641
  122      -16.4418730708      -0.0000042130     0.999986    0.00034273
  123      -16.4418771840      -0.0000041132     0.999986    0.00033894
  124      -16.4418811967      -0.0000040127     0.999987    0.00033507
  125      -16.4418851084      -0.0000039117     0.999987    0.00033110
  126      -16.4418889187      -0.0000038103     0.999987    0.00032704
  127      -16.4418926274      -0.0000037087     0.999988    0.00032289
  128      -16.4418962345      -0.0000036071     0.999988    0.00031867
  129      -16.4418997401      -0.0000035056     0.999988    0.00031437
  130      -16.4419031445      -0.0000034043     0.999989    0.00031000
  131      -16.4419064478      -0.0000033034     0.999989    0.00030556
  132      -16.4419096508      -0.0000032030     0.999989    0.00030106
  133      -16.4419127540      -0.0000031032     0.999990    0.00029650
  134      -16.4419157583      -0.0000030043     0.999990    0.00029189
  135      -16.4419186645      -0.0000029062     0.999990    0.00028724
  136      -16.4419214738      -0.0000028092     0.999990    0.00028254
  137      -16.4419241872      -0.0000027134     0.999991    0.00027780
  138      -16.4419268060      -0.0000026188     0.999991    0.00027304
  139      -16.4419293316      -0.0000025256     0.999991    0.00026824
  140      -16.4419317656      -0.0000024339     0.999991    0.00026343
  141      -16.4419341094      -0.0000023438     0.999992    0.00025860
  142      -16.4419363647      -0.0000022554     0.999992    0.00025376
  143      -16.4419385334      -0.0000021686     0.999992    0.00024891
  144      -16.4419406171      -0.0000020837     0.999992    0.00024406
  145      -16.4419426178      -0.0000020007     0.999992    0.00023921
  146      -16.4419445374      -0.0000019196     0.999992    0.00023437
  147      -16.4419463779      -0.0000018405     0.999993    0.00022954
  148      -16.4419481413      -0.0000017634     0.999993    0.00022474
  149      -16.4419498296      -0.0000016884     0.999993    0.00021995
  150      -16.4419514451      -0.0000016154     0.999993    0.00021518
  151      -16.4419529897      -0.0000015446     0.999993    0.00021045
  152      -16.4419544657      -0.0000014759     0.999993    0.00020575
  153      -16.4419558750      -0.0000014094     0.999993    0.00020108
  154      -16.4419572200      -0.0000013449     0.999994    0.00019646
  155      -16.4419585026      -0.0000012826     0.999994    0.00019188
  156      -16.4419597251      -0.0000012225     0.999994    0.00018734
  157      -16.4419608895      -0.0000011644     0.999994    0.00018285
  158      -16.4419619980      -0.0000011084     0.999994    0.00017842
  159      -16.4419630525      -0.0000010545     0.999994    0.00017404
  160      -16.4419640552      -0.0000010027     0.999994    0.00016971
  161      -16.4419650080      -0.0000009528     0.999994    0.00016545
  162      -16.4419659129      -0.0000009049     0.999994    0.00016125
  163      -16.4419667719      -0.0000008590     0.999994    0.00015710
  164      -16.4419675869      -0.0000008149     0.999995    0.00015303
  165      -16.4419683596      -0.0000007727     0.999995    0.00014902
  166      -16.4419690920      -0.0000007324     0.999995    0.00014507
  167      -16.4419697857      -0.0000006937     0.999995    0.00014120
  168      -16.4419704426      -0.0000006568     0.999995    0.00013739
  169      -16.4419710641      -0.0000006216     0.999995    0.00013365
  170      -16.4419716521      -0.0000005879     0.999995    0.00012998
  171      -16.4419722080      -0.0000005559     0.999995    0.00012639
  172      -16.4419727333      -0.0000005253     0.999995    0.00012288
  173      -16.4419732295      -0.0000004962     0.999995    0.00011946
  174      -16.4419736981      -0.0000004686     0.999995    0.00011610
  175      -16.4419741403      -0.0000004422     0.999995    0.00011282
  176      -16.4419745576      -0.0000004172     0.999995    0.00010960
  177      -16.4419749510      -0.0000003935     0.999995    0.00010645
  178      -16.4419753220      -0.0000003709     0.999995    0.00010338
  179      -16.4419756715      -0.0000003496     0.999995    0.00010037
  180      -16.4419760008      -0.0000003293     0.999996    0.00009743
  181      -16.4419763109      -0.0000003101     0.999996    0.00009456
  182      -16.4419766028      -0.0000002919     0.999996    0.00009176
  183      -16.4419768775      -0.0000002747     0.999996    0.00008902
  184      -16.4419771359      -0.0000002584     0.999996    0.00008636
  185      -16.4419773789      -0.0000002430     0.999996    0.00008375
  186      -16.4419776073      -0.0000002285     0.999996    0.00008122
  187      -16.4419778220      -0.0000002147     0.999996    0.00007875
  188      -16.4419780238      -0.0000002017     0.999996    0.00007634
  189      -16.4419782133      -0.0000001895     0.999996    0.00007399
  190      -16.4419783912      -0.0000001779     0.999996    0.00007171
  191      -16.4419785583      -0.0000001671     0.999996    0.00006949
  192      -16.4419787151      -0.0000001568     0.999996    0.00006733
  193      -16.4419788622      -0.0000001471     0.999996    0.00006522
  194      -16.4419790002      -0.0000001380     0.999996    0.00006318
  195      -16.4419791296      -0.0000001294     0.999996    0.00006119
  196      -16.4419792510      -0.0000001214     0.999996    0.00005925
  197      -16.4419793648      -0.0000001138     0.999996    0.00005737
  198      -16.4419794714      -0.0000001066     0.999996    0.00005555
  199      -16.4419795713      -0.0000000999     0.999996    0.00005377
  200      -16.4419796649      -0.0000000936     0.999996    0.00005205
  201      -16.4419797526      -0.0000000877     0.999996    0.00005038
  202      -16.4419798347      -0.0000000821     0.999996    0.00004876
  203      -16.4419799116      -0.0000000769     0.999996    0.00004718
  204      -16.4419799835      -0.0000000720     0.999996    0.00004565
  205      -16.4419800509      -0.0000000674     0.999996    0.00004417
  206      -16.4419801139      -0.0000000630     0.999996    0.00004273
  207      -16.4419801729      -0.0000000590     0.999996    0.00004133
  208      -16.4419802281      -0.0000000552     0.999996    0.00003998
  209      -16.4419802797      -0.0000000516     0.999996    0.00003867
  210      -16.4419803280      -0.0000000483     0.999996    0.00003740
  211      -16.4419803731      -0.0000000451     0.999996    0.00003616
  212      -16.4419804153      -0.0000000422     0.999996    0.00003497
  213      -16.4419804547      -0.0000000394     0.999996    0.00003381
  214      -16.4419804916      -0.0000000369     0.999996    0.00003269
  215      -16.4419805261      -0.0000000345     0.999996    0.00003161
  216      -16.4419805583      -0.0000000322     0.999996    0.00003055
  217      -16.4419805884      -0.0000000301     0.999996    0.00002953
  218      -16.4419806165      -0.0000000281     0.999996    0.00002855
  219      -16.4419806428      -0.0000000263     0.999996    0.00002759
  220      -16.4419806673      -0.0000000245     0.999996    0.00002667
  221      -16.4419806902      -0.0000000229     0.999996    0.00002577
  222      -16.4419807116      -0.0000000214     0.999996    0.00002491
  223      -16.4419807316      -0.0000000200     0.999996    0.00002407
  224      -16.4419807502      -0.0000000187     0.999996    0.00002326
  225      -16.4419807676      -0.0000000174     0.999996    0.00002247
  226      -16.4419807839      -0.0000000163     0.999996    0.00002171
  227      -16.4419807991      -0.0000000152     0.999996    0.00002098
  228      -16.4419808132      -0.0000000142     0.999996    0.00002027
  229      -16.4419808264      -0.0000000132     0.999996    0.00001958
  230      -16.4419808388      -0.0000000123     0.999996    0.00001892
  231      -16.4419808503      -0.0000000115     0.999996    0.00001827
  232      -16.4419808610      -0.0000000107     0.999996    0.00001765
  233      -16.4419808711      -0.0000000100     0.999996    0.00001705
  234      -16.4419808804      -0.0000000094     0.999997    0.00001647
  235      -16.4419808891      -0.0000000087     0.999997    0.00001591
  236      -16.4419808973      -0.0000000081     0.999997    0.00001537
  237      -16.4419809049      -0.0000000076     0.999997    0.00001484
  238      -16.4419809119      -0.0000000071     0.999997    0.00001433
  239      -16.4419809185      -0.0000000066     0.999997    0.00001384
  240      -16.4419809247      -0.0000000062     0.999997    0.00001337
  241      -16.4419809304      -0.0000000057     0.999997    0.00001291
  242      -16.4419809358      -0.0000000054     0.999997    0.00001247
  243      -16.4419809408      -0.0000000050     0.999997    0.00001204
  244      -16.4419809454      -0.0000000047     0.999997    0.00001162
  245      -16.4419809498      -0.0000000043     0.999997    0.00001123
  246      -16.4419809538      -0.0000000040     0.999997    0.00001084
  247      -16.4419809576      -0.0000000038     0.999997    0.00001047
  248      -16.4419809611      -0.0000000035     0.999997    0.00001011
  249      -16.4419809644      -0.0000000033     0.999997    0.00000976
  250      -16.4419809675      -0.0000000031     0.999997    0.00000942
  251      -16.4419809703      -0.0000000029     0.999997    0.00000910
  252      -16.4419809730      -0.0000000027     0.999997    0.00000878
  253      -16.4419809755      -0.0000000025     0.999997    0.00000848
  254      -16.4419809778      -0.0000000023     0.999997    0.00000819
  255      -16.4419809799      -0.0000000022     0.999997    0.00000790
  256      -16.4419809819      -0.0000000020     0.999997    0.00000763
  257      -16.4419809838      -0.0000000019     0.999997    0.00000737
  258      -16.4419809855      -0.0000000017     0.999997    0.00000711
  259      -16.4419809871      -0.0000000016     0.999997    0.00000686
  260      -16.4419809887      -0.0000000015     0.999997    0.00000663
  261      -16.4419809901      -0.0000000014     0.999997    0.00000640
  262      -16.4419809914      -0.0000000013     0.999997    0.00000618
  263      -16.4419809926      -0.0000000012     0.999997    0.00000596
  264      -16.4419809938      -0.0000000011     0.999997    0.00000575
  265      -16.4419809948      -0.0000000011     0.999997    0.00000555
  266      -16.4419809958      -0.0000000010     0.999997    0.00000536
  267      -16.4419809967      -0.0000000009     0.999997    0.00000518
  268      -16.4419809976      -0.0000000009     0.999997    0.00000500
  269      -16.4419809984      -0.0000000008     0.999997    0.00000482
  270      -16.4419809991      -0.0000000007     0.999997    0.00000465
  271      -16.4419809998      -0.0000000007     0.999997    0.00000449
  272      -16.4419810005      -0.0000000006     0.999997    0.00000434
  273      -16.4419810011      -0.0000000006     0.999997    0.00000419
  274      -16.4419810016      -0.0000000006     0.999997    0.00000404
  275      -16.4419810022      -0.0000000005     0.999997    0.00000390
  276      -16.4419810027      -0.0000000005     0.999997    0.00000376
  277      -16.4419810031      -0.0000000005     0.999997    0.00000363
  278      -16.4419810035      -0.0000000004     0.999997    0.00000351
  279      -16.4419810039      -0.0000000004     0.999997    0.00000338
  280      -16.4419810043      -0.0000000004     0.999997    0.00000327
  281      -16.4419810046      -0.0000000003     0.999997    0.00000315
  282      -16.4419810050      -0.0000000003     0.999997    0.00000304
  283      -16.4419810053      -0.0000000003     0.999997    0.00000294
  284      -16.4419810055      -0.0000000003     0.999997    0.00000283
  285      -16.4419810058      -0.0000000003     0.999997    0.00000274
  286      -16.4419810060      -0.0000000002     0.999997    0.00000264
  287      -16.4419810063      -0.0000000002     0.999997    0.00000255
  288      -16.4419810065      -0.0000000002     0.999997    0.00000246
  289      -16.4419810067      -0.0000000002     0.999997    0.00000237
  290      -16.4419810068      -0.0000000002     0.999997    0.00000229
  291      -16.4419810070      -0.0000000002     0.999997    0.00000221
  292      -16.4419810072      -0.0000000002     0.999997    0.00000213
  293      -16.4419810073      -0.0000000001     0.999997    0.00000206
  294      -16.4419810074      -0.0000000001     0.999997    0.00000199
  295      -16.4419810076      -0.0000000001     0.999997    0.00000192
  296      -16.4419810077      -0.0000000001     0.999997    0.00000185
  297      -16.4419810078      -0.0000000001     0.999997    0.00000179
  298      -16.4419810079      -0.0000000001     0.999997    0.00000172
  299      -16.4419810080      -0.0000000001     0.999997    0.00000166
  300      -16.4419810081      -0.0000000001     0.999997    0.00000161
  301      -16.4419810082      -0.0000000001     0.999997    0.00000155
  302      -16.4419810082      -0.0000000001     0.999997    0.00000150
  303      -16.4419810083      -0.0000000001     0.999997    0.00000144
  304      -16.4419810084      -0.0000000001     0.999997    0.00000139
  305      -16.4419810084      -0.0000000001     0.999997    0.00000134
  306      -16.4419810085      -0.0000000001     0.999997    0.00000130
  307      -16.4419810086      -0.0000000001     0.999997    0.00000125
  308      -16.4419810086      -0.0000000001     0.999997    0.00000121
  309      -16.4419810087      -0.0000000000     0.999997    0.00000117
  310      -16.4419810087      -0.0000000000     0.999997    0.00000113
  311      -16.4419810087      -0.0000000000     0.999997    0.00000109
  312      -16.4419810088      -0.0000000000     0.999997    0.00000105
  313      -16.4419810088      -0.0000000000     0.999997    0.00000101
  314      -16.4419810088      -0.0000000000     0.999997    0.00000098
  
--------------------------------------------------
 Final SA-REKS(2,2) energy:     -16.44198101
  
 State     Energy      FON(1)    FON(2)   Spin
  PPS  -16.50308683   1.999993  0.000007  0.00
  OSS  -16.38087519   1.000000  1.000000  0.00
 Trip  -16.41315740   1.000000  1.000000  1.00
--------------------------------------------------

 Lagrangian Wab:   0.00273445  0.00273406

--------------------------------------------------
 SSR: 2SI-2SA-REKS(2,2) Hamiltonian matrix
               PPS           OSS
   PPS   -16.50308683    0.00386001
   OSS     0.00386001  -16.38087519
--------------------------------------------------

----------------------------------------------------------------
 SSR: 2SI-2SA-REKS(2,2) states
                    E_n       C_{PPS}    C_{OSS}
 SSR state  1  -16.50320863  -0.999503   0.031537
 SSR state  2  -16.38075339  -0.031537  -0.999503
----------------------------------------------------------------

 unrelaxed SSR FONs for S0:  1.998999  0.001001

Total Energy:                      -16.5032086268 H         -449.0752 eV
Extrapolated to 0:                 -16.5032086268 H         -449.0752 eV

----------------------------------------------------------------------------------
 Solving CP-REKS equation for  1 state vector...
----------------------------------------------------------------------------------
  CG solver: Constructing Y initial guess
  CG solver: Iteration    1    eps =    0.000044818969
  CG solver: Iteration    2    eps =    0.000003510486
  CG solver: Iteration    3    eps =    0.000002190452
  CG solver: Iteration    4    eps =    0.000000549141
  CG solver: Iteration    5    eps =    0.000000077509
  CG solver: Iteration    6    eps =    0.000000057868
  CG solver: Iteration    7    eps =    0.000000085524
  CG solver: Iteration    8    eps =    0.000000031999
  CG solver: Iteration    9    eps =    0.000000006708
  Convergence reached in CG solver after    9 iterations
  CG solver: Calculating converged R, Z, Q2 matrix
----------------------------------------------------------------------------------

----------------------------------------------------------------------------------
 Solving CP-REKS equation for SI between  1 and  2 state vectors...
----------------------------------------------------------------------------------
  CG solver: Constructing Y initial guess
  CG solver: Iteration    1    eps =    0.019683325991
  CG solver: Iteration    2    eps =    0.001038225795
  CG solver: Iteration    3    eps =    0.000402398938
  CG solver: Iteration    4    eps =    0.001694843968
  CG solver: Iteration    5    eps =    0.000820760362
  CG solver: Iteration    6    eps =    0.000099334721
  CG solver: Iteration    7    eps =    0.000015307795
  CG solver: Iteration    8    eps =    0.000000688435
  CG solver: Iteration    9    eps =    0.000000063366
  CG solver: Iteration   10    eps =    0.000000016463
  CG solver: Iteration   11    eps =    0.000000001216
  Convergence reached in CG solver after   11 iterations
  CG solver: Calculating converged R, Z, Q2 matrix
----------------------------------------------------------------------------------

--------------------------------------------------
 Gradient Information
--------------------------------------------------
           1 st state (SSR)
    -0.00683434    -0.01129894    -0.00218918
    -0.03601171     0.05071081    -0.06416650
    -0.00195476    -0.00297754     0.00609648
     0.00648361    -0.00473774     0.00964182
     0.01259890    -0.00440860     0.01277542
     0.00536342    -0.01259926     0.04819129
     0.03343293    -0.03405631     0.03838484
     0.00287764    -0.00219287    -0.02597037
     0.01178528    -0.02423684     0.00296031
    -0.04828220     0.06445931    -0.04009665
    -0.00259487     0.02444080     0.00099128
     0.04343642    -0.06730561     0.02062669
    -0.02176070    -0.00077074    -0.00092259
     0.00146038     0.02497352    -0.00632284

           2 st state (SSR)
    -0.02196506     0.00147084    -0.01621962
    -0.01079009    -0.01056161     0.00394950
     0.00287180    -0.00884929     0.00099419
     0.00456941     0.00252376     0.01172706
     0.00434901    -0.00081748    -0.00482074
     0.03202415     0.03420175     0.01101535
    -0.00569225    -0.06189643     0.03102487
     0.00628457     0.00857447    -0.01351823
     0.00906043    -0.02128333     0.01068900
    -0.00205390     0.07579280    -0.04637886
    -0.00257476     0.02595053     0.00143113
     0.00051338    -0.06953513     0.01671883
    -0.02067702     0.00085565    -0.00111018
     0.00408033     0.02357348    -0.00550232
--------------------------------------------------
 Coupling Information
--------------------------------------------------
 between  1 and  2 states
--------------------------------------------------
 g vector - difference gradient
     0.00575953    -0.00675414     0.00574924
    -0.01045478     0.03001100    -0.03099599
    -0.00243009     0.00308816     0.00277082
     0.00116225    -0.00373790    -0.00131342
     0.00349219    -0.00101430     0.00844434
    -0.01407053    -0.02325003     0.01711976
     0.02014710     0.01387525     0.00413194
    -0.00127854    -0.00539269    -0.00649763
     0.00154701    -0.00171236    -0.00426253
    -0.02369266    -0.00523037     0.00355432
    -0.00001531    -0.00074816    -0.00023059
     0.02167384     0.00098377     0.00191389
    -0.00054455    -0.00081669     0.00001516
    -0.00129547     0.00069847    -0.00039930

 h vector - derivative coupling
    -0.02882579    -0.00564399    -0.02026240
     0.03452892    -0.01086404     0.04954776
    -0.00018991     0.00231799     0.00339700
     0.00321745    -0.00158165    -0.00425393
    -0.01014708     0.01242435    -0.00587754
    -0.01129663     0.00312036    -0.02382894
     0.00863590    -0.00114859     0.00703856
     0.00678055     0.00002715    -0.00410248
     0.00287900    -0.00368313    -0.00618158
    -0.00842874     0.00708676     0.00644237
    -0.00008289     0.00012993    -0.00016188
     0.00268398    -0.00210876    -0.00069554
    -0.00002578    -0.00002972    -0.00124786
     0.00027104    -0.00004665     0.00018646

 G vector - GDV
     0.00756536    -0.00638489     0.00701522
    -0.01261081     0.03063621    -0.03405800
    -0.00241328     0.00293588     0.00255115
     0.00095710    -0.00363075    -0.00104262
     0.00412495    -0.00179556     0.00879808
    -0.01333036    -0.02340050     0.01858797
     0.01956259     0.01392006     0.00367998
    -0.00170347    -0.00538367    -0.00622607
     0.00136243    -0.00147675    -0.00386434
    -0.02311415    -0.00566674     0.00314110
    -0.00001006    -0.00075486    -0.00021992
     0.02146152     0.00111476     0.00195393
    -0.00054184    -0.00081320     0.00009380
    -0.00130998     0.00070002    -0.00041026

 H vector - DCV - non-adiabatic coupling
    -0.23196517    -0.04947581    -0.16217875
     0.27602839    -0.07309144     0.38785685
    -0.00279887     0.02048151     0.02911208
     0.02682061    -0.01481486    -0.03534576
    -0.08090090     0.10073635    -0.04355460
    -0.09931151     0.01346113    -0.18539224
     0.08075494    -0.00221759     0.05949156
     0.05460329    -0.00255506    -0.03678043
     0.02426034    -0.03089909    -0.05257438
    -0.08089198     0.05506437     0.05433523
    -0.00068345     0.00067372    -0.00143805
     0.03303276    -0.01667995    -0.00468333
    -0.00049050    -0.00066267    -0.01016223
     0.00154205    -0.00002062     0.00131405
--------------------------------------------------


--------------------------------------------------------------------------------
DFTB+ running times                          cpu [s]             wall clock [s]
--------------------------------------------------------------------------------
SCC                                    +     0.43  ( 61.7%)      0.43  ( 52.7%)
      Sparse to dense                        0.02  (  3.1%)      0.02  (  2.2%)
      Dense to sparse                        0.08  ( 11.0%)      0.09  ( 10.3%)
      Range separated Hamiltonian            0.04  (  5.6%)      0.04  (  4.9%)
  Density matrix creation                    0.05  (  6.8%)      0.05  (  6.0%)
Post-SCC processing                    +     0.26  ( 38.0%)      0.27  ( 32.5%)
  Force calculation                          0.26  ( 37.9%)      0.26  ( 32.2%)
Post-geometry optimisation             +     0.00  (  0.2%)      0.12  ( 14.6%)
--------------------------------------------------------------------------------
Missing                                +     0.00  (  0.2%)      0.00  (  0.2%)
Total                                  =     0.70  (100.0%)      0.82  (100.0%)
--------------------------------------------------------------------------------
