|===============================================================================
|
|  DFTB+ release 20.1
|
|  Copyright (C) 2006 - 2020  DFTB+ developers group
|
|===============================================================================
|
|  When publishing results obtained with DFTB+, please cite the following
|  reference:
|
|  * DFTB+, a software package for efficient approximate density functional
|    theory based atomistic simulations, J. Chem. Phys. 152, 124101 (2020).
|    [doi: 10.1063/1.5143190]
|
|  You should also cite additional publications crediting the parametrization
|  data you use. Please consult the documentation of the SK-files for the
|  references.
|
|===============================================================================

Reading input file 'dftb_in.hsd'
Parser version: 8

--------------------------------------------------------------------------------
Reading SK-files:
Done.


Processed input in HSD format written to 'dftb_pin.hsd'

Starting initialization...
--------------------------------------------------------------------------------
OpenMP threads:              1
Chosen random seed:          510229192
Mode:                        Static calculation
Self consistent charges:     Yes
SCC-tolerance:                 0.100000E-05
Max. scc iterations:                   1000
Shell resolved Hubbard:      No
Spin polarisation:           No
Nr. of up electrons:             6.000000
Nr. of down electrons:           6.000000
Periodic boundaries:         No
Electronic solver:           Relatively robust
Maximal SCC-cycles:                    1000
Initial charges:             Set automatically (system chrg:   0.100E+01)
Included shells:             C:  s, p
                             N:  s, p
                             H:  s
Spin coupling constants:     C   1(s)-1(s):  -0.455900E-01
                             C   1(s)-2(p):  -0.293000E-01
                             C   2(p)-1(s):  -0.293000E-01
                             C   2(p)-2(p):  -0.275500E-01
                             N   1(s)-1(s):  -0.468700E-01
                             N   1(s)-2(p):  -0.317000E-01
                             N   2(p)-1(s):  -0.317000E-01
                             N   2(p)-2(p):  -0.307200E-01
                             H   1(s)-1(s):  -0.792500E-01
Range separated hybrid:      Yes
  Screening parameter omega:   0.300000E+00
  Range separated algorithm:   MatrixBased
Extra options:
                             Mulliken analysis
                             Force calculation
Force type                   original
                             Eigenvector printing


REKS Calcuation:             Yes
SSR(2,2) Calcuation:         Yes
Energy Functional:           (PPS+OSS)/2
Number of Core Orbitals:                  5
Number of Active Orbitals:                2
Number of Basis:                         12
Number of States:                         2
State-Averaging Weight:          0.500000
                                 0.500000
State of Interest:                        1
Initial Guess:               Diagonalize H0 matrix
Newton-Raphson for FON opt:  Yes
NR max. Iterations:                      50
Level Shifting:              Yes
Shift Value:                     0.300000
W Scale Factor:              C  =    3.000000
                             N  =    3.000000
                             H  =    3.000000
Transition Dipole:           No
Gradient of Microstate:      No
CP-REKS Solver:              Preconditioned Conjugate-Gradient
CG max. Iterations:                     100
CG Tolerance:                  0.100000E-07
Memory for A and Hxc:        Direct Updating Without Saving
Non-Adiabatic Coupling:      Yes

--------------------------------------------------------------------------------

***  Geometry step: 0

  iSCC       reks energy        Diff energy         x_a       SCC error   
    1       -6.2599914697       0.0000000000     0.999521    1.18713260
    2       -6.2729804479      -0.0129889782     0.999803    0.09807695
    3       -6.2773592380      -0.0043787901     0.999892    0.04284653
    4       -6.2796902481      -0.0023310101     0.999930    0.02103581
    5       -6.2810741206      -0.0013838725     0.999949    0.01065924
    6       -6.2819190762      -0.0008449556     0.999959    0.00844553
    7       -6.2824334858      -0.0005144096     0.999964    0.00728630
    8       -6.2827427532      -0.0003092674     0.999968    0.00601381
    9       -6.2829263889      -0.0001836357     0.999970    0.00481942
   10       -6.2830344724      -0.0001080835     0.999971    0.00378502
   11       -6.2830978047      -0.0000633323     0.999972    0.00293145
   12       -6.2831348944      -0.0000370897     0.999972    0.00224875
   13       -6.2831566713      -0.0000217768     0.999972    0.00171405
   14       -6.2831695190      -0.0000128478     0.999973    0.00130119
   15       -6.2831771465      -0.0000076275     0.999973    0.00098549
   16       -6.2831817067      -0.0000045602     0.999973    0.00075821
   17       -6.2831844529      -0.0000027462     0.999973    0.00058449
   18       -6.2831861184      -0.0000016655     0.999973    0.00046941
   19       -6.2831871351      -0.0000010167     0.999973    0.00038891
   20       -6.2831877595      -0.0000006244     0.999973    0.00032023
   21       -6.2831881449      -0.0000003854     0.999973    0.00026236
   22       -6.2831883839      -0.0000002390     0.999973    0.00021406
   23       -6.2831885326      -0.0000001488     0.999973    0.00017405
   24       -6.2831886255      -0.0000000929     0.999973    0.00014111
   25       -6.2831886837      -0.0000000582     0.999973    0.00011412
   26       -6.2831887202      -0.0000000365     0.999973    0.00009209
   27       -6.2831887431      -0.0000000229     0.999973    0.00007418
   28       -6.2831887575      -0.0000000144     0.999973    0.00005966
   29       -6.2831887666      -0.0000000091     0.999973    0.00004792
   30       -6.2831887724      -0.0000000057     0.999973    0.00003845
   31       -6.2831887760      -0.0000000036     0.999973    0.00003081
   32       -6.2831887783      -0.0000000023     0.999973    0.00002467
   33       -6.2831887797      -0.0000000014     0.999973    0.00001974
   34       -6.2831887806      -0.0000000009     0.999973    0.00001578
   35       -6.2831887812      -0.0000000006     0.999973    0.00001261
   36       -6.2831887816      -0.0000000004     0.999973    0.00001007
   37       -6.2831887818      -0.0000000002     0.999973    0.00000804
   38       -6.2831887820      -0.0000000001     0.999973    0.00000641
   39       -6.2831887821      -0.0000000001     0.999973    0.00000512
   40       -6.2831887821      -0.0000000001     0.999973    0.00000408
   41       -6.2831887822      -0.0000000000     0.999973    0.00000325
   42       -6.2831887822      -0.0000000000     0.999973    0.00000259
   43       -6.2831887822      -0.0000000000     0.999973    0.00000207
   44       -6.2831887822      -0.0000000000     0.999973    0.00000165
   45       -6.2831887822      -0.0000000000     0.999973    0.00000131
   46       -6.2831887822      -0.0000000000     0.999973    0.00000104
   47       -6.2831887822      -0.0000000000     0.999973    0.00000083
  
--------------------------------------------------
 Final SA-REKS(2,2) energy:      -6.28318878
  
 State     Energy      FON(1)    FON(2)   Spin
  PPS   -6.41435014   1.999946  0.000054  0.00
  OSS   -6.15202743   1.000000  1.000000  0.00
 Trip   -6.23045793   1.000000  1.000000  1.00
--------------------------------------------------

 Lagrangian Wab:   0.00322485  0.00322474

--------------------------------------------------
 SSR: 2SI-2SA-REKS(2,2) Hamiltonian matrix
               PPS           OSS
   PPS    -6.41435014    0.00453680
   OSS     0.00453680   -6.15202743
--------------------------------------------------

----------------------------------------------------------------
 SSR: 2SI-2SA-REKS(2,2) states
                    E_n       C_{PPS}    C_{OSS}
 SSR state  1   -6.41442858  -0.999851   0.017287
 SSR state  2   -6.15194899  -0.017287  -0.999851
----------------------------------------------------------------

 unrelaxed SSR FONs for S0:  1.999647  0.000353

Total Energy:                       -6.4144285761 H         -174.5455 eV
Extrapolated to 0:                  -6.4144285761 H         -174.5455 eV

----------------------------------------------------------------------------------
 Solving CP-REKS equation for  1 state vector...
----------------------------------------------------------------------------------
  CG solver: Constructing Y initial guess
  CG solver: Iteration    1    eps =    0.000056952862
  CG solver: Iteration    2    eps =    0.000011604185
  CG solver: Iteration    3    eps =    0.000000386641
  CG solver: Iteration    4    eps =    0.000000098638
  CG solver: Iteration    5    eps =    0.000000008646
  Convergence reached in CG solver after    5 iterations
  CG solver: Calculating converged R, Z, Q2 matrix
----------------------------------------------------------------------------------

----------------------------------------------------------------------------------
 Solving CP-REKS equation for SI between  1 and  2 state vectors...
----------------------------------------------------------------------------------
  CG solver: Constructing Y initial guess
  CG solver: Iteration    1    eps =    0.000833060563
  CG solver: Iteration    2    eps =    0.000541440578
  CG solver: Iteration    3    eps =    0.000181530905
  CG solver: Iteration    4    eps =    0.000002150647
  CG solver: Iteration    5    eps =    0.000000284581
  CG solver: Iteration    6    eps =    0.000000004599
  Convergence reached in CG solver after    6 iterations
  CG solver: Calculating converged R, Z, Q2 matrix
----------------------------------------------------------------------------------

--------------------------------------------------
 Gradient Information
--------------------------------------------------
           1 st state (SSR)
     0.00071472     0.01236918     0.02734005
     0.00490183     0.00330915    -0.03098060
     0.00878559     0.00213062    -0.00457563
     0.00521266    -0.01329885     0.00238521
    -0.00984808     0.00145381    -0.00284139
    -0.00976673    -0.00596392     0.00867236

           2 st state (SSR)
    -0.00209351    -0.01159529     0.13878971
     0.00039809     0.01564998    -0.16026954
    -0.00779721    -0.00434107     0.01331245
    -0.00529329    -0.00285635    -0.00538728
     0.00703686    -0.00647533    -0.01127431
     0.00774906     0.00961807     0.02482897
--------------------------------------------------
 Coupling Information
--------------------------------------------------
 between  1 and  2 states
--------------------------------------------------
 g vector - difference gradient
     0.00147314     0.01193075    -0.05585500
     0.00229106    -0.00611903     0.06476336
     0.00850798     0.00321847    -0.00894047
     0.00551949    -0.00525095     0.00391630
    -0.00873780     0.00395688     0.00421431
    -0.00905386    -0.00773612    -0.00809850

 h vector - derivative coupling
     0.00197109    -0.00169565    -0.00279976
     0.00109403     0.00159220     0.00231947
     0.00611803    -0.00055827     0.00025781
     0.00761410    -0.00076845     0.00080180
    -0.00839225    -0.00029102    -0.00013522
    -0.00840500     0.00172118    -0.00044410

 G vector - GDV
     0.00140412     0.01198224    -0.05572483
     0.00225187    -0.00617041     0.06464447
     0.00829140     0.00323584    -0.00894404
     0.00525298    -0.00522125     0.00388625
    -0.00844247     0.00396457     0.00421646
    -0.00875790    -0.00779100    -0.00807831

 H vector - DCV - non-adiabatic coupling
     0.00769904    -0.00488497    -0.01801637
     0.00446730     0.00525650     0.01736086
     0.02441518    -0.00170175    -0.00019584
     0.02971793    -0.00361746     0.00356868
    -0.03310464    -0.00058695     0.00004018
    -0.03319481     0.00553463    -0.00275750
--------------------------------------------------


--------------------------------------------------------------------------------
DFTB+ running times                          cpu [s]             wall clock [s]
--------------------------------------------------------------------------------
SCC                                    +     0.02  ( 66.9%)      0.02  ( 62.2%)
Post-SCC processing                    +     0.01  ( 29.3%)      0.01  ( 27.0%)
--------------------------------------------------------------------------------
Missing                                +     0.00  (  3.8%)      0.00  ( 10.8%)
Total                                  =     0.03  (100.0%)      0.04  (100.0%)
--------------------------------------------------------------------------------
