     6
  Step:   300            Position(A)                                  Velocity(au)
C        -0.01339635     0.02777021     0.02767868    -0.00008712     0.00009430     0.00008339
N        -0.06334804    -0.05983362     1.28951778     0.00029277    -0.00002857    -0.00013777
H         0.28003291     0.95304527    -0.48549037    -0.00105293    -0.00003723    -0.00059403
H        -0.10732854    -0.99144691     1.73823850    -0.00273075     0.00020034     0.00039442
H        -0.07097055     0.76588216     1.88928076    -0.00037447    -0.00050018     0.00057442
H        -0.27473963    -0.89672130    -0.49939982     0.00112786    -0.00038955     0.00054598
