     6
  Step:     0            Position(A)                                  Velocity(au)
C        -0.03041840     0.02226081     0.01521708     0.00004795    -0.00001859     0.00025627
N        -0.05023082    -0.04492944     1.29561251    -0.00007980     0.00003005    -0.00029626
H         0.88304237    -0.03364460    -0.52259006    -0.00038664     0.00009754     0.00060098
H         0.84619127    -0.21842400     1.89859980     0.00033000    -0.00023654     0.00036046
H        -0.87666504    -0.08717653     1.83756379     0.00076500     0.00002085     0.00035569
H        -1.00501368     0.02856064    -0.50714688    -0.00017083    -0.00007800    -0.00025391
     6
  Step:     1            Position(A)                                  Velocity(au)
C        -0.03017599     0.02216791     0.01650538     0.00004021    -0.00001532     0.00021378
N        -0.05060059    -0.04477270     1.29413154    -0.00005513     0.00002719    -0.00024427
H         0.88134136    -0.03312384    -0.51972265    -0.00023123     0.00009287     0.00044500
H         0.84752417    -0.21965705     1.90024153     0.00015454    -0.00021388     0.00023679
H        -0.87300363    -0.08709694     1.83989334     0.00057149     0.00000827     0.00049840
H        -1.00605727     0.02812172    -0.50875683    -0.00020790    -0.00008275    -0.00033301
     6
  Step:     2            Position(A)                                  Velocity(au)
C        -0.02997882     0.02209338     0.01755412     0.00003157    -0.00001192     0.00016918
N        -0.05083347    -0.04463214     1.29294205    -0.00003011     0.00002421    -0.00019025
H         0.88051446    -0.03262931    -0.51772520    -0.00006898     0.00008829     0.00028472
H         0.84788073    -0.22076223     1.90118844    -0.00002559    -0.00019058     0.00010781
H        -0.87041737    -0.08708609     1.84301241     0.00037570    -0.00000413     0.00064395
H        -1.00728653     0.02765600    -0.51078746    -0.00023895    -0.00008803    -0.00040867
     6
  Step:     3            Position(A)                                  Velocity(au)
C        -0.02983125     0.02203772     0.01835252     0.00002221    -0.00000845     0.00012257
N        -0.05092936    -0.04450835     1.29205437    -0.00000526     0.00002114    -0.00013426
H         0.88058820    -0.03215985    -0.51661396     0.00009689     0.00008406     0.00012209
H         0.84724475    -0.22173787     1.90141859    -0.00020802    -0.00016725    -0.00002459
H        -0.86890157    -0.08714204     1.84692417     0.00018293    -0.00001606     0.00078881
H        -1.00866618     0.02716058    -0.51321881    -0.00026341    -0.00009390    -0.00048104
     6
  Step:     4            Position(A)                                  Velocity(au)
C        -0.02973663     0.02200129     0.01889043     0.00001230    -0.00000491     0.00007399
N        -0.05089084    -0.04440170     1.29147821     0.00001896     0.00001800    -0.00007637
H         0.88157081    -0.03171279    -0.51639405     0.00026311     0.00008044    -0.00004099
H         0.84561278    -0.22258567     1.90092040    -0.00039051    -0.00014445    -0.00015860
H        -0.86842294    -0.08726121     1.85161248    -0.00000194    -0.00002723     0.00092941
H        -1.01015834     0.02663220    -0.51603211    -0.00028077    -0.00010042    -0.00055031
     6
  Step:     5            Position(A)                                  Velocity(au)
C        -0.02969735     0.02198426     0.01915805     0.00000201    -0.00000134     0.00002351
N        -0.05072293    -0.04431242     1.29122301     0.00004212     0.00001482    -0.00001660
H         0.88345258    -0.03128418    -0.51706024     0.00042636     0.00007763    -0.00020264
H         0.84299352    -0.22331042     1.89969205    -0.00057064    -0.00012274    -0.00029235
H        -0.86892270    -0.08743849     1.85704212    -0.00017445    -0.00003736     0.00106212
H        -1.01172276     0.02606734    -0.51920971    -0.00029053    -0.00010760    -0.00061652
     6
  Step:     6            Position(A)                                  Velocity(au)
C        -0.02971481     0.02198667     0.01914599    -0.00000849     0.00000222    -0.00002877
N        -0.05043294    -0.04424054     1.29129772     0.00006377     0.00001165     0.00004487
H         0.88620596    -0.03086886    -0.51859707     0.00058318     0.00007583    -0.00036084
H         0.83940907    -0.22392001     1.89774219    -0.00074554    -0.00010270    -0.00042364
H        -0.87031951    -0.08766733     1.86315920    -0.00033057    -0.00004616     0.00118329
H        -1.01331682     0.02546239    -0.52273453    -0.00029219    -0.00011544    -0.00067957
     6
  Step:     7            Position(A)                                  Velocity(au)
C        -0.02978949     0.02200838     0.01884566    -0.00001899     0.00000575    -0.00008258
N        -0.05003044    -0.04418590     1.29171027     0.00008346     0.00000852     0.00010773
H         0.88978530    -0.03046071    -0.52097853     0.00072999     0.00007521    -0.00051337
H         0.83489777    -0.22442568     1.89509180    -0.00091155    -0.00008503    -0.00054977
H        -0.87251233    -0.08793976     1.86989140    -0.00046669    -0.00005339     0.00128931
H        -1.01489561     0.02481383    -0.52658911    -0.00028526    -0.00012386    -0.00073914
     6
  Step:     8            Position(A)                                  Velocity(au)
C        -0.02992091     0.02204907     0.01824999    -0.00002933     0.00000920    -0.00013749
N        -0.04952736    -0.04414806     1.29246656     0.00010070     0.00000550     0.00017138
H         0.89412659    -0.03005279    -0.52416727     0.00086312     0.00007589    -0.00065781
H         0.82951854    -0.22484261     1.89177704    -0.00106408    -0.00007052    -0.00066738
H        -0.87538317    -0.08824658     1.87714858    -0.00057965    -0.00005878     0.00137665
H        -1.01641197     0.02411843    -0.53075444    -0.00026932    -0.00013279    -0.00079467
     6
  Step:     9            Position(A)                                  Velocity(au)
C        -0.03010762     0.02210818     0.01735438    -0.00003929     0.00001251    -0.00019283
N        -0.04893815    -0.04412621     1.29356914     0.00011498     0.00000267     0.00023496
H         0.89914726    -0.02963761    -0.52811358     0.00097891     0.00007792    -0.00079153
H         0.82335610    -0.22519054     1.88785292    -0.00119755    -0.00006010    -0.00077243
H        -0.87879964    -0.08857736     1.88482344    -0.00066687    -0.00006214     0.00144203
H        -1.01781684     0.02337354    -0.53520858    -0.00024408    -0.00014205    -0.00084535
     6
  Step:    10            Position(A)                                  Velocity(au)
C        -0.03034721     0.02218485     0.01615799    -0.00004869     0.00001563    -0.00024771
N        -0.04827996    -0.04411906     1.29501560     0.00012577     0.00000014     0.00029730
H         0.90474657    -0.02920743    -0.53275447     0.00107391     0.00008133    -0.00091180
H         0.81652656    -0.22549463     1.88339708    -0.00130553    -0.00005484    -0.00086027
H        -0.88261789    -0.08892069     1.89279293    -0.00072639    -0.00006328     0.00148264
H        -1.01905998     0.02257732    -0.53992545    -0.00020948    -0.00015147    -0.00089021
     6
  Step:    11            Position(A)                                  Velocity(au)
C        -0.03063630     0.02227789     0.01466490    -0.00005733     0.00001848    -0.00030102
N        -0.04757268    -0.04412473     1.29679702     0.00013256    -0.00000199     0.00035698
H         0.91080699    -0.02875454    -0.53801327     0.00114513     0.00008608    -0.00101595
H         0.80918162    -0.22578599     1.87851274    -0.00138118    -0.00005587    -0.00092598
H        -0.88668626    -0.08926440     1.90092087    -0.00075716    -0.00006210     0.00149640
H        -1.02009118     0.02172904    -0.54487379    -0.00016575    -0.00016079    -0.00092820
     6
  Step:    12            Position(A)                                  Velocity(au)
C        -0.03097053     0.02238577     0.01288526    -0.00006503     0.00002099    -0.00035152
N        -0.04683878    -0.04414068     1.29889669     0.00013493    -0.00000357     0.00041242
H         0.91719638    -0.02827159    -0.54379988     0.00119025     0.00009205    -0.00110157
H         0.80151046    -0.22610204     1.87332991    -0.00141778    -0.00006429    -0.00096474
H        -0.89084973    -0.08959589     1.90906176    -0.00075910    -0.00005859     0.00148220
H        -1.02086198     0.02082924    -0.55001683    -0.00011352    -0.00016976    -0.00095834
     6
  Step:    13            Position(A)                                  Velocity(au)
C        -0.03134464     0.02250657     0.01083597    -0.00007163     0.00002311    -0.00039791
N        -0.04610298    -0.04416366     1.30128934     0.00013256    -0.00000450     0.00046203
H         0.92377182    -0.02775191    -0.55001214     0.00120795     0.00009908    -0.00116677
H         0.79373850    -0.22648629     1.86800436    -0.00140955    -0.00008108    -0.00097242
H        -0.89495470    -0.08990258     1.91706568    -0.00073318    -0.00005280     0.00144005
H        -1.02132766     0.01987987    -0.55531247    -0.00005382    -0.00017815    -0.00097980
     6
  Step:    14            Position(A)                                  Velocity(au)
C        -0.03175262     0.02263805     0.00854083    -0.00007702     0.00002476    -0.00043898
N        -0.04539145    -0.04418978     1.30394112     0.00012534    -0.00000465     0.00050433
H         0.93038486    -0.02718978    -0.55653872     0.00119803     0.00010699    -0.00121037
H         0.78612088    -0.22698732     1.86271295    -0.00135247    -0.00010694    -0.00094617
H        -0.89885466    -0.09017236     1.92478439    -0.00068153    -0.00004490     0.00137127
H        -1.02144954     0.01888423    -0.56071436     0.00001193    -0.00018570    -0.00099209
     6
  Step:    15            Position(A)                                  Velocity(au)
C        -0.03218785     0.02277769     0.00603014    -0.00008112     0.00002593    -0.00047369
N        -0.04473078    -0.04421458     1.30681054     0.00011337    -0.00000396     0.00053815
H         0.93688749    -0.02658066    -0.56326291     0.00116147     0.00011553    -0.00123206
H         0.77893208    -0.22765703     1.85764595    -0.00124501    -0.00014213    -0.00088494
H        -0.90241583    -0.09039411     1.93207792    -0.00060724    -0.00003513     0.00127835
H        -1.02119707     0.01784685    -0.56617354     0.00008196    -0.00019226    -0.00099509
     6
  Step:    16            Position(A)                                  Velocity(au)
C        -0.03264327     0.02292278     0.00333963    -0.00008388     0.00002659    -0.00050128
N        -0.04414668    -0.04423331     1.30985004     0.00009699    -0.00000241     0.00056272
H         0.94313789    -0.02592127    -0.57006680     0.00110030     0.00012448    -0.00123234
H         0.77245057    -0.22854796     1.85299624    -0.00108872    -0.00018640    -0.00078985
H        -0.90552225    -0.09055813     1.93882075    -0.00051424    -0.00002382     0.00116479
H        -1.02054963     0.01677324    -0.57164055     0.00015430    -0.00019768    -0.00098911
     6
  Step:    17            Position(A)                                  Velocity(au)
C        -0.03311166     0.02307053     0.00050900    -0.00008531     0.00002674    -0.00052130
N        -0.04366253    -0.04424113     1.31300840     0.00007682    -0.00000002     0.00057776
H         0.94900624    -0.02520963    -0.57683597     0.00101749     0.00013362    -0.00121258
H         0.76694088    -0.22971000     1.84894652    -0.00088843    -0.00023884    -0.00066433
H        -0.90807973    -0.09065651     1.94490703    -0.00040697    -0.00001133     0.00103488
H        -1.01949766     0.01566955    -0.57706765     0.00022686    -0.00020193    -0.00097484
     6
  Step:    18            Position(A)                                  Velocity(au)
C        -0.03358581     0.02321820    -0.00241991    -0.00008546     0.00002641    -0.00053365
N        -0.04329790    -0.04423348     1.31623333     0.00005371     0.00000313     0.00058345
H         0.95437951    -0.02444498    -0.58346388     0.00091663     0.00014275    -0.00117480
H         0.76263486    -0.23118680     1.84565641    -0.00065211    -0.00029797    -0.00051400
H        -0.91001862    -0.09068335     1.95025459    -0.00029014     0.00000195     0.00089335
H        -1.01804315     0.01454219    -0.58241104     0.00029763    -0.00020503    -0.00095334
     6
  Step:    19            Position(A)                                  Velocity(au)
C        -0.03405874     0.02336317    -0.00540498    -0.00008440     0.00002563    -0.00053858
N        -0.04306735    -0.04420640     1.31947422     0.00002865     0.00000690     0.00058047
H         0.95916439    -0.02362761    -0.58985520     0.00080166     0.00015173    -0.00112155
H         0.75971411    -0.23301215     1.84325038    -0.00039046    -0.00036173    -0.00034623
H        -0.91129510    -0.09063489     1.95480720    -0.00016844     0.00001566     0.00074505
H        -1.01619928     0.01339744    -0.58763259     0.00036473    -0.00020703    -0.00092591
     6
  Step:    20            Position(A)                                  Velocity(au)
C        -0.03452383     0.02350305    -0.00840564    -0.00008223     0.00002447    -0.00053662
N        -0.04297943    -0.04415681     1.32268459     0.00000279     0.00001110     0.00056985
H         0.96328911    -0.02275866    -0.59592862     0.00067662     0.00016046    -0.00105568
H         0.75829534    -0.23520707     1.84180841    -0.00011577    -0.00042771    -0.00016949
H        -0.91189061    -0.09050928     1.95853502    -0.00004632     0.00002945     0.00059475
H        -1.01398955     0.01224125    -0.59270147     0.00042659    -0.00020811    -0.00089405
     6
  Step:    21            Position(A)                                  Velocity(au)
C        -0.03497505     0.02363578    -0.01138446    -0.00007909     0.00002297    -0.00052857
N        -0.04303628    -0.04408268     1.32582399    -0.00002277     0.00001555     0.00055293
H         0.96670382    -0.02183969    -0.60161848     0.00054538     0.00016891    -0.00098025
H         0.75842416    -0.23777800     1.84136184     0.00015920    -0.00049334     0.00000757
H        -0.91181122    -0.09030673     1.96143435     0.00007217     0.00004299     0.00044684
H        -1.01144586     0.01107849    -0.59759483     0.00048202    -0.00020849    -0.00085937
     6
  Step:    22            Position(A)                                  Velocity(au)
C        -0.03540705     0.02375962    -0.01430850    -0.00007510     0.00002122    -0.00051539
N        -0.04323369    -0.04398315     1.32885946    -0.00004697     0.00002004     0.00053116
H         0.96937969    -0.02087239    -0.60687564     0.00041145     0.00017713    -0.00089825
H         0.76007322    -0.24071650     1.84189290     0.00042228    -0.00055622     0.00017677
H        -0.91108465    -0.09002913     1.96352518     0.00018364     0.00005606     0.00030515
H        -1.00860655     0.00991286    -0.60229855     0.00053025    -0.00020845    -0.00082349
     6
  Step:    23            Position(A)                                  Velocity(au)
C        -0.03581525     0.02387321    -0.01715023    -0.00007043     0.00001928    -0.00049818
N        -0.04356172    -0.04385848     1.33176620    -0.00006894     0.00002440     0.00050609
H         0.97130671    -0.01985816    -0.61166728     0.00027775     0.00018523    -0.00081251
H         0.76314821    -0.24400049     1.84333943     0.00066309    -0.00061432     0.00033129
H        -0.90975687    -0.08967959     1.96484812     0.00028539     0.00006848     0.00017279
H        -1.00551390     0.00874658    -0.60680727     0.00057097    -0.00020828    -0.00078800
     6
  Step:    24            Position(A)                                  Velocity(au)
C        -0.03619587     0.02397556    -0.01988814    -0.00006520     0.00001721    -0.00047802
N        -0.04400579    -0.04370988     1.33452767    -0.00008802     0.00002848     0.00047911
H         0.97249056    -0.01879777    -0.61597579     0.00014655     0.00019341    -0.00072550
H         0.76749985    -0.24759696     1.84560335     0.00087383    -0.00066623     0.00046603
H        -0.90788823    -0.08926210     1.96546043     0.00037546     0.00008020     0.00005210
H        -1.00221168     0.00758015    -0.61112422     0.00060425    -0.00020832    -0.00075436
     6
  Step:    25            Position(A)                                  Velocity(au)
C        -0.03654591     0.02406603    -0.02250677    -0.00005956     0.00001505    -0.00045594
N        -0.04454802    -0.04353929     1.33713492    -0.00010379     0.00003220     0.00045145
H         0.97294893    -0.01769090    -0.61979694     0.00001939     0.00020188    -0.00063923
H         0.77294004    -0.25146600     1.84856161     0.00104950    -0.00071112     0.00057784
H        -0.90554958    -0.08878089     1.96543189     0.00045253     0.00009120    -0.00005534
H        -0.99874288     0.00641223    -0.61526035     0.00063050    -0.00020891    -0.00072381
     6
  Step:    26            Position(A)                                  Velocity(au)
C        -0.03686309     0.02414422    -0.02499615    -0.00005359     0.00001286    -0.00043276
N        -0.04516855    -0.04334910     1.33958541    -0.00011602     0.00003550     0.00042404
H         0.97270776    -0.01653599    -0.62313735    -0.00010285     0.00021091    -0.00055520
H         0.77925772    -0.25556388     1.85207713     0.00118765    -0.00074871     0.00066530
H        -0.90281834    -0.08824032     1.96484043     0.00051580     0.00010153    -0.00014859
H        -0.99514800     0.00523961    -0.61923330     0.00065026    -0.00021038    -0.00069731
     6
  Step:    27            Position(A)                                  Velocity(au)
C        -0.03714573     0.02420997    -0.02735090    -0.00004737     0.00001065    -0.00040911
N        -0.04584675    -0.04314190     1.34188143    -0.00012467     0.00003837     0.00039749
H         0.97179763    -0.01533002    -0.62601160    -0.00021980     0.00022074    -0.00047434
H         0.78623405    -0.25984668     1.85600867     0.00128794    -0.00077913     0.00072835
H        -0.89977590    -0.08764443     1.96376861     0.00056475     0.00011126    -0.00022719
H        -0.99146417     0.00405737    -0.62306575     0.00066410    -0.00021298    -0.00067549
     6
  Step:    28            Position(A)                                  Velocity(au)
C        -0.03739260     0.02426325    -0.02956901    -0.00004096     0.00000844    -0.00038538
N        -0.04656209    -0.04292027     1.34402836    -0.00012978     0.00004081     0.00037211
H         0.97025097    -0.01406864    -0.62843930    -0.00033137     0.00023158    -0.00039717
H         0.79365369    -0.26427255     1.86021830     0.00135144    -0.00080275     0.00076788
H        -0.89650584    -0.08699676     1.96230102     0.00059895     0.00012047    -0.00029092
H        -0.98772504     0.00285906    -0.62678356     0.00067247    -0.00021693    -0.00065863
     6
  Step:    29            Position(A)                                  Velocity(au)
C        -0.03760271     0.02430408    -0.03165052    -0.00003437     0.00000622    -0.00036171
N        -0.04729467    -0.04268664     1.34603305    -0.00013143     0.00004284     0.00034794
H         0.96810052    -0.01274633    -0.63044276    -0.00043758     0.00024358    -0.00032386
H         0.80131196    -0.26880288     1.86457593     0.00137994    -0.00082000     0.00078526
H        -0.89309347    -0.08630033     1.96052285     0.00061792     0.00012925    -0.00033965
H        -0.98396140     0.00163709    -0.63041402     0.00067566    -0.00022238    -0.00064671
     6
  Step:    30            Position(A)                                  Velocity(au)
C        -0.03777532     0.02433251    -0.03359634    -0.00002764     0.00000400    -0.00033812
N        -0.04802540    -0.04244325     1.34790240    -0.00012974     0.00004451     0.00032485
H         0.96537892    -0.01135666    -0.63204524    -0.00053832     0.00025684    -0.00025447
H         0.80901804    -0.27340248     1.86896139     0.00137563    -0.00083131     0.00078206
H        -0.88962585    -0.08555764     1.95851929     0.00062116     0.00013766    -0.00037330
H        -0.98020218     0.00038302    -0.63398404     0.00067376    -0.00022943    -0.00063946
     6
  Step:    31            Position(A)                                  Velocity(au)
C        -0.03790982     0.02434857    -0.03540730    -0.00001862     0.00000315    -0.00034630
N        -0.04873616    -0.04219214     1.34964238    -0.00012546     0.00004598     0.00032632
H         0.96211935    -0.00989261    -0.63327009    -0.00065680     0.00032937    -0.00015819
H         0.81659638    -0.27803946     1.87326527     0.00132124    -0.00090914     0.00074323
H        -0.88619184    -0.08477077     1.95637523     0.00062021     0.00020262    -0.00038882
H        -0.97647535    -0.00091210    -0.63751891     0.00068072    -0.00029940    -0.00060437
     6
  Step:    32            Position(A)                                  Velocity(au)
C        -0.03798184     0.02436750    -0.03743676    -0.00000771     0.00000415    -0.00039420
N        -0.04941675    -0.04193338     1.35152124    -0.00011833     0.00004648     0.00035942
H         0.95809517    -0.00770403    -0.63379949    -0.00079426     0.00044810    -0.00003095
H         0.82367021    -0.28348458     1.87720367     0.00121582    -0.00103561     0.00066602
H        -0.88274786    -0.08331067     1.95420742     0.00061561     0.00031219    -0.00039663
H        -0.97265314    -0.00293720    -0.64068634     0.00069903    -0.00041999    -0.00053575
     6
  Step:    33            Position(A)                                  Velocity(au)
C        -0.03799520     0.02439449    -0.03977268     0.00000262     0.00000570    -0.00045069
N        -0.05004653    -0.04167748     1.35362260    -0.00010758     0.00004560     0.00040105
H         0.95332383    -0.00493038    -0.63361285    -0.00092447     0.00054914     0.00009603
H         0.83006025    -0.28950768     1.88064072     0.00108060    -0.00113067     0.00056837
H        -0.87937467    -0.08131357     1.95198300     0.00059373     0.00040413    -0.00040241
H        -0.96873434    -0.00556300    -0.64345172     0.00071392    -0.00052431    -0.00046460
     6
  Step:    34            Position(A)                                  Velocity(au)
C        -0.03795285     0.02443061    -0.04242360     0.00001238     0.00000738    -0.00050681
N        -0.05060714    -0.04142882     1.35595876    -0.00009356     0.00004402     0.00044316
H         0.94786603    -0.00162788    -0.63273696    -0.00104118     0.00064109     0.00021674
H         0.83562693    -0.29599532     1.88349258     0.00092141    -0.00120674     0.00045701
H        -0.87617835    -0.07883898     1.94975480     0.00055156     0.00048647    -0.00039671
H        -0.96475373    -0.00873858    -0.64582703     0.00072086    -0.00062045    -0.00039613
     6
  Step:    35            Position(A)                                  Velocity(au)
C        -0.03785825     0.02447611    -0.04537935     0.00002143     0.00000906    -0.00055976
N        -0.05108157    -0.04119054     1.35852509    -0.00007657     0.00004190     0.00048325
H         0.94180567     0.00216176    -0.63121509    -0.00114010     0.00072552     0.00032818
H         0.84025341    -0.30285738     1.88569644     0.00074266    -0.00126670     0.00033571
H        -0.87327302    -0.07593198     1.94759433     0.00048834     0.00056086    -0.00037720
H        -0.96075970    -0.01242675    -0.64783390     0.00071775    -0.00070988    -0.00033189
     6
  Step:    36            Position(A)                                  Velocity(au)
C        -0.03771572     0.02453083    -0.04861837     0.00002957     0.00001068    -0.00060764
N        -0.05145448    -0.04096513     1.36130674    -0.00005699     0.00003936     0.00051966
H         0.93524885     0.00640128    -0.62910509    -0.00121715     0.00080281     0.00042752
H         0.84384577    -0.31001362     1.88720782     0.00054905    -0.00131198     0.00020802
H        -0.87077401    -0.07263208     1.94558043     0.00040461     0.00062793    -0.00034323
H        -0.95681054    -0.01659468    -0.64949998     0.00070308    -0.00079296    -0.00027300
     6
  Step:    37            Position(A)                                  Velocity(au)
C        -0.03753070     0.02459438    -0.05211002     0.00003658     0.00001220    -0.00064891
N        -0.05171285    -0.04075459     1.36428121    -0.00003535     0.00003648     0.00055113
H         0.92832353     0.01105426    -0.62647953    -0.00126847     0.00087289     0.00051202
H         0.84633508    -0.31738996     1.88800066     0.00034569    -0.00134361     0.00007757
H        -0.86879118    -0.06897657     1.94379241     0.00030219     0.00068792    -0.00029535
H        -0.95297180    -0.02121023    -0.65085784     0.00067588    -0.00086952    -0.00022038
     6
  Step:    38            Position(A)                                  Velocity(au)
C        -0.03730994     0.02466615    -0.05581616     0.00004222     0.00001358    -0.00068239
N        -0.05184658    -0.04056052     1.36741986    -0.00001227     0.00003335     0.00057672
H         0.92117891     0.01608345    -0.62342577    -0.00129064     0.00093560     0.00057910
H         0.84768022    -0.32491703     1.88806818     0.00013812    -0.00136259    -0.00005199
H        -0.86742213    -0.06500167     1.94230439     0.00018413     0.00074092    -0.00023513
H        -0.94931360    -0.02623950    -0.65194443     0.00063575    -0.00093923    -0.00017481
     6
  Step:    39            Position(A)                                  Velocity(au)
C        -0.03706155     0.02474532    -0.05969263     0.00004626     0.00001479    -0.00070724
N        -0.05184917    -0.04038405     1.37068957     0.00001153     0.00003006     0.00059583
H         0.91398223     0.02145048    -0.62004475    -0.00128114     0.00099084     0.00062663
H         0.84786981    -0.33253075     1.88742302    -0.00006797    -0.00137018    -0.00017703
H        -0.86674513    -0.06074360     1.94117967     0.00005472     0.00078705    -0.00016509
H        -0.94590748    -0.03164675    -0.65280029     0.00058293    -0.00100181    -0.00013687
     6
  Step:    40            Position(A)                                  Velocity(au)
C        -0.03679482     0.02483087    -0.06369118     0.00004852     0.00001580    -0.00072303
N        -0.05171823    -0.04022577     1.37405434     0.00003525     0.00002673     0.00060822
H         0.90691362     0.02711632    -0.61644833    -0.00123863     0.00103872     0.00065318
H         0.84692336    -0.34017379     1.88609700    -0.00026698    -0.00136795    -0.00029419
H        -0.86681284    -0.05623800     1.94046608    -0.00008083     0.00082648    -0.00008850
H        -0.94282279    -0.03739451    -0.65346840     0.00051840    -0.00105711    -0.00010682
     6
  Step:    41            Position(A)                                  Velocity(au)
C        -0.03652009     0.02492168    -0.06776163     0.00004886     0.00001659    -0.00072983
N        -0.05145575    -0.04008571     1.37747725     0.00005812     0.00002346     0.00061402
H         0.90015922     0.03304255    -0.61275532    -0.00116327     0.00107972     0.00065822
H         0.84489031    -0.34779701     1.88413987    -0.00045374    -0.00135790    -0.00040052
H        -0.86764720    -0.05152010     1.94019204    -0.00021678     0.00085958    -0.00000905
H        -0.94012221    -0.04344398    -0.65399234     0.00044381    -0.00110524    -0.00008461
     6
  Step:    42            Position(A)                                  Velocity(au)
C        -0.03624828     0.02501648    -0.07185457     0.00004726     0.00001715    -0.00072818
N        -0.05106810    -0.03996331     1.38092237     0.00007941     0.00002038     0.00061375
H         0.89390214     0.03919330    -0.60908597    -0.00105678     0.00111470     0.00064226
H         0.84184818    -0.35536235     1.88161707    -0.00062376    -0.00134250    -0.00049366
H        -0.86923754    -0.04662330     1.94036483    -0.00034742     0.00088697     0.00006948
H        -0.93785864    -0.04975701    -0.65441481     0.00036130    -0.00114676    -0.00006990
     6
  Step:    43            Position(A)                                  Velocity(au)
C        -0.03599036     0.02511394    -0.07592388     0.00004377     0.00001747    -0.00071903
N        -0.05056563    -0.03985730     1.38435681     0.00009849     0.00001759     0.00060819
H         0.88831361     0.04553744    -0.60555617    -0.00092235     0.00114494     0.00060681
H         0.83789847    -0.36284526     1.87860638    -0.00077358    -0.00132454    -0.00057197
H        -0.87154153    -0.04157794     1.94097080    -0.00046764     0.00090949     0.00014361
H        -0.93607236    -0.05629820    -0.65477585     0.00027333    -0.00118257    -0.00006202
     6
  Step:    44            Position(A)                                  Velocity(au)
C        -0.03575680     0.02521267    -0.07992907     0.00003853     0.00001755    -0.00070364
N        -0.04996205    -0.03976575     1.38775213     0.00011490     0.00001523     0.00059832
H         0.88354441     0.05205058    -0.60227164    -0.00076437     0.00117192     0.00055428
H         0.83316112    -0.37023653     1.87519400    -0.00090082    -0.00130699    -0.00063455
H        -0.87448895    -0.03641008     1.94197756    -0.00057321     0.00092812     0.00021047
H        -0.93478926    -0.06303692    -0.65511124     0.00018245    -0.00121387    -0.00006006
     6