|===============================================================================
|
|  DFTB+ release 20.1
|
|  Copyright (C) 2006 - 2020  DFTB+ developers group
|
|===============================================================================
|
|  When publishing results obtained with DFTB+, please cite the following
|  reference:
|
|  * DFTB+, a software package for efficient approximate density functional
|    theory based atomistic simulations, J. Chem. Phys. 152, 124101 (2020).
|    [doi: 10.1063/1.5143190]
|
|  You should also cite additional publications crediting the parametrization
|  data you use. Please consult the documentation of the SK-files for the
|  references.
|
|===============================================================================

Reading input file 'dftb_in.hsd'
Parser version: 8

--------------------------------------------------------------------------------
Reading SK-files:
Done.


Processed input in HSD format written to 'dftb_pin.hsd'

Starting initialization...
--------------------------------------------------------------------------------
OpenMP threads:              1
Chosen random seed:          511510569
Mode:                        Static calculation
Self consistent charges:     Yes
SCC-tolerance:                 0.100000E-05
Max. scc iterations:                   1000
Shell resolved Hubbard:      No
Spin polarisation:           No
Nr. of up electrons:             6.000000
Nr. of down electrons:           6.000000
Periodic boundaries:         No
Electronic solver:           Relatively robust
Maximal SCC-cycles:                    1000
Initial charges:             Set automatically (system chrg:   0.100E+01)
Included shells:             C:  s, p
                             N:  s, p
                             H:  s
Spin coupling constants:     C   1(s)-1(s):  -0.455900E-01
                             C   1(s)-2(p):  -0.293000E-01
                             C   2(p)-1(s):  -0.293000E-01
                             C   2(p)-2(p):  -0.275500E-01
                             N   1(s)-1(s):  -0.468700E-01
                             N   1(s)-2(p):  -0.317000E-01
                             N   2(p)-1(s):  -0.317000E-01
                             N   2(p)-2(p):  -0.307200E-01
                             H   1(s)-1(s):  -0.792500E-01
Range separated hybrid:      Yes
  Screening parameter omega:   0.300000E+00
  Range separated algorithm:   MatrixBased
Extra options:
                             Mulliken analysis
                             Force calculation
Force type                   original
                             Eigenvector printing


REKS Calcuation:             Yes
SSR(2,2) Calcuation:         Yes
Energy Functional:           (PPS+OSS)/2
Number of Core Orbitals:                  5
Number of Active Orbitals:                2
Number of Basis:                         12
Number of States:                         2
State-Averaging Weight:          0.500000
                                 0.500000
State of Interest:                        1
Initial Guess:               Diagonalize H0 matrix
Newton-Raphson for FON opt:  Yes
NR max. Iterations:                      50
Level Shifting:              Yes
Shift Value:                     0.300000
W Scale Factor:              C  =    3.000000
                             N  =    3.000000
                             H  =    3.000000
Transition Dipole:           No
Gradient of Microstate:      No
CP-REKS Solver:              Preconditioned Conjugate-Gradient
CG max. Iterations:                     100
CG Tolerance:                  0.100000E-07
Memory for A and Hxc:        Direct Updating Without Saving
Non-Adiabatic Coupling:      Yes

--------------------------------------------------------------------------------

***  Geometry step: 0

  iSCC       reks energy        Diff energy         x_a       SCC error   
    1       -6.2637321071       0.0000000000     0.999301    1.19530743
    2       -6.2764043953      -0.0126722882     0.999706    0.09546560
    3       -6.2801056607      -0.0037012654     0.999834    0.04087345
    4       -6.2818266276      -0.0017209669     0.999888    0.01961054
    5       -6.2827634472      -0.0009368196     0.999915    0.00971816
    6       -6.2833231118      -0.0005596646     0.999929    0.00607077
    7       -6.2836744467      -0.0003513348     0.999938    0.00521223
    8       -6.2838999141      -0.0002254674     0.999943    0.00463157
    9       -6.2840458483      -0.0001459342     0.999946    0.00411891
   10       -6.2841406045      -0.0000947562     0.999948    0.00359714
   11       -6.2842022283      -0.0000616239     0.999950    0.00309927
   12       -6.2842423654      -0.0000401371     0.999951    0.00264292
   13       -6.2842685566      -0.0000261912     0.999952    0.00223585
   14       -6.2842856855      -0.0000171289     0.999952    0.00187966
   15       -6.2842969149      -0.0000112293     0.999952    0.00157235
   16       -6.2843042946      -0.0000073797     0.999952    0.00131002
   17       -6.2843091556      -0.0000048611     0.999953    0.00108789
   18       -6.2843123644      -0.0000032088     0.999953    0.00090102
   19       -6.2843144864      -0.0000021220     0.999953    0.00074459
   20       -6.2843158920      -0.0000014056     0.999953    0.00061418
   21       -6.2843168242      -0.0000009322     0.999953    0.00050583
   22       -6.2843174431      -0.0000006189     0.999953    0.00041605
   23       -6.2843178544      -0.0000004113     0.999953    0.00034183
   24       -6.2843181279      -0.0000002735     0.999953    0.00028059
   25       -6.2843183098      -0.0000001819     0.999953    0.00023014
   26       -6.2843184309      -0.0000001211     0.999953    0.00018863
   27       -6.2843185115      -0.0000000806     0.999953    0.00015452
   28       -6.2843185652      -0.0000000537     0.999953    0.00012652
   29       -6.2843186010      -0.0000000358     0.999953    0.00010354
   30       -6.2843186248      -0.0000000238     0.999953    0.00008471
   31       -6.2843186407      -0.0000000159     0.999953    0.00006928
   32       -6.2843186512      -0.0000000106     0.999953    0.00005665
   33       -6.2843186583      -0.0000000070     0.999953    0.00004631
   34       -6.2843186630      -0.0000000047     0.999953    0.00003785
   35       -6.2843186661      -0.0000000031     0.999953    0.00003093
   36       -6.2843186682      -0.0000000021     0.999953    0.00002527
   37       -6.2843186696      -0.0000000014     0.999953    0.00002064
   38       -6.2843186705      -0.0000000009     0.999953    0.00001686
   39       -6.2843186711      -0.0000000006     0.999953    0.00001377
   40       -6.2843186715      -0.0000000004     0.999953    0.00001125
   41       -6.2843186718      -0.0000000003     0.999953    0.00000919
   42       -6.2843186720      -0.0000000002     0.999953    0.00000750
   43       -6.2843186721      -0.0000000001     0.999953    0.00000612
   44       -6.2843186722      -0.0000000001     0.999953    0.00000500
   45       -6.2843186722      -0.0000000001     0.999953    0.00000408
   46       -6.2843186723      -0.0000000000     0.999953    0.00000333
   47       -6.2843186723      -0.0000000000     0.999953    0.00000272
   48       -6.2843186723      -0.0000000000     0.999953    0.00000222
   49       -6.2843186723      -0.0000000000     0.999953    0.00000181
   50       -6.2843186723      -0.0000000000     0.999953    0.00000148
   51       -6.2843186723      -0.0000000000     0.999953    0.00000121
   52       -6.2843186723      -0.0000000000     0.999953    0.00000099
  
--------------------------------------------------
 Final SA-REKS(2,2) energy:      -6.28431867
  
 State     Energy      FON(1)    FON(2)   Spin
  PPS   -6.41139084   1.999906  0.000094  0.00
  OSS   -6.15724651   1.000000  1.000000  0.00
 Trip   -6.23828767   1.000000  1.000000  1.00
--------------------------------------------------

 Lagrangian Wab:  -0.00593630 -0.00593609

--------------------------------------------------
 SSR: 2SI-2SA-REKS(2,2) Hamiltonian matrix
               PPS           OSS
   PPS    -6.41139084   -0.00833730
   OSS    -0.00833730   -6.15724651
--------------------------------------------------

----------------------------------------------------------------
 SSR: 2SI-2SA-REKS(2,2) states
                    E_n       C_{PPS}    C_{OSS}
 SSR state  1   -6.41166405  -0.999463  -0.032753
 SSR state  2   -6.15697329   0.032753  -0.999463
----------------------------------------------------------------

 unrelaxed SSR FONs for S0:  1.998833  0.001167

Total Energy:                       -6.4116640527 H         -174.4703 eV
Extrapolated to 0:                  -6.4116640527 H         -174.4703 eV

----------------------------------------------------------------------------------
 Solving CP-REKS equation for  1 state vector...
----------------------------------------------------------------------------------
  CG solver: Constructing Y initial guess
  CG solver: Iteration    1    eps =    0.000128270489
  CG solver: Iteration    2    eps =    0.000049865058
  CG solver: Iteration    3    eps =    0.000002525488
  CG solver: Iteration    4    eps =    0.000000635995
  CG solver: Iteration    5    eps =    0.000000010568
  CG solver: Iteration    6    eps =    0.000000003191
  Convergence reached in CG solver after    6 iterations
  CG solver: Calculating converged R, Z, Q2 matrix
----------------------------------------------------------------------------------

----------------------------------------------------------------------------------
 Solving CP-REKS equation for SI between  1 and  2 state vectors...
----------------------------------------------------------------------------------
  CG solver: Constructing Y initial guess
  CG solver: Iteration    1    eps =    0.002031921466
  CG solver: Iteration    2    eps =    0.002244466582
  CG solver: Iteration    3    eps =    0.000416834708
  CG solver: Iteration    4    eps =    0.000004693662
  CG solver: Iteration    5    eps =    0.000000585272
  CG solver: Iteration    6    eps =    0.000000009140
  Convergence reached in CG solver after    6 iterations
  CG solver: Calculating converged R, Z, Q2 matrix
----------------------------------------------------------------------------------

--------------------------------------------------
 Gradient Information
--------------------------------------------------
           1 st state (SSR)
    -0.00300133     0.00155651     0.03534902
    -0.00775069    -0.00298832    -0.02573379
    -0.00104852     0.01165730    -0.00161723
     0.00143892    -0.01167257     0.00003964
     0.00756743     0.01393752    -0.00402054
     0.00279420    -0.01249044    -0.00401710

           2 st state (SSR)
    -0.00031256    -0.01004059     0.14017594
    -0.00452799     0.01422548    -0.15129415
    -0.01327785    -0.01123273     0.01636790
    -0.00282494     0.00961631    -0.00798975
     0.00834184    -0.01342927    -0.01347753
     0.01260150     0.01086080     0.01621759
--------------------------------------------------
 Coupling Information
--------------------------------------------------
 between  1 and  2 states
--------------------------------------------------
 g vector - difference gradient
    -0.00125035     0.00581328    -0.05328098
    -0.00173792    -0.00875281     0.06348662
     0.00609842     0.01226224    -0.00893191
     0.00196946    -0.01142452     0.00405291
    -0.00013486     0.01453922     0.00479557
    -0.00494475    -0.01243740    -0.01012221

 h vector - derivative coupling
    -0.00147728    -0.00003451     0.01150460
     0.00187631     0.00194182    -0.00870973
     0.00044794    -0.01208053    -0.00121924
     0.00254607     0.01154072    -0.00045090
    -0.00385879    -0.01259549    -0.00086741
     0.00046575     0.01122798    -0.00025732

 G vector - GDV
    -0.00134439     0.00579855    -0.05241346
    -0.00161135    -0.00860690     0.06278018
     0.00611466     0.01144501    -0.00899257
     0.00213193    -0.01064444     0.00401469
    -0.00038721     0.01368340     0.00472850
    -0.00490365    -0.01167562    -0.01011734

 H vector - DCV - non-adiabatic coupling
    -0.00546645    -0.00162954     0.05877020
     0.00779794     0.00985785    -0.05044359
     0.00018736    -0.05048249    -0.00248086
     0.00946901     0.04815223    -0.00280841
    -0.01508371    -0.05308535    -0.00463116
     0.00309585     0.04718729     0.00159381
--------------------------------------------------


--------------------------------------------------------------------------------
DFTB+ running times                          cpu [s]             wall clock [s]
--------------------------------------------------------------------------------
SCC                                    +     0.02  ( 67.8%)      0.03  ( 64.1%)
Post-SCC processing                    +     0.01  ( 28.6%)      0.01  ( 28.2%)
  Force calculation                          0.01  ( 28.0%)      0.01  ( 25.6%)
--------------------------------------------------------------------------------
Missing                                +     0.00  (  3.6%)      0.00  (  7.7%)
Total                                  =     0.03  (100.0%)      0.04  (100.0%)
--------------------------------------------------------------------------------
