|===============================================================================
|
|  DFTB+ release 20.1
|
|  Copyright (C) 2006 - 2020  DFTB+ developers group
|
|===============================================================================
|
|  When publishing results obtained with DFTB+, please cite the following
|  reference:
|
|  * DFTB+, a software package for efficient approximate density functional
|    theory based atomistic simulations, J. Chem. Phys. 152, 124101 (2020).
|    [doi: 10.1063/1.5143190]
|
|  You should also cite additional publications crediting the parametrization
|  data you use. Please consult the documentation of the SK-files for the
|  references.
|
|===============================================================================

Reading input file 'dftb_in.hsd'
Parser version: 8

--------------------------------------------------------------------------------
Reading SK-files:
Done.


Processed input in HSD format written to 'dftb_pin.hsd'

Starting initialization...
--------------------------------------------------------------------------------
WARNING!
-> Excited state forces are not implemented yet for fractional occupations, kT=  0.3158E-02K
OpenMP threads:              1
Chosen random seed:          435693075
Mode:                        Static calculation
Self consistent charges:     Yes
SCC-tolerance:                 0.100000E-05
Max. scc iterations:                    100
Shell resolved Hubbard:      No
Spin polarisation:           No
Nr. of up electrons:             6.000000
Nr. of down electrons:           6.000000
Periodic boundaries:         No
Electronic solver:           Relatively robust
Mixer:                       Broyden mixer
Mixing parameter:                  0.200000
Maximal SCC-cycles:                     100
Nr. of chrg. vec. in memory:              0
Electronic temperature:        0.100000E-07 H      0.272114E-06 eV
Initial charges:             Set automatically (system chrg:   0.100E+01)
Included shells:             C:  s, p
                             N:  s, p
                             H:  s
Extra options:
                             Mulliken analysis
                             Force calculation
Force type                   original
                             Eigenvector printing

--------------------------------------------------------------------------------

***  Geometry step: 0

 iSCC Total electronic   Diff electronic      SCC error    
    1   -0.53251216E+01    0.00000000E+00    0.91327557E+00
    2   -0.53386608E+01   -0.13539207E-01    0.57507670E+00
    3   -0.53448568E+01   -0.61959633E-02    0.17728949E+00
    4   -0.53383592E+01    0.64975613E-02    0.32858042E+00
    5   -0.53458484E+01   -0.74891968E-02    0.25697629E-02
    6   -0.53458482E+01    0.18921265E-06    0.14543238E-02
    7   -0.53458485E+01   -0.33174642E-06    0.32690506E-03
    8   -0.53458485E+01    0.16452733E-08    0.34597907E-03
    9   -0.53458485E+01   -0.94484633E-08    0.35368217E-04
   10   -0.53458485E+01   -0.97392316E-10    0.23978366E-06
>> Charges saved for restart in charges.bin

Total Energy:                       -5.0210112661 H         -136.6287 eV
Extrapolated to 0:                  -5.1755002286 H         -140.8325 eV
Total Mermin free energy:           -5.0210112661 H         -136.6287 eV
Force related energy:               -5.1755002286 H         -140.8325 eV

--------------------------------------------------------------------------------
DFTB+ running times                          cpu [s]             wall clock [s]
--------------------------------------------------------------------------------
SCC                                    +     0.01  ( 57.6%)      0.03  ( 63.0%)
Post-SCC processing                    +     0.01  ( 37.3%)      0.02  ( 29.6%)
--------------------------------------------------------------------------------
Missing                                +     0.00  (  5.1%)      0.00  (  7.4%)
Total                                  =     0.03  (100.0%)      0.05  (100.0%)
--------------------------------------------------------------------------------
