    14
  Step:     0            Position(A)                                  Velocity(au)
C        -5.98962186    -0.89392129    -0.12143088     0.00010659     0.00036998     0.00007417
C        -4.64072196    -0.71557002     0.09498529     0.00010127    -0.00000794     0.00015067
H        -6.55474220    -0.03678091    -0.48394695    -0.00026074    -0.00019096    -0.00028042
H        -6.44332949    -1.93100843    -0.21595986     0.00027052     0.00063696    -0.00016120
H        -4.03773338    -1.54628931     0.38238960    -0.00078255    -0.00091451    -0.00005110
C        -4.00982638     0.55992333     0.00501825    -0.00026781    -0.00037196    -0.00038415
C        -2.62191818     0.62622868     0.19574535     0.00018479    -0.00030957     0.00017988
H        -4.60743079     1.45127776    -0.15637637    -0.00051504     0.00022123    -0.00018085
H        -2.21001285    -0.33544334     0.44928591     0.00063050     0.00085207    -0.00010692
C        -1.79306254     1.76945005     0.02265209    -0.00017695     0.00015347    -0.00000945
H        -2.33068894     2.72746335    -0.21734132    -0.00110652     0.00080108     0.00093180
N        -0.50396573     1.66142113     0.19308269     0.00015333     0.00003368    -0.00000270
H         0.18358353     2.40770004    -0.10631304    -0.00019184    -0.00039626    -0.00008403
H         0.09253764     0.77593842     0.33178380     0.00044593     0.00050076    -0.00016219
    14
  Step:     1            Position(A)                                  Velocity(au)
C        -5.98856717    -0.88999659    -0.12074142     0.00008556     0.00034765     0.00005182
C        -4.63958243    -0.71551671     0.09666252     0.00010705     0.00001646     0.00015593
H        -6.55805035    -0.03900325    -0.48674946    -0.00034220    -0.00020813    -0.00023216
H        -6.43988138    -1.92243706    -0.21716641     0.00035411     0.00091644    -0.00005938
H        -4.04555607    -1.55719479     0.38191447    -0.00064991    -0.00106420    -0.00003812
C        -4.01313812     0.55576086     0.00079711    -0.00033638    -0.00038754    -0.00038716
C        -2.61954166     0.62296142     0.19772492     0.00024847    -0.00028272     0.00018053
H        -4.61316820     1.45387007    -0.15851589    -0.00052018     0.00023145    -0.00020746
H        -2.20216312    -0.32640085     0.44837865     0.00081383     0.00076591    -0.00005009
C        -1.79550582     1.77101886     0.02252048    -0.00026768     0.00013265    -0.00001355
H        -2.34134312     2.73549414    -0.20693759    -0.00082899     0.00064875     0.00097069
N        -0.50167382     1.66180504     0.19304500     0.00026033     0.00003689    -0.00000444
H         0.17970951     2.40245668    -0.10656691    -0.00049596    -0.00053761     0.00002953
H         0.09489943     0.78317575     0.32976686    -0.00000628     0.00080215    -0.00020325
    14
  Step:     2            Position(A)                                  Velocity(au)
C        -5.98775016    -0.88631575    -0.12029719     0.00006344     0.00032621     0.00002948
C        -4.63838000    -0.71520982     0.09839654     0.00011303     0.00003772     0.00016119
H        -6.56222844    -0.04133412    -0.48902580    -0.00041901    -0.00021132    -0.00018415
H        -6.43558271    -1.91095957    -0.21725887     0.00042199     0.00115852     0.00004124
H        -4.05195131    -1.56957080     0.38155559    -0.00052642    -0.00117599    -0.00003204
C        -4.01718524     0.55144514    -0.00345151    -0.00040163    -0.00040001    -0.00038907
C        -2.61648241     0.62004372     0.19969481     0.00030926    -0.00024644     0.00017823
H        -4.61881078     1.45634128    -0.16091501    -0.00049927     0.00020067    -0.00022868
H        -2.19220872    -0.31868749     0.44819016     0.00101214     0.00061604     0.00002244
C        -1.79891851     1.77235208     0.02235576    -0.00035228     0.00011003    -0.00001518
H        -2.34882458     2.74165602    -0.19610559    -0.00053267     0.00046686     0.00100775
N        -0.49827052     1.66222816     0.19298555     0.00035355     0.00004119    -0.00000662
H         0.17273335     2.39593877    -0.10566701    -0.00074588    -0.00061694     0.00012159
H         0.09240031     0.79348694     0.32733732    -0.00042823     0.00104512    -0.00023483
    14
  Step:     3            Position(A)                                  Velocity(au)
C        -5.98717932    -0.88286004    -0.12009652     0.00004088     0.00030732     0.00000744
C        -4.63710978    -0.71469142     0.10018897     0.00011948     0.00005451     0.00016670
H        -6.56721692    -0.04362624    -0.49077801    -0.00048949    -0.00020181    -0.00013616
H        -6.43064954    -1.89709224    -0.21626430     0.00046612     0.00134376     0.00013809
H        -4.05707260    -1.58292174     0.38121356    -0.00042010    -0.00123747    -0.00003635
C        -4.02192445     0.54700987    -0.00771458    -0.00046198    -0.00040936    -0.00038967
C        -2.61277611     0.61757012     0.20162396     0.00036630    -0.00020282     0.00017328
H        -4.62409072     1.45826018    -0.16351873    -0.00045629     0.00013335    -0.00024550
H        -2.18002067    -0.31292377     0.44886964     0.00121715     0.00042056     0.00010540
C        -1.80321252     1.77342588     0.02218829    -0.00042725     0.00008503    -0.00001384
H        -2.35299640     2.74570750    -0.18489117    -0.00023008     0.00027034     0.00103860
N        -0.49393923     1.66270625     0.19290025     0.00042749     0.00004739    -0.00000908
H         0.16339201     2.38895998    -0.10390681    -0.00091700    -0.00061109     0.00018195
H         0.08553099     0.80603985     0.32462956    -0.00079054     0.00119391    -0.00025141
    14
  Step:     4            Position(A)                                  Velocity(au)
C        -5.98685589    -0.87959263    -0.12013449     0.00001860     0.00029258    -0.00001401
C        -4.63576615    -0.71401730     0.10204332     0.00012622     0.00006568     0.00017254
H        -6.57293693    -0.04574900    -0.49200452    -0.00055191    -0.00018128    -0.00008780
H        -6.42538550    -1.88156232    -0.21423781     0.00047870     0.00145354     0.00022871
H        -4.06114181    -1.59664280     0.38076041    -0.00033538    -0.00124149    -0.00005268
C        -4.02729183     0.54248950    -0.01197627    -0.00051530    -0.00041545    -0.00038869
C        -2.60846879     0.61560655     0.20348575     0.00041854    -0.00015491     0.00016618
H        -4.62879294     1.45925845    -0.16628587    -0.00039659     0.00003612    -0.00025938
H        -2.16558118    -0.30948684     0.45049604     0.00141729     0.00020435     0.00019163
C        -1.80826532     1.77421234     0.02205294    -0.00048976     0.00005750    -0.00000922
H        -2.35385808     2.74757022    -0.17338424     0.00006640     0.00007416     0.00105954
N        -0.48891839     1.66326501     0.19278700     0.00047781     0.00005653    -0.00001165
H         0.15267229     2.38257002    -0.10168644    -0.00099017    -0.00050208     0.00020218
H         0.07510579     0.81960599     0.32183720    -0.00106486     0.00121348    -0.00024794
    14
  Step:     5            Position(A)                                  Velocity(au)
C        -5.98677252    -0.87645935    -0.12040309    -0.00000260     0.00028344    -0.00003459
C        -4.63434839    -0.71325455     0.10396361     0.00013258     0.00007032     0.00017871
H        -6.57929106    -0.04759203    -0.49269885    -0.00060464    -0.00015165    -0.00003867
H        -6.42017708    -1.86529326    -0.21126088     0.00045293     0.00147184     0.00031096
H        -4.06440972    -1.61008182     0.38006107    -0.00027335    -0.00118637    -0.00008087
C        -4.03319764     0.53792101    -0.01621782    -0.00055917    -0.00041799    -0.00038586
C        -2.60361967     0.61418118     0.20525946     0.00046473    -0.00010630     0.00015747
H        -4.63276694     1.45905042    -0.16919316    -0.00032636    -0.00008284    -0.00027197
H        -2.14901465    -0.30845316     0.45306194     0.00159912    -0.00000476     0.00027317
C        -1.81392695     1.77468383     0.02198648    -0.00053768     0.00002759    -0.00000127
H        -2.35154388     2.74732982    -0.16171173     0.00034459    -0.00010658     0.00106753
N        -0.48348616     1.66394298     0.19264542     0.00050197     0.00006987    -0.00001425
H         0.14173023     2.37797591    -0.09948365    -0.00095614    -0.00028214     0.00017780
H         0.06223522     0.83258707     0.31920543    -0.00122808     0.00107493    -0.00022060
    14
  Step:     6            Position(A)                                  Velocity(au)
C        -5.98691273    -0.87339178    -0.12089128    -0.00002194     0.00028092    -0.00005406
C        -4.63286581    -0.71247899     0.10595296     0.00013750     0.00006781     0.00018507
H        -6.58616459    -0.04906654    -0.49285041    -0.00064625    -0.00011485     0.00001155
H        -6.41547687    -1.84936292    -0.20743502     0.00038423     0.00138817     0.00038350
H        -4.06712177    -1.62259693     0.37899126    -0.00023231    -0.00107532    -0.00011929
C        -4.03952479     0.53334526    -0.02041776    -0.00059129    -0.00041664    -0.00038099
C        -2.59830196     0.61328098     0.20693075     0.00050371    -0.00006062     0.00014773
H        -4.63593273     1.45744616    -0.17223573    -0.00025213    -0.00021443    -0.00028491
H        -2.13059745    -0.30959089     0.45647218     0.00174945    -0.00018065     0.00034259
C        -1.82002808     1.77481592     0.02202525    -0.00056959    -0.00000437     0.00000991
H        -2.34631945     2.74523867    -0.15003004     0.00059281    -0.00025661     0.00106019
N        -0.47793682     1.66479353     0.19247531     0.00049991     0.00008864    -0.00001697
H         0.13175487     2.37639773    -0.09779663    -0.00082006     0.00004078     0.00011069
H         0.04823928     0.84312213     0.31701105    -0.00126874     0.00076477    -0.00016822
    14
  Step:     7            Position(A)                                  Velocity(au)
C        -5.98725244    -0.87031363    -0.12158575    -0.00003893     0.00028526    -0.00007224
C        -4.63134024    -0.71177101     0.10801240     0.00013986     0.00005796     0.00019140
H        -6.59342906    -0.05010467    -0.49244611    -0.00067567    -0.00007272     0.00006292
H        -6.41177124    -1.83492437    -0.20287105     0.00027196     0.00120132     0.00044608
H        -4.06949187    -1.63360645     0.37745130    -0.00020860    -0.00091557    -0.00016527
C        -4.04613334     0.52880619    -0.02455266    -0.00060993    -0.00041123    -0.00037394
C        -2.59259998     0.61285507     0.20849136     0.00053469    -0.00002094     0.00013748
H        -4.63828266     1.45435945    -0.17542613    -0.00018038    -0.00034902    -0.00029974
H        -2.11074202    -0.31240533     0.46055665     0.00185752    -0.00030313     0.00039403
C        -1.82638792     1.77458824     0.02220332    -0.00058478    -0.00003801     0.00002405
H        -2.33857502     2.74171596    -0.13851807     0.00080035    -0.00036118     0.00103580
N        -0.47254974     1.66588217     0.19227425     0.00047453     0.00011353    -0.00002010
H         0.12378978     2.37886796    -0.09706212    -0.00060356     0.00043948     0.00001049
H         0.03447909     0.84931794     0.31552528    -0.00119375     0.00029605    -0.00009373
    14
  Step:     8            Position(A)                                  Velocity(au)
C        -5.98776435    -0.86715113    -0.12247168    -0.00005354     0.00029563    -0.00008906
C        -4.62980603    -0.71121100     0.11014012     0.00013860     0.00004097     0.00019741
H        -6.60094616    -0.05065744    -0.49147400    -0.00069228    -0.00002680     0.00011527
H        -6.40952714    -1.82308176    -0.19767618     0.00012086     0.00092276     0.00049969
H        -4.07168538    -1.64262672     0.37537566    -0.00019745    -0.00071715    -0.00021549
C        -4.05286818     0.52434881    -0.02859839    -0.00061406    -0.00040179    -0.00036468
C        -2.58660462     0.61282294     0.20993831     0.00055720     0.00001049     0.00012712
H        -4.63987887     1.44981076    -0.17879315    -0.00011730    -0.00047688    -0.00031787
H        -2.08996061    -0.31622244     0.46509228     0.00191649    -0.00036037     0.00042393
C        -1.83282130     1.77398446     0.02255141    -0.00058316    -0.00007292     0.00004079
H        -2.32881016     2.73733718    -0.12736988     0.00095824    -0.00040706     0.00099339
N        -0.46755549     1.66727715     0.19203568     0.00043163     0.00014404    -0.00002404
H         0.11855078     2.38601223    -0.09756709    -0.00034232     0.00086923    -0.00010599
H         0.02212378     0.84959877     0.31496046    -0.00103126    -0.00028459    -0.00000510
    14
  Step:     9            Position(A)                                  Velocity(au)
C        -5.98842379    -0.86384617    -0.12353418    -0.00006630     0.00031000    -0.00010456
C        -4.62830806    -0.71087469     0.11233110     0.00013286     0.00001745     0.00020281
H        -6.60857402    -0.05069104    -0.48992429    -0.00069599     0.00002168     0.00016831
H        -6.40912724    -1.81473727    -0.19193943    -0.00005836     0.00057787     0.00054642
H        -4.07381142    -1.64929537     0.37273707    -0.00019353    -0.00049188    -0.00026637
C        -4.05956711     0.52001635    -0.03253082    -0.00060335    -0.00038858    -0.00035326
C        -2.58041024     0.61308457     0.21127241     0.00057101     0.00003231     0.00011696
H        -4.64084879     1.44392684    -0.18238004    -0.00006847    -0.00058858    -0.00034052
H        -2.06881515    -0.32028900     0.46983083     0.00192402    -0.00034929     0.00043111
C        -1.83914563     1.77299296     0.02309568    -0.00056521    -0.00010855     0.00005967
H        -2.31761159     2.73281082    -0.11678581     0.00106031    -0.00038457     0.00093291
N        -0.46310705     1.66903329     0.19174835     0.00037884     0.00017821    -0.00002916
H         0.11630088     2.39788401    -0.09938092    -0.00007879     0.00127554    -0.00021807
H         0.01191837     0.84309209     0.31541370    -0.00082624    -0.00090018     0.00008542
    14
  Step:    10            Position(A)                                  Velocity(au)
C        -5.98921474    -0.86036929    -0.12475907    -0.00007819     0.00032535    -0.00011880
C        -4.62689951    -0.71082926     0.11457698     0.00012200    -0.00001165     0.00020729
H        -6.61617233    -0.05018305    -0.48779197    -0.00068718     0.00007185     0.00022148
H        -6.41080380    -1.81043964    -0.18572216    -0.00024985     0.00020372     0.00058887
H        -4.07591919    -1.65338753     0.36954831    -0.00019134    -0.00025279    -0.00031427
C        -4.06606763     0.51584787    -0.03632662    -0.00057806    -0.00037209    -0.00033976
C        -2.57411269     0.61352987     0.21249697     0.00057607     0.00004397     0.00010715
H        -4.64137682     1.43693447    -0.18624267    -0.00003854    -0.00067555    -0.00036874
H        -2.04786904    -0.32386375     0.47452370     0.00188178    -0.00027415     0.00041644
C        -1.84518640     1.77160965     0.02385682    -0.00053192    -0.00014400     0.00008016
H        -2.30561386     2.72892388    -0.10696070     0.00110445    -0.00029026     0.00085546
N        -0.45926773     1.67117574     0.19139783     0.00032397     0.00021292    -0.00003562
H         0.11682708     2.41391703    -0.10233778     0.00014744     0.00160599    -0.00030600
H         0.00404814     0.82990554     0.31682923    -0.00062871    -0.00145963     0.00016387
    14
  Step:    11            Position(A)                                  Velocity(au)
C        -5.99013428    -0.85672862    -0.12613306    -0.00009045     0.00033816    -0.00013184
C        -4.62563910    -0.71112962     0.11686606     0.00010562    -0.00004506     0.00021056
H        -6.62360750    -0.04911914    -0.48507892    -0.00066664     0.00012307     0.00027415
H        -6.41459311    -1.81028056    -0.17905675    -0.00043530    -0.00015711     0.00062931
H        -4.07799737    -1.65482573     0.36586187    -0.00018539    -0.00001362    -0.00035562
C        -4.07221318     0.51187611    -0.03996380    -0.00053894    -0.00035297    -0.00032433
C        -2.56780751     0.61404649     0.21361658     0.00057246     0.00004553     0.00009778
H        -4.64169201     1.42914796    -0.19044684    -0.00003085    -0.00073075    -0.00040327
H        -2.02764767    -0.32628661     0.47894132     0.00179457    -0.00014455     0.00038228
C        -1.85078250     1.76984273     0.02484925    -0.00048474    -0.00017784     0.00010165
H        -2.29344954     2.72646094    -0.09807099     0.00109352    -0.00012927     0.00076335
N        -0.45601961     1.67369123     0.19096916     0.00027331     0.00024482    -0.00004336
H         0.11952635     2.43301807    -0.10607517     0.00030773     0.00182131    -0.00035533
H        -0.00183589     0.81115987     0.31899866    -0.00047969    -0.00188109     0.00021814
    14
  Step:    12            Position(A)                                  Velocity(au)
C        -5.99119361    -0.85297146    -0.12764330    -0.00010428     0.00034514    -0.00014368
C        -4.62458885    -0.71181509     0.11918333     0.00008352    -0.00008123     0.00021230
H        -6.63075646    -0.04749061    -0.48179447    -0.00063545     0.00017488     0.00032562
H        -6.42032674    -1.81387667    -0.17195483    -0.00059744    -0.00046458     0.00066896
H        -4.07997492    -1.65368539     0.36176841    -0.00017031     0.00021163    -0.00038707
C        -4.07785788     0.50812605    -0.04342202    -0.00048717    -0.00033194    -0.00030713
C        -2.56158895     0.61452595     0.21463617     0.00056036     0.00003754     0.00008885
H        -4.64205174     1.42094782    -0.19506496    -0.00004702    -0.00074955    -0.00044451
H        -2.00860939    -0.32702602     0.48288690     0.00166925     0.00002671     0.00033198
C        -1.85579105     1.76771917     0.02608051    -0.00042549    -0.00020803     0.00012350
H        -2.28169091     2.72609584    -0.09026099     0.00103547     0.00008309     0.00066001
N        -0.45328848     1.67653158     0.19044920     0.00023061     0.00027128    -0.00005216
H         0.12355930     2.45376175    -0.11011124     0.00038819     0.00190162    -0.00035920
H        -0.00644593     0.78875321     0.32160135    -0.00040196    -0.00211130     0.00024079
    14
  Step:    13            Position(A)                                  Velocity(au)
C        -5.99241560    -0.84917806    -0.12927629    -0.00012051     0.00034382    -0.00015421
C        -4.62381184    -0.71290663     0.12151047     0.00005570    -0.00011837     0.00021222
H        -6.63750921    -0.04529326    -0.47795535    -0.00059485     0.00022688     0.00037525
H        -6.42766324    -1.82044410    -0.16442194    -0.00072325    -0.00068849     0.00070769
H        -4.08172314    -1.65019591     0.35739400    -0.00014100     0.00040908    -0.00040556
C        -4.08287086     0.50461438    -0.04668284    -0.00042426    -0.00030974    -0.00028833
C        -2.55554862     0.61486773     0.21556045     0.00054003     0.00002088     0.00008032
H        -4.64272060     1.41275018    -0.20017135    -0.00008659    -0.00073040    -0.00049237
H        -1.99112958    -0.32570217     0.48620391     0.00151383     0.00022521     0.00026941
C        -1.86009090     1.76529162     0.02755097    -0.00035626    -0.00023205     0.00014507
H        -2.27079666     2.72827860    -0.08363191     0.00094223     0.00032237     0.00054967
N        -0.45097459     1.67962598     0.18982814     0.00019700     0.00029091    -0.00006167
H         0.12801884     2.47461962    -0.11393329     0.00038879     0.00184637    -0.00031809
H        -0.01062953     0.76497108     0.32426630    -0.00039890    -0.00213278     0.00022997
    14
  Step:    14            Position(A)                                  Velocity(au)
C        -5.99383002    -0.84544971    -0.13101693    -0.00013951     0.00033289    -0.00016325
C        -4.62337021    -0.71440477     0.12382603     0.00002231    -0.00015461     0.00021005
H        -6.64376989    -0.04252726    -0.47358507    -0.00054613     0.00027863     0.00042250
H        -6.43614914    -1.82893869    -0.15647284    -0.00080559    -0.00081219     0.00074415
H        -4.08305955    -1.64473597     0.35289592    -0.00009285     0.00056563    -0.00040850
C        -4.08713945     0.50134995    -0.04972986    -0.00035204    -0.00028701    -0.00026814
C        -2.54977467     0.61498274     0.21639323     0.00051188    -0.00000325     0.00007206
H        -4.64394601     1.40496898    -0.20583641    -0.00014673    -0.00067550    -0.00054615
H        -1.97549139    -0.32209922     0.48878066     0.00133696     0.00043575     0.00019879
C        -1.86358483     1.76264261     0.02925411    -0.00027924    -0.00024718     0.00016577
H        -2.26107781     2.73314826    -0.07823600     0.00082768     0.00055847     0.00043674
N        -0.44897863     1.68289582     0.18910003     0.00017169     0.00030351    -0.00007155
H         0.13206494     2.49415453    -0.11707012     0.00031967     0.00166999    -0.00023795
H        -0.01517259     0.74209457     0.32663234    -0.00045946    -0.00195869     0.00018848
    14
  Step:    15            Position(A)                                  Velocity(au)
C        -5.99546772    -0.84189543    -0.13284772    -0.00016117     0.00031219    -0.00017058
C        -4.62332368    -0.71628896     0.12610567    -0.00001633    -0.00018804     0.00020554
H        -6.64945685    -0.03919776    -0.46871243    -0.00049055     0.00032964     0.00046692
H        -6.44528712    -1.83821224    -0.14814230    -0.00084330    -0.00083257     0.00077633
H        -4.08375435    -1.63782160     0.34845736    -0.00002213     0.00066996    -0.00039390
C        -4.09057239     0.49833542    -0.05254903    -0.00027254    -0.00026423    -0.00024679
C        -2.54435034     0.61479663     0.21713694     0.00047636    -0.00003337     0.00006394
H        -4.64593057     1.39797223    -0.21211954    -0.00022212    -0.00059107    -0.00060452
H        -1.96188109    -0.31616921     0.49055277     0.00114754     0.00064303     0.00012450
C        -1.86619983     1.75988414     0.03117741    -0.00019658    -0.00025099     0.00018511
H        -2.25268960     2.74049610    -0.07407737     0.00070517     0.00076090     0.00032535
N        -0.44721853     1.68626591     0.18826276     0.00015275     0.00030967    -0.00008147
H         0.13501215     2.51115390    -0.11913890     0.00019679     0.00139617    -0.00012783
H        -0.02068116     0.72212097     0.32838966    -0.00056526    -0.00162151     0.00012195
    14
  Step:    16            Position(A)                                  Velocity(au)
C        -5.99735591    -0.83862000    -0.13474877    -0.00018500     0.00028247    -0.00017600
C        -4.62372736    -0.71851847     0.12832263    -0.00005968    -0.00021697     0.00019853
H        -6.65450167    -0.03531581    -0.46337040    -0.00042926     0.00037932     0.00050818
H        -6.45459791    -1.84715267    -0.13948917    -0.00083991    -0.00075722     0.00080211
H        -4.08354370    -1.63007930     0.34427858     0.00007323     0.00071403    -0.00036078
C        -4.09310176     0.49556934    -0.05512892    -0.00018795    -0.00024167    -0.00022453
C        -2.53935332     0.61425273     0.21779195     0.00043404    -0.00006772     0.00005572
H        -4.64880534     1.39203809    -0.21906150    -0.00030524    -0.00048692    -0.00066544
H        -1.95038685    -0.30803170     0.49150444     0.00095457     0.00083181     0.00005104
C        -1.86788533     1.75715173     0.03330368    -0.00011018    -0.00024182     0.00020274
H        -2.24565090     2.74979443    -0.07111830     0.00058549     0.00090429     0.00021887
N        -0.44563703     1.68967035     0.18731781     0.00013781     0.00031028    -0.00009109
H         0.13637011     2.52469845    -0.11986655     0.00003858     0.00105296     0.00000200
H        -0.02753884     0.70662082     0.32930015    -0.00069620    -0.00116205     0.00003712
    14
  Step:    17            Position(A)                                  Velocity(au)
C        -5.99951505    -0.83571593    -0.13669811    -0.00021033     0.00024507    -0.00017935
C        -4.62462927    -0.72103551     0.13044879    -0.00010696    -0.00024007     0.00018893
H        -6.65884780    -0.03089937    -0.45759496    -0.00036327     0.00042701     0.00054607
H        -6.46366168    -1.85477785    -0.13059462    -0.00080200    -0.00060060     0.00081969
H        -4.08215222    -1.62220089     0.34056466     0.00019287     0.00069464    -0.00030936
C        -4.09468426     0.49304835    -0.05746096    -0.00010055    -0.00021944    -0.00020162
C        -2.53485492     0.61331509     0.21835590     0.00038553    -0.00010428     0.00004714
H        -4.65260830     1.38731986    -0.22667738    -0.00038703    -0.00037533    -0.00072634
H        -1.94099797    -0.29797179     0.49166934     0.00076710     0.00098717    -0.00001708
C        -1.86861029     1.75459379     0.03561282    -0.00002171    -0.00021910     0.00021848
H        -2.23988091     2.76027919    -0.06928927     0.00047584     0.00097213     0.00011969
N        -0.44420368     1.69305381     0.18627002     0.00012448     0.00030628    -0.00010013
H         0.13585606     2.53418943    -0.11909511    -0.00013611     0.00066983     0.00014115
H        -0.03591195     0.69669884     0.32920184    -0.00083349    -0.00062240    -0.00005916
    14
  Step:    18            Position(A)                                  Velocity(au)
C        -6.00195721    -0.83325854    -0.13867238    -0.00023636     0.00020167    -0.00018053
C        -4.62606737    -0.72377047     0.13245583    -0.00015710    -0.00025660     0.00017681
H        -6.66244890    -0.02597416    -0.45142414    -0.00029345     0.00047196     0.00058041
H        -6.47214313    -1.86029194    -0.12155689    -0.00073771    -0.00038068     0.00082782
H        -4.07932427    -1.61488267     0.33751072     0.00033307     0.00061491    -0.00024136
C        -4.09530141     0.49076870    -0.05953969    -0.00001253    -0.00019754    -0.00017835
C        -2.53091910     0.61197143     0.21882313     0.00033155    -0.00014078     0.00003786
H        -4.65727228     1.38382693    -0.23495152    -0.00045787    -0.00026940    -0.00078431
H        -1.93360498    -0.28643547     0.49113076     0.00059403     0.00109490    -0.00007539
C        -1.86836033     1.75235855     0.03808346     0.00006742    -0.00018342     0.00023228
H        -2.23524099     2.77106166    -0.06849990     0.00037981     0.00095822     0.00002927
N        -0.44291383     1.69637089     0.18512734     0.00011046     0.00029853    -0.00010830
H         0.13339246     2.53935237    -0.11677860    -0.00030869     0.00027642     0.00027959
H        -0.04577312     0.69300469     0.32800590    -0.00096054    -0.00004313    -0.00016044
    14
  Step:    19            Position(A)                                  Velocity(au)
C        -6.00468579    -0.83130402    -0.14064757    -0.00026231     0.00015404    -0.00017952
C        -4.62806605    -0.72664914     0.13431689    -0.00020867    -0.00026649     0.00016238
H        -6.66526752    -0.02057428    -0.44489730    -0.00022055     0.00051340     0.00061112
H        -6.47980057    -1.86310590    -0.11248453    -0.00065576    -0.00011667     0.00082586
H        -4.07486560    -1.60874847     0.33528439     0.00048616     0.00048506    -0.00016006
C        -4.09495836     0.48872684    -0.06136280     0.00007404    -0.00017599    -0.00015502
C        -2.52760166     0.61023523     0.21918421     0.00027289    -0.00017484     0.00002755
H        -4.66262508     1.38142617    -0.24383566    -0.00050875    -0.00018118    -0.00083646
H        -1.92800234    -0.27401881     0.49001996     0.00044381     0.00114221    -0.00011973
C        -1.86713539     1.75058115     0.04069449     0.00015595    -0.00013645     0.00024422
H        -2.23157174     2.78124200    -0.06864901     0.00029818     0.00086557    -0.00005175
N        -0.44178719     1.69958476     0.18390072     0.00009358     0.00028780    -0.00011535
H         0.12910292     2.54023669    -0.11297859    -0.00046091    -0.00009767     0.00040767
H        -0.05692570     0.69575519     0.32569187    -0.00106258     0.00053639    -0.00026058
    14
  Step:    20            Position(A)                                  Velocity(au)
C        -6.00769577    -0.82988867    -0.14259978    -0.00028744     0.00010400    -0.00017636
C        -4.63063242    -0.72960051     0.13600823    -0.00025997    -0.00027035     0.00014598
H        -6.66727393    -0.01474265    -0.43805470    -0.00014527     0.00055050     0.00063811
H        -6.48648910    -1.86284437    -0.10348963    -0.00056494     0.00017199     0.00081379
H        -4.06868864    -1.60427115     0.33400912     0.00064062     0.00032169    -0.00007006
C        -4.09368169     0.48691867    -0.06293102     0.00015733    -0.00015491    -0.00013187
C        -2.52494913     0.60814644     0.21942586     0.00021047    -0.00020411     0.00001587
H        -4.66840205     1.37986336    -0.25325068    -0.00053224    -0.00012005    -0.00088021
H        -1.92389587    -0.26144749     0.48851149     0.00032378     0.00111887    -0.00014656
C        -1.86494860     1.74937355     0.04342614     0.00024270    -0.00008062     0.00025443
H        -2.22871778     2.78999767    -0.06963206     0.00022987     0.00070413    -0.00012331
N        -0.44086667     1.70266708     0.18260388     0.00007175     0.00027495    -0.00012103