|===============================================================================
|
|  DFTB+ release 20.1
|
|  Copyright (C) 2006 - 2020  DFTB+ developers group
|
|===============================================================================
|
|  When publishing results obtained with DFTB+, please cite the following
|  reference:
|
|  * DFTB+, a software package for efficient approximate density functional
|    theory based atomistic simulations, J. Chem. Phys. 152, 124101 (2020).
|    [doi: 10.1063/1.5143190]
|
|  You should also cite additional publications crediting the parametrization
|  data you use. Please consult the documentation of the SK-files for the
|  references.
|
|===============================================================================

Reading input file 'dftb_in.hsd'
Parser version: 8

--------------------------------------------------------------------------------
Reading SK-files:
Done.


Processed input in HSD format written to 'dftb_pin.hsd'

Starting initialization...
--------------------------------------------------------------------------------
OpenMP threads:              1
Chosen random seed:          500221650
Mode:                        Static calculation
Self consistent charges:     Yes
SCC-tolerance:                 0.100000E-05
Max. scc iterations:                   1000
Shell resolved Hubbard:      No
Spin polarisation:           No
Nr. of up electrons:            16.000000
Nr. of down electrons:          16.000000
Periodic boundaries:         No
Electronic solver:           Relatively robust
Maximal SCC-cycles:                    1000
Initial charges:             Set automatically (system chrg:   0.100E+01)
Included shells:             C:  s, p
                             H:  s
                             N:  s, p
Spin coupling constants:     C   1(s)-1(s):  -0.455900E-01
                             C   1(s)-2(p):  -0.293000E-01
                             C   2(p)-1(s):  -0.293000E-01
                             C   2(p)-2(p):  -0.275500E-01
                             H   1(s)-1(s):  -0.792500E-01
                             N   1(s)-1(s):  -0.468700E-01
                             N   1(s)-2(p):  -0.317000E-01
                             N   2(p)-1(s):  -0.317000E-01
                             N   2(p)-2(p):  -0.307200E-01
Range separated hybrid:      Yes
  Screening parameter omega:   0.300000E+00
  Range separated algorithm:   MatrixBased
Extra options:
                             Mulliken analysis
                             Force calculation
Force type                   original
                             Eigenvector printing


REKS Calcuation:             Yes
SSR(2,2) Calcuation:         Yes
Energy Functional:           (PPS+OSS)/2
Number of Core Orbitals:                 15
Number of Active Orbitals:                2
Number of Basis:                         32
Number of States:                         2
State-Averaging Weight:          0.500000
                                 0.500000
State of Interest:                        1
Initial Guess:               Diagonalize H0 matrix
Newton-Raphson for FON opt:  Yes
NR max. Iterations:                      50
Level Shifting:              Yes
Shift Value:                     0.300000
W Scale Factor:              C  =    3.200000
                             H  =    3.200000
                             N  =    3.200000
Transition Dipole:           No
Gradient of Microstate:      No
CP-REKS Solver:              Preconditioned Conjugate-Gradient
CG max. Iterations:                     100
CG Tolerance:                  0.100000E-07
Memory for A and Hxc:        Direct Updating Without Saving
Non-Adiabatic Coupling:      Yes

--------------------------------------------------------------------------------

***  Geometry step: 0

  iSCC       reks energy        Diff energy         x_a       SCC error   
    1      -16.3619611416       0.0000000000     0.997852    1.25613845
    2      -16.3788656217      -0.0169044800     0.999381    0.03246335
    3      -16.3835855727      -0.0047199510     0.999729    0.01957002
    4      -16.3854796647      -0.0018940919     0.999841    0.01301515
    5      -16.3864061019      -0.0009264373     0.999889    0.00917459
    6      -16.3869244483      -0.0005183463     0.999912    0.00675668
    7      -16.3872432857      -0.0003188375     0.999926    0.00514136
    8      -16.3874526483      -0.0002093625     0.999935    0.00401232
    9      -16.3875968522      -0.0001442039     0.999940    0.00319426
   10      -16.3877001839      -0.0001033317     0.999945    0.00258361
   11      -16.3877769904      -0.0000768065     0.999948    0.00211645
   12      -16.3878361602      -0.0000591698     0.999950    0.00175184
   13      -16.3878833640      -0.0000472039     0.999952    0.00146269
   14      -16.3879222887      -0.0000389247     0.999954    0.00123047
   15      -16.3879553626      -0.0000330739     0.999955    0.00104206
   16      -16.3879842015      -0.0000288389     0.999957    0.00095300
   17      -16.3880098901      -0.0000256886     0.999958    0.00088760
   18      -16.3880331633      -0.0000232732     0.999958    0.00083606
   19      -16.3880545239      -0.0000213607     0.999959    0.00079697
   20      -16.3880743204      -0.0000197965     0.999960    0.00076092
   21      -16.3880927975      -0.0000184771     0.999960    0.00072752
   22      -16.3881101307      -0.0000173332     0.999961    0.00069643
   23      -16.3881264486      -0.0000163178     0.999961    0.00066734
   24      -16.3881418478      -0.0000153992     0.999962    0.00063999
   25      -16.3881564035      -0.0000145557     0.999962    0.00061417
   26      -16.3881701761      -0.0000137725     0.999962    0.00058971
   27      -16.3881832154      -0.0000130394     0.999963    0.00056645
   28      -16.3881955645      -0.0000123490     0.999963    0.00054429
   29      -16.3882072609      -0.0000116964     0.999963    0.00052311
   30      -16.3882183387      -0.0000110778     0.999964    0.00050285
   31      -16.3882288291      -0.0000104904     0.999964    0.00048343
   32      -16.3882387612      -0.0000099321     0.999964    0.00046480
   33      -16.3882481623      -0.0000094011     0.999964    0.00044691
   34      -16.3882570584      -0.0000088961     0.999965    0.00042973
   35      -16.3882654743      -0.0000084159     0.999965    0.00041323
   36      -16.3882734336      -0.0000079593     0.999965    0.00039736
   37      -16.3882809588      -0.0000075253     0.999965    0.00038211
   38      -16.3882880717      -0.0000071129     0.999965    0.00036746
   39      -16.3882947932      -0.0000067214     0.999965    0.00035794
   40      -16.3883011430      -0.0000063498     0.999966    0.00035064
   41      -16.3883071403      -0.0000059973     0.999966    0.00034329
   42      -16.3883128034      -0.0000056631     0.999966    0.00033589
   43      -16.3883181497      -0.0000053463     0.999966    0.00032849
   44      -16.3883231959      -0.0000050463     0.999966    0.00032110
   45      -16.3883279581      -0.0000047621     0.999966    0.00031518
   46      -16.3883324513      -0.0000044932     0.999966    0.00031079
   47      -16.3883366902      -0.0000042389     0.999967    0.00030614
   48      -16.3883406884      -0.0000039983     0.999967    0.00030129
   49      -16.3883444593      -0.0000037708     0.999967    0.00029626
   50      -16.3883480152      -0.0000035559     0.999967    0.00029108
   51      -16.3883513680      -0.0000033528     0.999967    0.00028578
   52      -16.3883545290      -0.0000031610     0.999967    0.00028039
   53      -16.3883575089      -0.0000029799     0.999967    0.00027492
   54      -16.3883603178      -0.0000028089     0.999967    0.00026940
   55      -16.3883629653      -0.0000026475     0.999967    0.00026385
   56      -16.3883654606      -0.0000024953     0.999967    0.00025828
   57      -16.3883678122      -0.0000023516     0.999968    0.00025270
   58      -16.3883700283      -0.0000022161     0.999968    0.00024713
   59      -16.3883721166      -0.0000020883     0.999968    0.00024158
   60      -16.3883740844      -0.0000019678     0.999968    0.00023607
   61      -16.3883759386      -0.0000018542     0.999968    0.00023059
   62      -16.3883776857      -0.0000017471     0.999968    0.00022517
   63      -16.3883793317      -0.0000016461     0.999968    0.00021980
   64      -16.3883808827      -0.0000015509     0.999968    0.00021449
   65      -16.3883823439      -0.0000014612     0.999968    0.00020926
   66      -16.3883837206      -0.0000013767     0.999968    0.00020409
   67      -16.3883850176      -0.0000012970     0.999968    0.00019901
   68      -16.3883862396      -0.0000012220     0.999968    0.00019400
   69      -16.3883873908      -0.0000011513     0.999968    0.00018908
   70      -16.3883884755      -0.0000010846     0.999969    0.00018425
   71      -16.3883894974      -0.0000010219     0.999969    0.00017950
   72      -16.3883904601      -0.0000009627     0.999969    0.00017485
   73      -16.3883913672      -0.0000009070     0.999969    0.00017028
   74      -16.3883922217      -0.0000008546     0.999969    0.00016581
   75      -16.3883930269      -0.0000008051     0.999969    0.00016143
   76      -16.3883937854      -0.0000007586     0.999969    0.00015715
   77      -16.3883945001      -0.0000007147     0.999969    0.00015296
   78      -16.3883951735      -0.0000006734     0.999969    0.00014886
   79      -16.3883958080      -0.0000006345     0.999969    0.00014485
   80      -16.3883964058      -0.0000005978     0.999969    0.00014094
   81      -16.3883969690      -0.0000005633     0.999969    0.00013712
   82      -16.3883974998      -0.0000005307     0.999969    0.00013338
   83      -16.3883979999      -0.0000005001     0.999969    0.00012974
   84      -16.3883984711      -0.0000004712     0.999969    0.00012619
   85      -16.3883989151      -0.0000004440     0.999969    0.00012272
   86      -16.3883993336      -0.0000004184     0.999969    0.00011934
   87      -16.3883997279      -0.0000003943     0.999969    0.00011604
   88      -16.3884000994      -0.0000003716     0.999970    0.00011283
   89      -16.3884004496      -0.0000003502     0.999970    0.00010970
   90      -16.3884007796      -0.0000003300     0.999970    0.00010665
   91      -16.3884010906      -0.0000003110     0.999970    0.00010368
   92      -16.3884013836      -0.0000002931     0.999970    0.00010078
   93      -16.3884016599      -0.0000002762     0.999970    0.00009796
   94      -16.3884019202      -0.0000002603     0.999970    0.00009522
   95      -16.3884021655      -0.0000002454     0.999970    0.00009255
   96      -16.3884023968      -0.0000002312     0.999970    0.00008995
   97      -16.3884026147      -0.0000002180     0.999970    0.00008742
   98      -16.3884028202      -0.0000002054     0.999970    0.00008496
   99      -16.3884030138      -0.0000001936     0.999970    0.00008256
  100      -16.3884031963      -0.0000001825     0.999970    0.00008023
  101      -16.3884033684      -0.0000001720     0.999970    0.00007796
  102      -16.3884035306      -0.0000001622     0.999970    0.00007576
  103      -16.3884036834      -0.0000001529     0.999970    0.00007361
  104      -16.3884038275      -0.0000001441     0.999970    0.00007153
  105      -16.3884039634      -0.0000001358     0.999970    0.00006951
  106      -16.3884040915      -0.0000001281     0.999970    0.00006754
  107      -16.3884042122      -0.0000001207     0.999970    0.00006562
  108      -16.3884043260      -0.0000001138     0.999970    0.00006376
  109      -16.3884044333      -0.0000001073     0.999970    0.00006195
  110      -16.3884045345      -0.0000001012     0.999970    0.00006019
  111      -16.3884046298      -0.0000000954     0.999970    0.00005848
  112      -16.3884047197      -0.0000000899     0.999970    0.00005682
  113      -16.3884048045      -0.0000000848     0.999970    0.00005520
  114      -16.3884048844      -0.0000000799     0.999970    0.00005363
  115      -16.3884049598      -0.0000000754     0.999970    0.00005210
  116      -16.3884050309      -0.0000000711     0.999970    0.00005062
  117      -16.3884050979      -0.0000000670     0.999970    0.00004917
  118      -16.3884051610      -0.0000000632     0.999970    0.00004777
  119      -16.3884052206      -0.0000000596     0.999970    0.00004641
  120      -16.3884052767      -0.0000000562     0.999970    0.00004508
  121      -16.3884053297      -0.0000000530     0.999970    0.00004380
  122      -16.3884053796      -0.0000000499     0.999970    0.00004255
  123      -16.3884054267      -0.0000000471     0.999970    0.00004133
  124      -16.3884054711      -0.0000000444     0.999971    0.00004015
  125      -16.3884055130      -0.0000000419     0.999971    0.00003900
  126      -16.3884055525      -0.0000000395     0.999971    0.00003789
  127      -16.3884055897      -0.0000000372     0.999971    0.00003680
  128      -16.3884056248      -0.0000000351     0.999971    0.00003575
  129      -16.3884056580      -0.0000000331     0.999971    0.00003473
  130      -16.3884056892      -0.0000000312     0.999971    0.00003373
  131      -16.3884057186      -0.0000000295     0.999971    0.00003277
  132      -16.3884057464      -0.0000000278     0.999971    0.00003183
  133      -16.3884057726      -0.0000000262     0.999971    0.00003092
  134      -16.3884057973      -0.0000000247     0.999971    0.00003003
  135      -16.3884058206      -0.0000000233     0.999971    0.00002917
  136      -16.3884058426      -0.0000000220     0.999971    0.00002834
  137      -16.3884058633      -0.0000000207     0.999971    0.00002753
  138      -16.3884058828      -0.0000000195     0.999971    0.00002674
  139      -16.3884059013      -0.0000000184     0.999971    0.00002597
  140      -16.3884059187      -0.0000000174     0.999971    0.00002523
  141      -16.3884059351      -0.0000000164     0.999971    0.00002450
  142      -16.3884059505      -0.0000000155     0.999971    0.00002380
  143      -16.3884059651      -0.0000000146     0.999971    0.00002312
  144      -16.3884059789      -0.0000000138     0.999971    0.00002246
  145      -16.3884059918      -0.0000000130     0.999971    0.00002181
  146      -16.3884060041      -0.0000000122     0.999971    0.00002119
  147      -16.3884060156      -0.0000000115     0.999971    0.00002058
  148      -16.3884060265      -0.0000000109     0.999971    0.00001999
  149      -16.3884060368      -0.0000000103     0.999971    0.00001942
  150      -16.3884060465      -0.0000000097     0.999971    0.00001886
  151      -16.3884060556      -0.0000000091     0.999971    0.00001832
  152      -16.3884060642      -0.0000000086     0.999971    0.00001780
  153      -16.3884060723      -0.0000000081     0.999971    0.00001729
  154      -16.3884060800      -0.0000000077     0.999971    0.00001679
  155      -16.3884060872      -0.0000000072     0.999971    0.00001631
  156      -16.3884060941      -0.0000000068     0.999971    0.00001584
  157      -16.3884061005      -0.0000000064     0.999971    0.00001539
  158      -16.3884061066      -0.0000000061     0.999971    0.00001495
  159      -16.3884061123      -0.0000000057     0.999971    0.00001452
  160      -16.3884061177      -0.0000000054     0.999971    0.00001410
  161      -16.3884061228      -0.0000000051     0.999971    0.00001370
  162      -16.3884061276      -0.0000000048     0.999971    0.00001330
  163      -16.3884061321      -0.0000000045     0.999971    0.00001292
  164      -16.3884061364      -0.0000000043     0.999971    0.00001255
  165      -16.3884061404      -0.0000000040     0.999971    0.00001219
  166      -16.3884061442      -0.0000000038     0.999971    0.00001184
  167      -16.3884061478      -0.0000000036     0.999971    0.00001150
  168      -16.3884061512      -0.0000000034     0.999971    0.00001117
  169      -16.3884061544      -0.0000000032     0.999971    0.00001085
  170      -16.3884061574      -0.0000000030     0.999971    0.00001054
  171      -16.3884061603      -0.0000000028     0.999971    0.00001024
  172      -16.3884061629      -0.0000000027     0.999971    0.00000994
  173      -16.3884061655      -0.0000000025     0.999971    0.00000966
  174      -16.3884061679      -0.0000000024     0.999971    0.00000938
  175      -16.3884061701      -0.0000000023     0.999971    0.00000911
  176      -16.3884061722      -0.0000000021     0.999971    0.00000885
  177      -16.3884061742      -0.0000000020     0.999971    0.00000860
  178      -16.3884061761      -0.0000000019     0.999971    0.00000835
  179      -16.3884061779      -0.0000000018     0.999971    0.00000811
  180      -16.3884061796      -0.0000000017     0.999971    0.00000788
  181      -16.3884061812      -0.0000000016     0.999971    0.00000765
  182      -16.3884061827      -0.0000000015     0.999971    0.00000743
  183      -16.3884061841      -0.0000000014     0.999971    0.00000722
  184      -16.3884061854      -0.0000000013     0.999971    0.00000701
  185      -16.3884061867      -0.0000000013     0.999971    0.00000681
  186      -16.3884061879      -0.0000000012     0.999971    0.00000662
  187      -16.3884061890      -0.0000000011     0.999971    0.00000643
  188      -16.3884061900      -0.0000000011     0.999971    0.00000624
  189      -16.3884061910      -0.0000000010     0.999971    0.00000606
  190      -16.3884061920      -0.0000000009     0.999971    0.00000589
  191      -16.3884061929      -0.0000000009     0.999971    0.00000572
  192      -16.3884061937      -0.0000000008     0.999971    0.00000556
  193      -16.3884061945      -0.0000000008     0.999971    0.00000540
  194      -16.3884061952      -0.0000000007     0.999971    0.00000524
  195      -16.3884061959      -0.0000000007     0.999971    0.00000509
  196      -16.3884061966      -0.0000000007     0.999971    0.00000495
  197      -16.3884061972      -0.0000000006     0.999971    0.00000480
  198      -16.3884061978      -0.0000000006     0.999971    0.00000467
  199      -16.3884061984      -0.0000000006     0.999971    0.00000453
  200      -16.3884061989      -0.0000000005     0.999971    0.00000440
  201      -16.3884061994      -0.0000000005     0.999971    0.00000428
  202      -16.3884061998      -0.0000000005     0.999971    0.00000415
  203      -16.3884062003      -0.0000000004     0.999971    0.00000403
  204      -16.3884062007      -0.0000000004     0.999971    0.00000392
  205      -16.3884062011      -0.0000000004     0.999971    0.00000381
  206      -16.3884062015      -0.0000000004     0.999971    0.00000370
  207      -16.3884062018      -0.0000000003     0.999971    0.00000359
  208      -16.3884062021      -0.0000000003     0.999971    0.00000349
  209      -16.3884062024      -0.0000000003     0.999971    0.00000339
  210      -16.3884062027      -0.0000000003     0.999971    0.00000329
  211      -16.3884062030      -0.0000000003     0.999971    0.00000320
  212      -16.3884062033      -0.0000000003     0.999971    0.00000311
  213      -16.3884062035      -0.0000000002     0.999971    0.00000302
  214      -16.3884062038      -0.0000000002     0.999971    0.00000293
  215      -16.3884062040      -0.0000000002     0.999971    0.00000285
  216      -16.3884062042      -0.0000000002     0.999971    0.00000276
  217      -16.3884062044      -0.0000000002     0.999971    0.00000268
  218      -16.3884062046      -0.0000000002     0.999971    0.00000261
  219      -16.3884062047      -0.0000000002     0.999971    0.00000253
  220      -16.3884062049      -0.0000000002     0.999971    0.00000246
  221      -16.3884062051      -0.0000000002     0.999971    0.00000239
  222      -16.3884062052      -0.0000000001     0.999971    0.00000232
  223      -16.3884062053      -0.0000000001     0.999971    0.00000225
  224      -16.3884062055      -0.0000000001     0.999971    0.00000219
  225      -16.3884062056      -0.0000000001     0.999971    0.00000213
  226      -16.3884062057      -0.0000000001     0.999971    0.00000207
  227      -16.3884062058      -0.0000000001     0.999971    0.00000201
  228      -16.3884062059      -0.0000000001     0.999971    0.00000195
  229      -16.3884062060      -0.0000000001     0.999971    0.00000189
  230      -16.3884062061      -0.0000000001     0.999971    0.00000184
  231      -16.3884062062      -0.0000000001     0.999971    0.00000179
  232      -16.3884062063      -0.0000000001     0.999971    0.00000174
  233      -16.3884062063      -0.0000000001     0.999971    0.00000169
  234      -16.3884062064      -0.0000000001     0.999971    0.00000164
  235      -16.3884062065      -0.0000000001     0.999971    0.00000159
  236      -16.3884062066      -0.0000000001     0.999971    0.00000154
  237      -16.3884062066      -0.0000000001     0.999971    0.00000150
  238      -16.3884062067      -0.0000000001     0.999971    0.00000146
  239      -16.3884062067      -0.0000000001     0.999971    0.00000142
  240      -16.3884062068      -0.0000000001     0.999971    0.00000137
  241      -16.3884062068      -0.0000000000     0.999971    0.00000134
  242      -16.3884062069      -0.0000000000     0.999971    0.00000130
  243      -16.3884062069      -0.0000000000     0.999971    0.00000126
  244      -16.3884062070      -0.0000000000     0.999971    0.00000122
  245      -16.3884062070      -0.0000000000     0.999971    0.00000119
  246      -16.3884062070      -0.0000000000     0.999971    0.00000115
  247      -16.3884062071      -0.0000000000     0.999971    0.00000112
  248      -16.3884062071      -0.0000000000     0.999971    0.00000109
  249      -16.3884062071      -0.0000000000     0.999971    0.00000106
  250      -16.3884062072      -0.0000000000     0.999971    0.00000103
  251      -16.3884062072      -0.0000000000     0.999971    0.00000100
  
--------------------------------------------------
 Final SA-REKS(2,2) energy:     -16.38840621
  
 State     Energy      FON(1)    FON(2)   Spin
  PPS  -16.45434184   1.999942  0.000058  0.00
  OSS  -16.32247057   1.000000  1.000000  0.00
 Trip  -16.36444249   1.000000  1.000000  1.00
--------------------------------------------------

 Lagrangian Wab:   0.01530296  0.01530240

--------------------------------------------------
 SSR: 2SI-2SA-REKS(2,2) Hamiltonian matrix
               PPS           OSS
   PPS   -16.45434184    0.02152492
   OSS     0.02152492  -16.32247057
--------------------------------------------------

----------------------------------------------------------------
 SSR: 2SI-2SA-REKS(2,2) states
                    E_n       C_{PPS}    C_{OSS}
 SSR state  1  -16.45776635  -0.987580   0.157119
 SSR state  2  -16.31904606  -0.157119  -0.987580
----------------------------------------------------------------

 unrelaxed SSR FONs for S0:  1.975257  0.024743

Total Energy:                      -16.4577663548 H         -447.8386 eV
Extrapolated to 0:                 -16.4577663548 H         -447.8386 eV

----------------------------------------------------------------------------------
 Solving CP-REKS equation for  1 state vector...
----------------------------------------------------------------------------------
  CG solver: Constructing Y initial guess
  CG solver: Iteration    1    eps =    0.007042817820
  CG solver: Iteration    2    eps =    0.001693638458
  CG solver: Iteration    3    eps =    0.000295207502
  CG solver: Iteration    4    eps =    0.000961790842
  CG solver: Iteration    5    eps =    0.000251554822
  CG solver: Iteration    6    eps =    0.000156246547
  CG solver: Iteration    7    eps =    0.000030814986
  CG solver: Iteration    8    eps =    0.000003033552
  CG solver: Iteration    9    eps =    0.000001107560
  CG solver: Iteration   10    eps =    0.000000092071
  CG solver: Iteration   11    eps =    0.000000003484
  Convergence reached in CG solver after   11 iterations
  CG solver: Calculating converged R, Z, Q2 matrix
----------------------------------------------------------------------------------

----------------------------------------------------------------------------------
 Solving CP-REKS equation for SI between  1 and  2 state vectors...
----------------------------------------------------------------------------------
  CG solver: Constructing Y initial guess
  CG solver: Iteration    1    eps =    0.055106152793
  CG solver: Iteration    2    eps =    0.005649397731
  CG solver: Iteration    3    eps =    0.005154205032
  CG solver: Iteration    4    eps =    0.003159602737
  CG solver: Iteration    5    eps =    0.000973909908
  CG solver: Iteration    6    eps =    0.001501268638
  CG solver: Iteration    7    eps =    0.000486442956
  CG solver: Iteration    8    eps =    0.000035169803
  CG solver: Iteration    9    eps =    0.000009439188
  CG solver: Iteration   10    eps =    0.000001414458
  CG solver: Iteration   11    eps =    0.000000092619
  CG solver: Iteration   12    eps =    0.000000010752
  CG solver: Iteration   13    eps =    0.000000002983
  Convergence reached in CG solver after   13 iterations
  CG solver: Calculating converged R, Z, Q2 matrix
----------------------------------------------------------------------------------

--------------------------------------------------
 Gradient Information
--------------------------------------------------
           1 st state (SSR)
     0.03765916    -0.01949874    -0.01112575
     0.00821529     0.03991437    -0.04172123
    -0.00422906    -0.01448085    -0.01503184
    -0.01037101     0.02395833     0.01642657
    -0.00188857    -0.00258919     0.00243932
    -0.04883261     0.00443400    -0.00541954
     0.05303863     0.01577808     0.07335206
     0.01389232    -0.01113187     0.01120540
    -0.03599234    -0.00197167     0.02134698
     0.00894981    -0.04293145    -0.06439866
    -0.01300677    -0.01547481     0.00813431
    -0.03074659     0.04138771    -0.01872751
     0.02463019    -0.01161213     0.00975298
    -0.00131846    -0.00578179     0.01376689

           2 st state (SSR)
     0.04444486    -0.01722624    -0.01765187
     0.03274296    -0.01225171    -0.02281522
    -0.00739313    -0.01681093    -0.01752668
    -0.00942833     0.02636522     0.01672543
    -0.00746650    -0.00238160     0.00563906
     0.01621555     0.13517968     0.02327953
    -0.02319424    -0.07964345     0.04996605
    -0.01295306     0.01340251     0.00650347
     0.01652766    -0.02551927    -0.00262457
    -0.00830766    -0.04458987    -0.02806017
    -0.01341269    -0.01678856     0.01049181
    -0.05277131     0.05656686    -0.04408690
     0.02763450    -0.01026674     0.00650431
    -0.00263861    -0.00603589     0.01365575
--------------------------------------------------
 Coupling Information
--------------------------------------------------
 between  1 and  2 states
--------------------------------------------------
 g vector - difference gradient
     0.00202535    -0.00283831    -0.00442615
    -0.02226607     0.04246871    -0.00523157
     0.00724716     0.00585660     0.00282656
    -0.00277846    -0.00517586    -0.00150825
     0.00897170     0.00374448    -0.00029603
    -0.06095192    -0.10877378    -0.03430111
     0.06643316     0.06801463     0.02567943
     0.01971535    -0.01569415     0.00277177
    -0.04370193     0.01711270     0.02219609
     0.02856748    -0.00383312    -0.01132481
     0.00277511     0.00224449    -0.00166596
    -0.00657774    -0.00171416     0.00221438
    -0.00202385    -0.00109814     0.00441678
     0.00256466    -0.00031409    -0.00135112

 h vector - derivative coupling
     0.01713695    -0.00503305    -0.02407290
    -0.02868796     0.04604329     0.01443511
     0.01710184     0.01418593     0.00463879
    -0.00699223    -0.01197695    -0.00413860
     0.01849538     0.01180464     0.00424848
    -0.08190639    -0.12254627    -0.05883321
     0.08067630     0.05460470     0.04098323
     0.01714035    -0.00854591     0.00091499
    -0.04925069     0.01448110     0.02936959
     0.05970404    -0.01441368     0.02385668
     0.00784678     0.00475870    -0.00130489
    -0.05563443     0.01920520    -0.03407489
    -0.00135908    -0.00119619     0.00829547
     0.00572915    -0.00137152    -0.00431785

 G vector - GDV
    -0.00339285    -0.00113625     0.00326306
    -0.01226384     0.02608304    -0.00945300
     0.00158204     0.00116504     0.00124742
    -0.00047134    -0.00120344    -0.00014943
     0.00278897    -0.00010379    -0.00159987
    -0.03252408    -0.06537284    -0.01434953
     0.03811644     0.04771077     0.01169301
     0.01342269    -0.01226719     0.00235097
    -0.02626000     0.01177380     0.01198578
     0.00862873     0.00082921    -0.01816924
     0.00020296     0.00065688    -0.00117875
     0.01101236    -0.00758958     0.01267970
    -0.00150216    -0.00067270     0.00162433
     0.00066007     0.00012705     0.00005557

 H vector - DCV - non-adiabatic coupling
     0.12196763    -0.04084031    -0.17486945
    -0.24640591     0.41053513     0.08721768
     0.13340890     0.11031578     0.03811220
    -0.05413237    -0.09365510    -0.03173529
     0.14681663     0.08927212     0.02845185
    -0.69764831    -1.08313041    -0.47991029
     0.70148092     0.52635458     0.33829952
     0.16156580    -0.09367357     0.01247112
    -0.43527373     0.13751996     0.25092048
     0.47305102    -0.10734976     0.13815077
     0.05998100     0.03763179    -0.01266917
    -0.39596874     0.12777526    -0.22855569
    -0.01384120    -0.01065399     0.06672843
     0.04499837    -0.01010146    -0.03261215
--------------------------------------------------


--------------------------------------------------------------------------------
DFTB+ running times                          cpu [s]             wall clock [s]
--------------------------------------------------------------------------------
SCC                                    +     0.37  ( 51.7%)      0.37  ( 51.7%)
      Sparse to dense                        0.02  (  2.7%)      0.03  (  3.6%)
      Dense to sparse                        0.07  (  9.6%)      0.08  ( 10.6%)
      Range separated Hamiltonian            0.03  (  4.5%)      0.04  (  4.9%)
  Density matrix creation                    0.04  (  5.6%)      0.04  (  5.2%)
Post-SCC processing                    +     0.34  ( 48.0%)      0.34  ( 47.8%)
  Force calculation                          0.34  ( 48.0%)      0.34  ( 47.6%)
--------------------------------------------------------------------------------
Missing                                +     0.00  (  0.2%)      0.00  (  0.6%)
Total                                  =     0.71  (100.0%)      0.72  (100.0%)
--------------------------------------------------------------------------------
