    14
  Step:     0            Position(A)                                  Velocity(au)
C        -6.05574045    -0.80052662    -0.05536443     0.00019310     0.00022166     0.00007717
C        -4.70659921    -0.70522097     0.14689951    -0.00038675    -0.00023776    -0.00001374
H        -6.65985795     0.02747059    -0.46168394     0.00060338     0.00073473    -0.00009240
H        -6.57478884    -1.74171113     0.14561435    -0.00184132    -0.00046249    -0.00106336
H        -4.22276162    -1.59261039     0.61878989     0.00019972     0.00056559    -0.00005453
C        -3.92098926     0.45087467    -0.14054225    -0.00000180    -0.00016122    -0.00008530
C        -2.56093678     0.51358884     0.17953176     0.00034442     0.00009201     0.00008285
H        -4.30544300     1.35007727    -0.55535103     0.00016477    -0.00082519     0.00022121
H        -2.08032475    -0.40798554     0.51593128    -0.00024320    -0.00020639    -0.00009769
C        -1.76521877     1.66492713    -0.05581854    -0.00016694    -0.00021481     0.00018082
H        -2.23635442     2.49347036    -0.61637665     0.00023378    -0.00075015     0.00092999
N        -0.52636957     1.81985190     0.25345159     0.00016115     0.00025574    -0.00017984
H        -0.05350891     2.69378164     0.16341981    -0.00045141     0.00103915    -0.00063500
H        -0.00760958     1.13969155     0.79117660    -0.00069101    -0.00007279     0.00040964
    14
  Step:     1            Position(A)                                  Velocity(au)
C        -6.05382459    -0.79810038    -0.05458677     0.00015123     0.00021892     0.00006442
C        -4.71064676    -0.70779804     0.14680478    -0.00034915    -0.00023139    -0.00000338
H        -6.65294589     0.03517604    -0.46242583     0.00066289     0.00067062    -0.00004014
H        -6.59496217    -1.74654372     0.13397768    -0.00181574    -0.00038030    -0.00106876
H        -4.22054371    -1.58556750     0.61774914     0.00020715     0.00070425    -0.00012927
C        -3.92134643     0.44896831    -0.14148536    -0.00006241    -0.00018972    -0.00008587
C        -2.55669425     0.51462761     0.18049344     0.00042814     0.00009576     0.00009302
H        -4.30483375     1.34175187    -0.55365861    -0.00006343    -0.00067122     0.00007504
H        -2.08285510    -0.41008007     0.51509050    -0.00021360    -0.00017740    -0.00005486
C        -1.76761663     1.66251287    -0.05399234    -0.00026588    -0.00022642     0.00015502
H        -2.23362018     2.48502104    -0.60568761     0.00024678    -0.00076685     0.00100406
N        -0.52420453     1.82263811     0.25161130     0.00023267     0.00025451    -0.00015738
H        -0.05811187     2.70604718     0.15611511    -0.00040031     0.00117223    -0.00069341
H        -0.01518671     1.13856606     0.79581352    -0.00068837    -0.00012170     0.00043461
    14
  Step:     2            Position(A)                                  Velocity(au)
C        -6.05243210    -0.79573742    -0.05395504     0.00009831     0.00021050     0.00005052
C        -4.71423762    -0.71028301     0.14682547    -0.00030388    -0.00022066     0.00000709
H        -6.64535606     0.04214173    -0.46256200     0.00072461     0.00060263     0.00001640
H        -6.61451156    -1.75003096     0.12223312    -0.00173093    -0.00022429    -0.00108049
H        -4.21822988    -1.57720358     0.61596190     0.00021955     0.00080287    -0.00018884
C        -3.92235450     0.44672416    -0.14242076    -0.00012102    -0.00022201    -0.00008428
C        -2.55157039     0.51568370     0.18156666     0.00050498     0.00009513     0.00010313
H        -4.30683056     1.33539298    -0.55370944    -0.00030544    -0.00047764    -0.00009162
H        -2.08499764    -0.41186651     0.51473105    -0.00017174    -0.00015074    -0.00000930
C        -1.77103537     1.65997386    -0.05242711    -0.00035178    -0.00023756     0.00013359
H        -2.23095563     2.47669413    -0.59441090     0.00021839    -0.00072415     0.00103515
N        -0.52127951     1.82541971     0.25000858     0.00029905     0.00025505    -0.00013674
H        -0.06226646     2.71942636     0.14825004    -0.00037066     0.00123858    -0.00073632
H        -0.02266900     1.13702924     0.80068463    -0.00067334    -0.00014770     0.00045227
    14
  Step:     3            Position(A)                                  Velocity(au)
C        -6.05167377    -0.79349534    -0.05348164     0.00003646     0.00019731     0.00003555
C        -4.71729478    -0.71262543     0.14695992    -0.00025244    -0.00020525     0.00001717
H        -6.63709370     0.04835975    -0.46206716     0.00078320     0.00053713     0.00007323
H        -6.63282952    -1.75145044     0.11033979    -0.00159547    -0.00001110    -0.00109359
H        -4.21574059    -1.56800320     0.61361787     0.00024122     0.00085396    -0.00022933
C        -3.92399404     0.44411148    -0.14332906    -0.00017797    -0.00025583    -0.00008139
C        -2.54564674     0.51670875     0.18274963     0.00057369     0.00008995     0.00011296
H        -4.31151590     1.33130266    -0.55566307    -0.00054767    -0.00027076    -0.00026571
H        -2.08661230    -0.41337769     0.51488699    -0.00011682    -0.00012756     0.00003968
C        -1.77531258     1.65731582    -0.05106984    -0.00042155    -0.00024789     0.00011721
H        -2.22884239     2.46917897    -0.58304170     0.00014510    -0.00061744     0.00102054
N        -0.51766229     1.82821780     0.24861988     0.00035836     0.00025745    -0.00011848
H        -0.06622082     2.73314345     0.14000670    -0.00036292     0.00123393    -0.00076197
H        -0.02991730     1.13533473     0.80570790    -0.00064531    -0.00015073     0.00046247
    14
  Step:     4            Position(A)                                  Velocity(au)
C        -6.05163437    -0.79142088    -0.05317728    -0.00003174     0.00018038     0.00001974
C        -4.71976014    -0.71477321     0.14720101    -0.00019672    -0.00018522     0.00002640
H        -6.62822216     0.05389254    -0.46095991     0.00083350     0.00048046     0.00012645
H        -6.64941555    -1.75027389     0.09830884    -0.00141989     0.00024115    -0.00110367
H        -4.21295275    -1.55852157     0.61094488     0.00027549     0.00085261    -0.00024791
C        -3.92624791     0.44112743    -0.14420124    -0.00023322    -0.00028854    -0.00007814
C        -2.53901984     0.51765160     0.18403788     0.00063274     0.00007987     0.00012225
H        -4.31881183     1.32946967    -0.55952245    -0.00077548    -0.00007900    -0.00043282
H        -2.08755329    -0.41465712     0.51559911    -0.00004861    -0.00010862     0.00009255
C        -1.78025752     1.65455083    -0.04986290    -0.00047315    -0.00025649     0.00010598
H        -2.22778136     2.46318642    -0.57208469     0.00002754    -0.00044858     0.00096187
N        -0.51343965     1.83105199     0.24741668     0.00040910     0.00026140    -0.00010293
H        -0.07020613     2.74642087     0.13158054    -0.00037394     0.00116175    -0.00076972
H        -0.03678645     1.13373184     0.81080201    -0.00060384    -0.00013157     0.00046545
    14
  Step:     5            Position(A)                                  Velocity(au)
C        -6.05236820    -0.78954914    -0.05304984    -0.00010341     0.00016078     0.00000337
C        -4.72159842    -0.71667754     0.14753737    -0.00013891    -0.00016112     0.00003447
H        -6.61885928     0.05887078    -0.45930076     0.00087085     0.00043859     0.00017248
H        -6.66389229    -1.74617484     0.08619499    -0.00121580     0.00051419    -0.00110723
H        -4.20971378    -1.54935073     0.60819426     0.00032407     0.00079743    -0.00024336
C        -3.92909611     0.43779916    -0.14503848    -0.00028622    -0.00031753    -0.00007536
C        -2.53180439     0.51845605     0.18542405     0.00068038     0.00006434     0.00013073
H        -4.32848106     1.32957442    -0.56513175    -0.00097547     0.00007214    -0.00057952
H        -2.08767572    -0.41575396     0.51691170     0.00003248    -0.00009418     0.00014942
C        -1.78566361     1.65170450    -0.04875129    -0.00050572    -0.00026178     0.00009933
H        -2.22823996     2.45936541    -0.56199890    -0.00012854    -0.00022764     0.00086610
N        -0.50871255     1.83393637     0.24636801     0.00045018     0.00026625    -0.00009024
H        -0.07440144     2.75855893     0.12316753    -0.00039790     0.00103195    -0.00076010
H        -0.04312739     1.13245640     0.81589058    -0.00054869    -0.00009180     0.00046185
    14
  Step:     6            Position(A)                                  Velocity(au)
C        -6.05389672    -0.78790349    -0.05310358    -0.00017551     0.00013961    -0.00001322
C        -4.72279911    -0.71829805     0.14795516    -0.00008125    -0.00013392     0.00004127
H        -6.60917072     0.06348751    -0.45718658     0.00089133     0.00041670     0.00020838
H        -6.67601341    -1.73902508     0.07408602    -0.00099549     0.00079000    -0.00110168
H        -4.20586308    -1.54107627     0.60562086     0.00038648     0.00069124    -0.00021646
C        -3.93250959     0.43418090    -0.14584999    -0.00033598    -0.00034065    -0.00007366
C        -2.52413511     0.51905923     0.18689795     0.00071488     0.00004275     0.00013819
H        -4.34015204     1.33104779    -0.57220051    -0.00113725     0.00016405    -0.00069543
H        -2.08684271    -0.41671751     0.51886792     0.00012539    -0.00008399     0.00020994
C        -1.79132111     1.64882380    -0.04768978    -0.00051947    -0.00026154     0.00009612
H        -2.23059339     2.45820628    -0.55313706    -0.00031236     0.00002692     0.00074527
N        -0.50359110     1.83687665     0.24544255     0.00048097     0.00027117    -0.00008034
H        -0.07891093     2.76899668     0.11495199    -0.00042747     0.00085904    -0.00073464
H        -0.04879012     1.13172353     0.82090583    -0.00047993    -0.00003358     0.00045257
    14
  Step:     7            Position(A)                                  Velocity(au)
C        -6.05620775    -0.78649489    -0.05333895    -0.00024501     0.00011807    -0.00002968
C        -4.72337597    -0.71960731     0.14844015    -0.00002580    -0.00010497     0.00004685
H        -6.59935966     0.06798687    -0.45474214     0.00089218     0.00041864     0.00023208
H        -6.68567061    -1.72889206     0.06209359    -0.00077195     0.00105069    -0.00108518
H        -4.20125888    -1.53422849     0.60345880     0.00045957     0.00054146    -0.00017036
C        -3.93644625     0.43034683    -0.14664982    -0.00038127    -0.00035650    -0.00007330
C        -2.51616495     0.51939118     0.18844712     0.00073485     0.00001451     0.00014444
H        -4.35336047     1.33316331    -0.58034552    -0.00125454     0.00018709    -0.00077431
H        -2.08493257    -0.41759150     0.52150457     0.00022842    -0.00007731     0.00027332
C        -1.79702794     1.64598288    -0.04664846    -0.00051550    -0.00025319     0.00009482
H        -2.23507350     2.45995435    -0.54569471    -0.00050937     0.00029023     0.00061502
N        -0.49819035     1.83986864     0.24461030     0.00050119     0.00027522    -0.00007309
H        -0.08375315     2.77735209     0.10709594    -0.00045475     0.00066038    -0.00069578
H        -0.05362687     1.13172169     0.82579139    -0.00039793     0.00004044     0.00043875
    14
  Step:     8            Position(A)                                  Velocity(au)
C        -6.05925678    -0.78532049    -0.05375294    -0.00030910     0.00009753    -0.00004576
C        -4.72336349    -0.72059443     0.14898015     0.00002579    -0.00007588     0.00005152
H        -6.58965266     0.07264615    -0.45210949     0.00087204     0.00044634     0.00024262
H        -6.69290128    -1.71603913     0.05034557    -0.00055889     0.00127820    -0.00105655
H        -4.19580900    -1.52923087     0.60189388     0.00053757     0.00035982    -0.00011059
C        -3.94085068     0.42638175    -0.14745365    -0.00042098    -0.00036452    -0.00007434
C        -2.50805877     0.51937656     0.19005787     0.00073959    -0.00002071     0.00014943
H        -4.36759745     1.33514081    -0.58913994    -0.00132526     0.00014039    -0.00081419
H        -2.08184549    -0.41840888     0.52484743     0.00033931    -0.00007296     0.00033840
C        -1.80259860     1.64328475    -0.04561547    -0.00049561    -0.00023432     0.00009380
H        -2.24173685     2.46455563    -0.53968237    -0.00070341     0.00053486     0.00049199
N        -0.49262660     1.84289772     0.24384367     0.00051086     0.00027750    -0.00006820
H        -0.08885955     2.78344383     0.09973037    -0.00047206     0.00045463    -0.00064666
H        -0.05749562     1.13260820     0.83050438    -0.00030335     0.00012723     0.00042168
    14
  Step:     9            Position(A)                                  Velocity(au)
C        -6.06296980    -0.78436135    -0.05434006    -0.00036524     0.00007957    -0.00006128
C        -4.72281185    -0.72126730     0.14956716     0.00007232    -0.00004840     0.00005571
H        -6.58028202     0.07775147    -0.44943436     0.00083127     0.00049927     0.00024031
H        -6.69789734    -1.70092893     0.03897957    -0.00037086     0.00145409    -0.00101515
H        -4.18949852    -1.52635670     0.60103943     0.00061256     0.00016129    -0.00004444
C        -3.94565599     0.42237225    -0.14827614    -0.00045419    -0.00036486    -0.00007659
C        -2.49998494     0.51893810     0.19171623     0.00072918    -0.00006286     0.00015316
H        -4.38235306     1.33623464    -0.59815750    -0.00135083     0.00003002    -0.00081663
H        -2.07750960    -0.41918774     0.52890763     0.00045530    -0.00006948     0.00040371
C        -1.80787044     1.64085679    -0.04459636    -0.00046203    -0.00020311     0.00009167
H        -2.25046183     2.47165535    -0.53493150    -0.00087933     0.00073568     0.00039080
N        -0.48701432     1.84593938     0.24311821     0.00051025     0.00027712    -0.00006540
H        -0.09408029     2.78729792     0.09294905    -0.00047244     0.00026038    -0.00059084
H        -0.06026317     1.13450510     0.83501646    -0.00019715     0.00022346     0.00040269
    14
  Step:    10            Position(A)                                  Velocity(au)
C        -6.06724716    -0.78357968    -0.05509351    -0.00041133     0.00006602    -0.00007617
C        -4.72178135    -0.72165336     0.15019887     0.00011308    -0.00002429     0.00005998
H        -6.57146706     0.08356871    -0.44685220     0.00077187     0.00057415     0.00022676
H        -6.70101452    -1.68422807     0.02813719    -0.00022288     0.00156003    -0.00096093
H        -4.18240817    -1.52570240     0.60092157     0.00067561    -0.00003780     0.00002002
C        -3.95078695     0.41839981    -0.14912931    -0.00048026    -0.00035819    -0.00007978
C        -2.49210649     0.51800137     0.19340856     0.00070445    -0.00011144     0.00015566
H        -4.39714950     1.33579761    -0.60700520    -0.00133525    -0.00013319    -0.00078567
H        -2.07188485    -0.41992900     0.53367937     0.00057341    -0.00006529     0.00046767
C        -1.81270632     1.63884123    -0.04360997    -0.00041711    -0.00015883     0.00008748
H        -2.26097379     2.48065009    -0.53113291    -0.00102510     0.00087398     0.00032171
N        -0.48146391     1.84896026     0.24241298     0.00049983     0.00027338    -0.00006434
H        -0.09919507     2.78914019     0.08680454    -0.00045020     0.00009490    -0.00053215
H        -0.06180855     1.13749691     0.83931408    -0.00008059     0.00032565     0.00038313
    14
  Step:    11            Position(A)                                  Velocity(au)
C        -6.07196850    -0.78291693    -0.05600643    -0.00044574     0.00005880    -0.00009048
C        -4.72033795    -0.72179862     0.15087927     0.00014772    -0.00000510     0.00006487
H        -6.56339586     0.09031211    -0.44447362     0.00069737     0.00066494     0.00020480
H        -6.70277323    -1.66680031     0.01795743    -0.00012947     0.00157905    -0.00089445
H        -4.17471833    -1.52718359     0.60147734     0.00071815    -0.00022179     0.00007518
C        -3.95616250     0.41453613    -0.15002153    -0.00049877    -0.00034554    -0.00008355
C        -2.48457368     0.51650009     0.19512165     0.00066686    -0.00016544     0.00015696
H        -4.41156425     1.33332077    -0.61534557    -0.00128412    -0.00033582    -0.00072694
H        -2.06496523    -0.42061616     0.53913888     0.00069048    -0.00005888     0.00052865
C        -1.81699542     1.63738218    -0.04268266    -0.00036320    -0.00010191     0.00008082
H        -2.27288783     2.49077527    -0.52789353    -0.00113292     0.00093963     0.00028963
N        -0.47607965     1.85192020     0.24171063     0.00048021     0.00026579    -0.00006472
H        -0.10392923     2.78937412     0.08130729    -0.00040131    -0.00002735    -0.00047425
H        -0.06202613     1.14162925     0.84339824     0.00004478     0.00043027     0.00036422
    14
  Step:    12            Position(A)                                  Velocity(au)
C        -6.07699859    -0.78229340    -0.05707294    -0.00046746     0.00005965    -0.00010432
C        -4.71854970    -0.72176488     0.15161805     0.00017613     0.00000792     0.00007085
H        -6.55621074     0.09811549    -0.44237179     0.00061234     0.00076333     0.00017825
H        -6.70384693    -1.64968333     0.00856948    -0.00010268     0.00149819    -0.00081700
H        -4.16669733    -1.53055444     0.60256621     0.00073326    -0.00037765     0.00011496
C        -3.96169854     0.41084049    -0.15095716    -0.00050953    -0.00032811    -0.00008752
C        -2.47751757     0.51438195     0.19684234     0.00061836    -0.00022335     0.00015703
H        -4.42524219     1.32845095    -0.62290850    -0.00120398    -0.00056327    -0.00064695
H        -2.05677930    -0.42121702     0.54524449     0.00080342    -0.00004894     0.00058503
C        -1.82065206     1.63661165    -0.04184184    -0.00030254    -0.00003406     0.00007187
H        -2.28575848     2.50120627    -0.52479677    -0.00119928     0.00093127     0.00029437
N        -0.47095836     1.85477486     0.24099703     0.00045216     0.00025413    -0.00006628
H        -0.10797441     2.78854186     0.07642931    -0.00032390    -0.00009635    -0.00042032
H        -0.06082896     1.14690998     0.84728215     0.00017709     0.00053398     0.00034698
    14
  Step:    13            Position(A)                                  Velocity(au)
C        -6.08219500    -0.78161204    -0.05828863    -0.00047624     0.00006977    -0.00011781
C        -4.71648481    -0.72162543     0.15242919     0.00019832     0.00001392     0.00007821
H        -6.54999977     0.10701134    -0.44057410     0.00052178     0.00085966     0.00015132
H        -6.70501959    -1.63402446     0.00008392    -0.00014903     0.00131245    -0.00073071
H        -4.15867692    -1.53544538     0.60399224     0.00071662    -0.00049629     0.00013549
C        -3.96730934     0.40735817    -0.15193624    -0.00051244    -0.00030720    -0.00009130
C        -2.47104593     0.51161386     0.19855697     0.00056122    -0.00028321     0.00015579
H        -4.43790368     1.32099813    -0.62949880    -0.00110191    -0.00080061    -0.00055268
H        -2.04738894    -0.42168689     0.55193763     0.00090926    -0.00003454     0.00063542
C        -1.82361398     1.63663710    -0.04111042    -0.00023719     0.00004207     0.00006121
H        -2.29912440     2.51114867    -0.52145355    -0.00122426     0.00085466     0.00033194
N        -0.46618777     1.85747975     0.24026063     0.00041658     0.00023861    -0.00006881
H        -0.11101515     2.78726630     0.07211189    -0.00021868    -0.00010810    -0.00037258
H        -0.05815201     1.15331098     0.85098910     0.00031419     0.00063366     0.00033215
    14
  Step:    14            Position(A)                                  Velocity(au)
C        -6.08741732    -0.78076709    -0.05965023    -0.00047281     0.00008933    -0.00013102
C        -4.71421112    -0.72146030     0.15332909     0.00021434     0.00001254     0.00008709
H        -6.54479590     0.11692214    -0.43906145     0.00043043     0.00094415     0.00012806
H        -6.70710724    -1.62097102    -0.00741621    -0.00026617     0.00102888    -0.00063845
H        -4.15101991    -1.54141166     0.60553024     0.00066684    -0.00057302     0.00013531
C        -3.97290916     0.40411989    -0.15295458    -0.00050754    -0.00028418    -0.00009449
C        -2.46523991     0.50818628     0.20025053     0.00049789    -0.00034273     0.00015309
H        -4.44934853     1.31093613    -0.63499939    -0.00098530    -0.00103295    -0.00045143
H        -2.03688754    -0.42197258     0.55914562     0.00100527    -0.00001508     0.00067862
C        -1.82584103     1.63753211    -0.04050282    -0.00016909     0.00012313     0.00004973
H        -2.31254147     2.51990369    -0.51753494    -0.00121051     0.00072052     0.00039590
N        -0.46184485     1.85999499     0.23949160     0.00037453     0.00021991    -0.00007222
H        -0.11275855     2.78617696     0.06827846    -0.00008917    -0.00006584    -0.00033192
H        -0.05395542     1.16077259     0.85454856     0.00045363     0.00072672     0.00032007
    14
  Step:    15            Position(A)                                  Velocity(au)
C        -6.09253861    -0.77965774    -0.06115492    -0.00045892     0.00011715    -0.00014395
C        -4.71179573    -0.72135112     0.15433451     0.00022427     0.00000384     0.00009744
H        -6.54058333     0.12766648    -0.43777262     0.00034223     0.00100818     0.00011186
H        -6.71084265    -1.61151566    -0.01388340    -0.00044053     0.00066939    -0.00054368
H        -4.14408841    -1.54798119     0.60695243     0.00058526    -0.00060727     0.00011521
C        -3.97841268     0.40114120    -0.15400336    -0.00049488    -0.00026046    -0.00009664
C        -2.46015353     0.50411598     0.20190611     0.00043086    -0.00039948     0.00014874
H        -4.45945892     1.29840042    -0.63937461    -0.00086180    -0.00124564    -0.00035077
H        -2.02539683    -0.42201688     0.56678375     0.00108900     0.00000960     0.00071365
C        -1.82731304     1.63933069    -0.04002252    -0.00009995     0.00020539     0.00003847
H        -2.32560669     2.52691146    -0.51279245    -0.00116242     0.00054245     0.00047861
N        -0.45799414     1.86229065     0.23868075     0.00032723     0.00019914    -0.00007647
H        -0.11296598     2.78582590     0.06485045     0.00005838     0.00001971    -0.00029779
H        -0.04822802     1.16920935     0.85799128     0.00059261     0.00081113     0.00031058
    14
  Step:    16            Position(A)                                  Velocity(au)
C        -6.09745706    -0.77820424    -0.06279936    -0.00043728     0.00015066    -0.00015650
C        -4.70930484    -0.72137638     0.15546070     0.00022818    -0.00001172     0.00010904
H        -6.53730887     0.13897794    -0.43661436     0.00025998     0.00104523     0.00010505
H        -6.71674470    -1.60632678    -0.01931030    -0.00064760     0.00026978    -0.00045005
H        -4.13821619    -1.55469693     0.60805069     0.00047546    -0.00060202     0.00007776
C        -3.98373551     0.39842194    -0.15506874    -0.00047454    -0.00023747    -0.00009727
C        -2.45581410     0.49944682     0.20350456     0.00036244    -0.00045105     0.00014255
H        -4.46820212     1.28368541    -0.64267306    -0.00073930    -0.00142435    -0.00025850
H        -2.01306350    -0.42176263     0.57475802     0.00115835     0.00003934     0.00073977
C        -1.82802773     1.64202533    -0.03966126    -0.00003133     0.00028511     0.00002849
H        -2.33797165     2.53177089    -0.50706451    -0.00108540     0.00033538     0.00057208
N        -0.45468610     1.86435160     0.23781868     0.00027602     0.00017783    -0.00008162
H        -0.11148141     2.78660806     0.06176379     0.00021546     0.00013143    -0.00026823
H        -0.04099090     1.17851761     0.86134302     0.00072802     0.00088564     0.00030288
    14
  Step:    17            Position(A)                                  Velocity(au)
C        -6.10210485    -0.77636167    -0.06457868    -0.00041112     0.00018639    -0.00016852
C        -4.70680383    -0.72160758     0.15671992     0.00022615    -0.00003335     0.00012157
H        -6.53489568     0.15053290    -0.43547443     0.00018524     0.00105150     0.00010876
H        -6.72501020    -1.60561380    -0.02372917    -0.00085592    -0.00012580    -0.00036092
H        -4.13368680    -1.56115157     0.60865364     0.00034270    -0.00056294     0.00002684
C        -3.98879408     0.39594607    -0.15613135    -0.00044661    -0.00021667    -0.00009587
C        -2.45222444     0.49424845     0.20502456     0.00029475    -0.00049520     0.00013431
H        -4.47563259     1.26723994    -0.64502980    -0.00062573    -0.00155547    -0.00018250
H        -2.00005574    -0.42115632     0.58296764     0.00121150     0.00007367     0.00075648
C        -1.82799835     1.64556791    -0.03939919     0.00003551     0.00035872     0.00002082
H        -2.34935198     2.53424852    -0.50027720    -0.00098563     0.00011468     0.00066842
N        -0.45195578     1.86618091     0.23689526     0.00022233     0.00015766    -0.00008772
H        -0.10825227     2.78870117     0.05898246     0.00037222     0.00024829    -0.00024036
H        -0.03230116     1.18858440     0.86461733     0.00085641     0.00094982     0.00029551
    14
  Step:    18            Position(A)                                  Velocity(au)
C        -6.10645099    -0.77412669    -0.06648596    -0.00038362     0.00022061    -0.00017979
C        -4.70435744    -0.72210605     0.15812025     0.00021823    -0.00006002     0.00013461
H        -6.53325637     0.16198157    -0.43423512     0.00011847     0.00102594     0.00012294
H        -6.73546962    -1.60907893    -0.02720619    -0.00103363    -0.00047355    -0.00027898
H        -4.13071904    -1.56701222     0.60863778     0.00019326    -0.00049754    -0.00003292
C        -3.99350592     0.39368189    -0.15716599    -0.00041122    -0.00019944    -0.00009189
C        -2.44936586     0.48861327     0.20644294     0.00022958    -0.00053009     0.00012391
H        -4.48189112     1.24965661    -0.64666549    -0.00052872    -0.00162673    -0.00013031
H        -1.98655966    -0.42015085     0.59130743     0.00124698     0.00011193     0.00076347
C        -1.82725077     1.64987306    -0.03920583     0.00009955     0.00042306     0.00001634
H        -2.35953420     2.53427980    -0.49244153    -0.00086985    -0.00010433     0.00076008
N        -0.44982212     1.86780075     0.23589968     0.00016765     0.00014031    -0.00009480
H        -0.10333842     2.79203995     0.05650541     0.00051858     0.00034878    -0.00021107
H        -0.02225539     1.19929666     0.86780777     0.00097403     0.00100403     0.00028630
    14
  Step:    19            Position(A)                                  Velocity(au)
C        -6.11049726    -0.77153531    -0.06851194    -0.00035734     0.00025020    -0.00019012
C        -4.70202960    -0.72292057     0.15966477     0.00020451    -0.00009048     0.00014768
H        -6.53230391     0.17297725    -0.43278488     0.00005926     0.00096999     0.00014661
H        -6.74762287    -1.61597370    -0.02983237    -0.00115518    -0.00073874    -0.00020603
H        -4.12945891    -1.57203614     0.60793343     0.00003400    -0.00041455    -0.00009645
C        -3.99779025     0.39158296    -0.15814169    -0.00036858    -0.00018702    -0.00008486
C        -2.44720187     0.48265177     0.20773543     0.00016838    -0.00055430     0.00011129
H        -4.48719933     1.23165215    -0.64788062    -0.00045498    -0.00162846    -0.00010852
H        -1.97277576    -0.41870768     0.59966991     0.00126363     0.00015324     0.00076061
C        -1.82582042     1.65482311    -0.03904163     0.00016006     0.00047544     0.00001582
H        -2.36838161     2.53196612    -0.48364890    -0.00074533    -0.00030675     0.00083996
N        -0.44828812     1.86925038     0.23482125     0.00011338     0.00012712    -0.00010281
H        -0.09690738     2.79633149     0.05436499     0.00064549     0.00041448    -0.00017773
H        -0.01099239     1.21054954     0.87088078     0.00107697     0.00104931     0.00027256
    14
  Step:    20            Position(A)                                  Velocity(au)
C        -6.11426856    -0.76865309    -0.07064513    -0.00033387     0.00027303    -0.00019930
C        -4.69988337    -0.72408547     0.16135102     0.00018507    -0.00012336     0.00016025
H        -6.53195997     0.18320204    -0.43102777     0.00000656     0.00088722     0.00017803
H        -6.76074149    -1.62524019    -0.03171341    -0.00120553    -0.00090092    -0.00014300
H        -4.12997525    -1.57608122     0.60652768    -0.00012797    -0.00032345    -0.00015854
C        -4.00156927     0.38959054    -0.15902254    -0.00031907    -0.00018032    -0.00007442
C        -2.44568226     0.47648689     0.20887761     0.00011221    -0.00056697     0.00009647
H        -4.49184464     1.21403089    -0.64903966    -0.00040917    -0.00155540    -0.00012157
H        -1.95891527    -0.41679846     0.60794725     0.00126066     0.00019661     0.00074797
C        -1.82374911     1.66027431    -0.03885984     0.00021658     0.00051380     0.00001979
H        -2.37583978     2.52756900    -0.47406578    -0.00061977    -0.00047841     0.00090151
N        -0.44734172     1.87058169     0.23365059     0.00006083     0.00011898    -0.00011154