     6
  Step:   300            Position(A)                                  Velocity(au)
C        -0.01672892     0.01154119     0.01653735    -0.00006232    -0.00011176     0.00008146
N        -0.07466213    -0.05073206     1.30166095     0.00021329     0.00001406    -0.00011183
H         0.24543054    -0.89352324    -0.52614819    -0.00029579    -0.00010440    -0.00047618
H         0.12139702     0.80023290     1.83849168    -0.00156917     0.00041648     0.00005466
H        -0.06793308    -0.96809085     1.75148803    -0.00069438     0.00025225     0.00015052
H        -0.27497062     0.95906504    -0.45718134     0.00033807     0.00057213     0.00085431
