     6
  Step:     0            Position(A)                                  Velocity(au)
C        -0.03320660     0.01371615     0.05138227    -0.00009682     0.00008731    -0.00000398
N        -0.04218329    -0.05138228     1.27329020     0.00010352     0.00005638    -0.00005283
H         0.91437793    -0.02930338    -0.52255372    -0.00037868    -0.00057672     0.00010233
H         0.79563271    -0.09843712     1.76616021     0.00029673    -0.00034853     0.00059406
H        -0.95546894    -0.06613916     1.88631761    -0.00086012    -0.00051063    -0.00002200
H        -0.98559383     0.07468532    -0.54424532     0.00065723    -0.00038799     0.00010716
     6
  Step:     1            Position(A)                                  Velocity(au)
C        -0.03374874     0.01422978     0.05086476    -0.00010093     0.00010086    -0.00018476
N        -0.04170686    -0.05108955     1.27341014     0.00007094     0.00005086     0.00009718
H         0.91258386    -0.03253068    -0.52191858    -0.00027666    -0.00060569     0.00012830
H         0.79813088    -0.10042151     1.76988301     0.00060722    -0.00037862     0.00076133
H        -0.95974676    -0.06895799     1.88575692    -0.00069920    -0.00052166    -0.00018507
H        -0.98218059     0.07252754    -0.54354277     0.00058554    -0.00040264     0.00014652
     6
  Step:     2            Position(A)                                  Velocity(au)
C        -0.03431044     0.01481925     0.04936168    -0.00010397     0.00011510    -0.00036345
N        -0.04140746    -0.05082610     1.27435302     0.00003923     0.00004578     0.00024734
H         0.91135222    -0.03592751    -0.52115055    -0.00017373    -0.00063929     0.00015100
H         0.80227364    -0.10257792     1.77448660     0.00089437    -0.00041177     0.00091409
H        -0.96311582    -0.07184433     1.88429358    -0.00053002    -0.00053590    -0.00035059
H        -0.97918998     0.07028185    -0.54264289     0.00050315    -0.00042080     0.00017920
     6
  Step:     3            Position(A)                                  Velocity(au)
C        -0.03488567     0.01548837     0.04689057    -0.00010578     0.00012997    -0.00053759
N        -0.04127786    -0.05058894     1.27611474     0.00000920     0.00004133     0.00039569
H         0.91068419    -0.03952109    -0.52026749    -0.00007143    -0.00067777     0.00017028
H         0.80791049    -0.10492414     1.77987828     0.00114969    -0.00044821     0.00104718
H        -0.96554234    -0.07481793     1.88192331    -0.00035620    -0.00055388    -0.00051487
H        -0.97667882     0.06792627    -0.54158323     0.00041060    -0.00044331     0.00020472
     6
  Step:     4            Position(A)                                  Velocity(au)
C        -0.03546748     0.01624088     0.04348162    -0.00010615     0.00014541    -0.00070441
N        -0.04130681    -0.05037401     1.27868098    -0.00001840     0.00003772     0.00053991
H         0.91057089    -0.04334077    -0.51928811     0.00002759    -0.00072120     0.00018577
H         0.81484862    -0.10748030     1.78594039     0.00136500    -0.00048826     0.00115600
H        -0.96701185    -0.07790247     1.87866211    -0.00018154    -0.00057620    -0.00067336
H        -0.97469893     0.06543307    -0.54040368     0.00030957    -0.00047115     0.00022252
     6
  Step:     5            Position(A)                                  Velocity(au)
C        -0.03604785     0.01708027     0.03917874    -0.00010488     0.00016122    -0.00086088
N        -0.04147928    -0.05017599     1.28202568    -0.00004283     0.00003515     0.00067737
H         0.91098624    -0.04741678    -0.51823369     0.00011908    -0.00076903     0.00019671
H         0.82285449    -0.11026958     1.79253417     0.00153239    -0.00053206     0.00123689
H        -0.96752982    -0.08112615     1.87455142    -0.00001011    -0.00060331    -0.00082030
H        -0.97328965     0.06276808    -0.53914709     0.00020365    -0.00050510     0.00023190
     6
  Step:     6            Position(A)                                  Velocity(au)
C        -0.03661775     0.01800902     0.03404000    -0.00010182     0.00017695    -0.00100387
N        -0.04177659    -0.04998854     1.28611004    -0.00006340     0.00003366     0.00080520
H         0.91187689    -0.05177504    -0.51713074     0.00019729    -0.00081891     0.00020186
H         0.83165505    -0.11331565     1.79950592     0.00164461    -0.00057844     0.00128758
H        -0.96712271    -0.08451921     1.86966548     0.00015366    -0.00063436    -0.00094865
H        -0.97246541     0.05989341    -0.53786032     0.00009870    -0.00054451     0.00023202
     6
  Step:     7            Position(A)                                  Velocity(au)
C        -0.03716762     0.01902626     0.02813847    -0.00009695     0.00019158    -0.00112980
N        -0.04217648    -0.04980584     1.29088102    -0.00007942     0.00003291     0.00091999
H         0.91315594    -0.05642286    -0.51601366     0.00025714    -0.00086546     0.00019991
H         0.84094133    -0.11663103     1.80669455     0.00169613    -0.00062335     0.00130708
H        -0.96583987    -0.08810262     1.86411844     0.00030467    -0.00066572    -0.00105084
H        -0.97220419     0.05677972    -0.53659539     0.00000097    -0.00058573     0.00022208
     6
  Step:     8            Position(A)                                  Velocity(au)
C        -0.03768805     0.02012396     0.02156775    -0.00009038     0.00020370    -0.00123400
N        -0.04265330    -0.04962521     1.29626612    -0.00009034     0.00003229     0.00101739
H         0.91471557    -0.06132913    -0.51492390     0.00029752    -0.00090147     0.00019017
H         0.85037922    -0.12019698     1.81393524     0.00168492    -0.00066047     0.00129498
H        -0.96375935    -0.09186838     1.85806491     0.00043651    -0.00069153    -0.00112044
H        -0.97245467     0.05342728    -0.53540874    -0.00008657    -0.00062261     0.00020176
     6
  Step:     9            Position(A)                                  Velocity(au)
C        -0.03817015     0.02128576     0.01445067    -0.00008228     0.00021213    -0.00131163
N        -0.04317854    -0.04944765     1.30216605    -0.00009582     0.00003133     0.00109284
H         0.91645612    -0.06642215    -0.51390425     0.00032155    -0.00092168     0.00017303
H         0.85963071    -0.12395705     1.82105869     0.00161384    -0.00068463     0.00125178
H        -0.96099798    -0.09577314     1.85169027     0.00054182    -0.00070699    -0.00115364
H        -0.97316447     0.04987359    -0.53435741    -0.00016521    -0.00064990     0.00017165
     6
  Step:    10            Position(A)                                  Velocity(au)
C        -0.03860576     0.02249002     0.00693833    -0.00007291     0.00021646    -0.00135990
N        -0.04372205    -0.04927575     1.30845532    -0.00009586     0.00002995     0.00114356
H         0.91830199    -0.07160926    -0.51299397     0.00033376    -0.00092490     0.00014952
H         0.86837938    -0.12783309     1.82789717     0.00149076    -0.00069418     0.00118035
H        -0.95771614    -0.09975392     1.84519767     0.00061402    -0.00071079    -0.00114964
H        -0.97429735     0.04617857    -0.53349421    -0.00023760    -0.00066564     0.00013316
     6
  Step:    11            Position(A)                                  Velocity(au)
C        -0.03898808     0.02371406    -0.00080495    -0.00006268     0.00021706    -0.00138009
N        -0.04425392    -0.04911171     1.31499466    -0.00009088     0.00002831     0.00117012
H         0.92020032    -0.07679779    -0.51222693     0.00033827    -0.00091348     0.00012090
H         0.87635428    -0.13174448     1.83430002     0.00132770    -0.00069074     0.00108674
H        -0.95410983    -0.10374695     1.83879344     0.00064954    -0.00070475    -0.00111109
H        -0.97582991     0.04240631    -0.53286364    -0.00030566    -0.00067099     0.00008826
     6
  Step:    12            Position(A)                                  Velocity(au)
C        -0.03931258     0.02493776    -0.00862443    -0.00005208     0.00021492    -0.00137763
N        -0.04474690    -0.04895650     1.32165032    -0.00008168     0.00002669     0.00117677
H         0.92211652    -0.08191020    -0.51163066     0.00033854    -0.00089210     0.00008845
H         0.88335134    -0.13562224     1.84015192     0.00113898    -0.00067803     0.00097942
H        -0.95039151    -0.10770110     1.83266839     0.00064875    -0.00069266    -0.00104380
H        -0.97774419     0.03861209    -0.53249896    -0.00037065    -0.00066910     0.00003908
     6
  Step:    13            Position(A)                                  Velocity(au)
C        -0.03957749     0.02614652    -0.01639694    -0.00004156     0.00021130    -0.00136046
N        -0.04517838    -0.04880965     1.32831326    -0.00006920     0.00002533     0.00117000
H         0.92403189    -0.08689456    -0.51122589     0.00033749    -0.00086628     0.00005323
H         0.88924518    -0.13941844     1.84538506     0.00093811    -0.00066065     0.00086709
H        -0.94676730    -0.11158639     1.82697972     0.00061506    -0.00067901    -0.00095519
H        -0.98002487     0.03483351    -0.53242133    -0.00043373    -0.00066399    -0.00001257
     6
  Step:    14            Position(A)                                  Velocity(au)
C        -0.03978365     0.02733269    -0.02404401    -0.00003145     0.00020736    -0.00133626
N        -0.04553125    -0.04866939     1.33491120    -0.00005429     0.00002442     0.00115626
H         0.92594167    -0.09172864    -0.51102734     0.00033727    -0.00084069     0.00001592
H         0.89398401    -0.14311012     1.84997959     0.00073506    -0.00064263     0.00075648
H        -0.94342037    -0.11539703     1.82184214     0.00055289    -0.00066768    -0.00085185
H        -0.98266016     0.03108639    -0.53264148    -0.00049604    -0.00065929    -0.00006545
     6
  Step:    15            Position(A)                                  Velocity(au)
C        -0.03993366     0.02849484    -0.03152987    -0.00002188     0.00020379    -0.00131003
N        -0.04579319    -0.04853307     1.34140774    -0.00003754     0.00002406     0.00113978
H         0.92785145    -0.09641531    -0.51104565     0.00033897    -0.00081802    -0.00002316
H         0.89756964    -0.14669615     1.85395213     0.00053538    -0.00062650     0.00065136
H        -0.94050590    -0.11914779     1.81733262     0.00046607    -0.00066096    -0.00073803
H        -0.98564241     0.02736710    -0.53316257    -0.00055800    -0.00065724    -0.00011866
     6
  Step:    16            Position(A)                                  Velocity(au)
C        -0.04003092     0.02963534    -0.03884617    -0.00001955     0.00030444    -0.00194613
N        -0.04595540    -0.04839755     1.34778974    -0.00002938     0.00003679     0.00170130
H         0.92977178    -0.10097158    -0.51128898     0.00051951    -0.00121115    -0.00009660
H         0.90003337    -0.15018900     1.85733936     0.00051799    -0.00092969     0.00083858
H        -0.93815417    -0.12286524     1.81350306     0.00054230    -0.00099975    -0.00093382
H        -0.98896511     0.02366015    -0.53398219    -0.00093853    -0.00099837    -0.00025987
     6
  Step:    17            Position(A)                                  Velocity(au)
C        -0.04012469     0.03130901    -0.04935987    -0.00001382     0.00028623    -0.00176260
N        -0.04606324    -0.04819474     1.35703814    -0.00000790     0.00003514     0.00155967
H         0.93296839    -0.10770574    -0.51226121     0.00060481    -0.00116625    -0.00024155
H         0.90242172    -0.15520871     1.86180758     0.00032859    -0.00084234     0.00074026
H        -0.93549951    -0.12839688     1.80870994     0.00038022    -0.00095490    -0.00075152
H        -0.99458887     0.01818385    -0.53592258    -0.00103915    -0.00093554    -0.00041782
     6
  Step:    18            Position(A)                                  Velocity(au)
C        -0.04018771     0.03288284    -0.05884419    -0.00000876     0.00026900    -0.00158296
N        -0.04604505    -0.04799888     1.36548546     0.00001464     0.00003424     0.00141865
H         0.93663387    -0.11420357    -0.51402961     0.00068244    -0.00112645    -0.00037611
H         0.90376150    -0.15974599     1.86573816     0.00014932    -0.00075893     0.00064891
H        -0.93384025    -0.13369936     1.80497648     0.00019576    -0.00091785    -0.00056269
H        -1.00075505     0.01304573    -0.53872267    -0.00112651    -0.00087799    -0.00056152
     6
  Step:    19            Position(A)                                  Velocity(au)
C        -0.04022415     0.03436226    -0.06732745    -0.00000449     0.00025332    -0.00141282
N        -0.04589710    -0.04780607     1.37314066     0.00003747     0.00003405     0.00128331
H         0.94071446    -0.12049158    -0.51653033     0.00075084    -0.00109359    -0.00049978
H         0.90411664    -0.16382300     1.86917305    -0.00001744    -0.00068119     0.00056680
H        -0.93327748    -0.13881507     1.80232312    -0.00000122    -0.00089001    -0.00037437
H        -1.00737547     0.00821819    -0.54229615    -0.00119937    -0.00082697    -0.00069084
     6
  Step:    20            Position(A)                                  Velocity(au)
C        -0.04023862     0.03575582    -0.07486716    -0.00000104     0.00023924    -0.00125369
N        -0.04562012    -0.04761275     1.38003969     0.00005987     0.00003444     0.00115527
H         0.94514921    -0.12660617    -0.51969763     0.00080817    -0.00106741    -0.00061222
H         0.90356366    -0.16747142     1.87216630    -0.00017049    -0.00060922     0.00049459
H        -0.93385409    -0.14379305     1.80073072    -0.00020155    -0.00087075    -0.00019163
H        -1.01435722     0.00366695    -0.54655753    -0.00125573    -0.00078200    -0.00080572
     6
  Step:    21            Position(A)                                  Velocity(au)
C        -0.04023590     0.03707216    -0.08152804     0.00000158     0.00022656    -0.00110548
N        -0.04521896    -0.04741599     1.38622640     0.00008112     0.00003528     0.00103469
H         0.94986859    -0.13258216    -0.52346496     0.00085265    -0.00104680    -0.00071310
H         0.90218552    -0.17072360     1.87477529    -0.00030879    -0.00054259     0.00043238
H        -0.93556047    -0.14867811     1.80015251    -0.00039639    -0.00085860    -0.00001864
H        -1.02159911    -0.00063952    -0.55142256    -0.00129362    -0.00074197    -0.00090608
     6
  Step:    22            Position(A)                                  Velocity(au)
C        -0.04022073     0.03831881    -0.08737326     0.00000338     0.00021504    -0.00096764
N        -0.04470239    -0.04721362     1.39174492     0.00010055     0.00003645     0.00092135
H         0.95479504    -0.13844836    -0.52776481     0.00088289    -0.00103054    -0.00080214
H         0.90007035    -0.17360959     1.87705771    -0.00043134    -0.00048085     0.00038015
H        -0.93833832    -0.15350618     1.80051983    -0.00057744    -0.00085179     0.00014102
H        -1.02899174    -0.00472677    -0.55680787    -0.00131167    -0.00070574    -0.00099196
     6
  Step:    23            Position(A)                                  Velocity(au)
C        -0.04019767     0.03950206    -0.09246223     0.00000441     0.00020449    -0.00083957
N        -0.04408280    -0.04700414     1.39663747     0.00011754     0.00003782     0.00081495
H         0.95984514    -0.14422701    -0.53252902     0.00089807    -0.00101756    -0.00087924
H         0.89731145    -0.17615708     1.87907095    -0.00053715    -0.00042368     0.00033792
H        -0.94208543    -0.15830322     1.80174603    -0.00073747    -0.00084864     0.00028443
H        -1.03642078    -0.00861431    -0.56263155    -0.00130933    -0.00067239    -0.00106365
     6
  Step:    24            Position(A)                                  Velocity(au)
C        -0.04017096     0.04062707    -0.09685037     0.00000472     0.00019474    -0.00072069
N        -0.04337564    -0.04678669     1.40094414     0.00013160     0.00003930     0.00071522
H         0.96493253    -0.14993455    -0.53768972     0.00089790    -0.00100697    -0.00094453
H         0.89400700    -0.17839213     1.88087220    -0.00062538    -0.00037091     0.00030570
H        -0.94666285    -0.16308565     1.80373050    -0.00087066    -0.00084758     0.00040943
H        -1.04377146    -0.01231676    -0.56881439    -0.00128684    -0.00064120    -0.00112171
     6
  Step:    25            Position(A)                                  Velocity(au)
C        -0.04014445     0.04169813    -0.10058947     0.00000439     0.00018566    -0.00061044
N        -0.04259876    -0.04656094     1.40470296     0.00014238     0.00004081     0.00062183
H         0.96997079    -0.15558267    -0.54318049     0.00088259    -0.00099808    -0.00099836
H         0.89025908    -0.18033989     1.88251836    -0.00069540    -0.00032246     0.00028346
H        -0.95190391    -0.16786138     1.80636318    -0.00097293    -0.00084725     0.00051470
H        -1.05093249    -0.01584512    -0.57528105    -0.00124512    -0.00061166    -0.00116690
     6
  Step:    26            Position(A)                                  Velocity(au)
C        -0.04012149     0.04271884    -0.10372783     0.00000351     0.00017716    -0.00050824
N        -0.04177157    -0.04632695     1.40794989     0.00014966     0.00004227     0.00053445
H         0.97487618    -0.16117929    -0.54893761     0.00085278    -0.00099029    -0.00104128
H         0.88617233    -0.18202507     1.88406575    -0.00074690    -0.00027828     0.00027107
H        -0.95762421    -0.17263113     1.80952925    -0.00104189    -0.00084653     0.00059972
H        -1.05779942    -0.01920792    -0.58196114    -0.00118557    -0.00058343    -0.00120017
     6
  Step:    27            Position(A)                                  Velocity(au)
C        -0.04010491     0.04369227    -0.10631021     0.00000218     0.00016916    -0.00041351
N        -0.04091421    -0.04608513     1.41071867     0.00015337     0.00004365     0.00045270
H         0.97956954    -0.16672929    -0.55490103     0.00080936    -0.00098315    -0.00107399
H         0.88185207    -0.18347219     1.88556948    -0.00077988    -0.00023836     0.00026829
H        -0.96363135    -0.17738977     1.81311351    -0.00107686    -0.00084449     0.00066471
H        -1.06427715    -0.02241215    -0.58878999    -0.00110997    -0.00055632    -0.00122254
     6
  Step:    28            Position(A)                                  Velocity(au)
C        -0.04009694     0.04462105    -0.10837786     0.00000050     0.00016157    -0.00032562
N        -0.04004684    -0.04583604     1.41304066     0.00015357     0.00004492     0.00037616
H         0.98397774    -0.17223514    -0.56101502     0.00075347    -0.00097627    -0.00109728
H         0.87740232    -0.18470555     1.88708274    -0.00079472    -0.00020266     0.00027472
H        -0.96973384    -0.18212767     1.81700413    -0.00107852    -0.00084045     0.00071048
H        -1.07028136    -0.02546391    -0.59570896    -0.00102024    -0.00053021    -0.00123507
     6
  Step:    29            Position(A)                                  Velocity(au)
C        -0.04009927     0.04550750    -0.10996848    -0.00000143     0.00015436    -0.00024399
N        -0.03918893    -0.04558043     1.41494473     0.00015040     0.00004606     0.00030440
H         0.98803456    -0.17769740    -0.56722867     0.00068634    -0.00096936    -0.00111200
H         0.87292365    -0.18574902     1.88865593    -0.00079217    -0.00017108     0.00028982
H        -0.97574824    -0.18683199     1.82109553    -0.00104869    -0.00083395     0.00073826
H        -1.07573927    -0.02836892    -0.60266564    -0.00091841    -0.00050507    -0.00123883
     6
  Step:    30            Position(A)                                  Velocity(au)
C        -0.04011304     0.04635363    -0.11111633    -0.00000354     0.00014748    -0.00016800
N        -0.03835875    -0.04531909     1.41645724     0.00014412     0.00004705     0.00023698
H         0.99168117    -0.18311521    -0.57349600     0.00060921    -0.00096219    -0.00111897
H         0.86851103    -0.18662573     1.89033568    -0.00077337    -0.00014346     0.00031285
H        -0.98150428    -0.19148784     1.82529026    -0.00098999    -0.00082469     0.00074956
H        -1.08058954    -0.03113275    -0.60961352    -0.00080638    -0.00048087    -0.00123480
     6
  Step:    31            Position(A)                                  Velocity(au)
C        -0.04013894     0.04716123    -0.11185227    -0.00000572     0.00014089    -0.00009709
N        -0.03757295    -0.04505287     1.41760206     0.00013502     0.00004789     0.00017349
H         0.99486569    -0.18848655    -0.57977577     0.00052329    -0.00095458    -0.00111900
H         0.86425177    -0.18735761     1.89216399    -0.00073981    -0.00011955     0.00034293
H        -0.98684902    -0.19607935     1.82950043    -0.00090558    -0.00081258     0.00074609
H        -1.08478132    -0.03376100    -0.61651155    -0.00068596    -0.00045764    -0.00122389
     6
  Step:    32            Position(A)                                  Velocity(au)
C        -0.04017717     0.04793188    -0.11220399    -0.00000792     0.00013455    -0.00003073
N        -0.03684624    -0.04478260     1.41840066     0.00012347     0.00004858     0.00011351
H         0.99754312    -0.19380863    -0.58603122     0.00042974    -0.00094640    -0.00111283
H         0.86022355    -0.18796500     1.89417727    -0.00069333    -0.00009904     0.00037898
H        -0.99164876    -0.20059048     1.83364815    -0.00079893    -0.00079761     0.00072960
H        -1.08827383    -0.03625929    -0.62332374    -0.00055884    -0.00043536    -0.00120693
     6
  Step:    33            Position(A)                                  Velocity(au)
C        -0.04022761     0.04866700    -0.11219617    -0.00001007     0.00012843     0.00003160
N        -0.03619117    -0.04450914     1.41887235     0.00010985     0.00004912     0.00005669
H         0.99967510    -0.19907813    -0.59222984     0.00032971    -0.00093757    -0.00110115
H         0.85649246    -0.18846606     1.89640531    -0.00063611    -0.00008151     0.00041975
H        -0.99579014    -0.20500573     1.83766566    -0.00067364    -0.00077993     0.00070184
H        -1.09103547    -0.03863327    -0.63001871    -0.00042655    -0.00041404    -0.00118466
     6
  Step:    34            Position(A)                                  Velocity(au)
C        -0.04028975     0.04936784    -0.11185073    -0.00001211     0.00012252     0.00009033
N        -0.03561799    -0.04423335     1.41903445     0.00009459     0.00004951     0.00000271
H         1.00122947    -0.20429140    -0.59834288     0.00022423    -0.00092803    -0.00108456
H         0.85311137    -0.18887639     1.89887035    -0.00057059    -0.00006648     0.00046381
H        -0.99918051    -0.20931063     1.84149521    -0.00053335    -0.00075972     0.00066452
H        -1.09304299    -0.04088857    -0.63656916    -0.00029051    -0.00039367    -0.00115775
     6
  Step:    35            Position(A)                                  Velocity(au)
C        -0.04036286     0.05003555    -0.11118714    -0.00001399     0.00011677     0.00014587
N        -0.03513453    -0.04395611     1.41890257     0.00007811     0.00004973    -0.00004870
H         1.00217984    -0.20944463    -0.60434491     0.00011431    -0.00091772    -0.00106359
H         0.85011868    -0.18920862     1.90158629    -0.00049942    -0.00005338     0.00050962
H        -1.00174788    -0.21349218     1.84508866    -0.00038166    -0.00073727     0.00061930
H        -1.09428062    -0.04303069    -0.64295128    -0.00015200    -0.00037420    -0.00112673
     6
  Step:    36            Position(A)                                  Velocity(au)
C        -0.04044592     0.05067112    -0.11022270    -0.00001568     0.00011118     0.00019856
N        -0.03474618    -0.04367831     1.41849088     0.00006085     0.00004979    -0.00009776
H         1.00250526    -0.21453383    -0.61021333     0.00000090    -0.00090662    -0.00103867
H         0.84753755    -0.18947213     1.90455801    -0.00042532    -0.00004164     0.00055549
H        -1.00344012    -0.21753908     1.84840698    -0.00022204    -0.00071287     0.00056771
H        -1.09473945    -0.04506494    -0.64914430    -0.00001220    -0.00035561    -0.00109210
     6
  Step:    37            Position(A)                                  Velocity(au)
C        -0.04053777     0.05127544    -0.10897289    -0.00001715     0.00010573     0.00024866
N        -0.03445597    -0.04340091     1.41781242     0.00004321     0.00004966    -0.00014461
H         1.00218985    -0.21955492    -0.61592785    -0.00011511    -0.00089466    -0.00101015
H         0.84537565    -0.18967295     1.90778093    -0.00035106    -0.00003065     0.00059970
H        -1.00422396    -0.22144187     1.85141955    -0.00005777    -0.00068684     0.00051120
H        -1.09441671    -0.04699635    -0.65512999     0.00012779    -0.00033783    -0.00105422
     6
  Step:    38            Position(A)                                  Velocity(au)
C        -0.04063703     0.05184930    -0.10745172    -0.00001836     0.00010038     0.00029638
N        -0.03426463    -0.04312489     1.41687938     0.00002562     0.00004935    -0.00018937
H         1.00122257    -0.22450363    -0.62147009    -0.00023281    -0.00088182    -0.00097832
H         0.84362543    -0.18981365     1.91124082    -0.00027932    -0.00001981     0.00064049
H        -1.00408393    -0.22519294     1.85410356     0.00010798    -0.00065950     0.00045111
H        -1.09331542    -0.04882962    -0.66089212     0.00026692    -0.00032080    -0.00101342
     6
  Step:    39            Position(A)                                  Velocity(au)
C        -0.04074221     0.05239338    -0.10567214    -0.00001928     0.00009514     0.00034186
N        -0.03417068    -0.04285133     1.41570342     0.00000844     0.00004883    -0.00023209
H         0.99959711    -0.22937549    -0.62682311    -0.00035131    -0.00086802    -0.00094339
H         0.84226490    -0.18989356     1.91491395    -0.00021259    -0.00000856     0.00067617
H        -1.00302142    -0.22878661     1.85644346     0.00027220    -0.00063121     0.00038873
H        -1.09144414    -0.05056906    -0.66641620     0.00040413    -0.00030445    -0.00096998
     6
  Step:    40            Position(A)                                  Velocity(au)
C        -0.04085167     0.05290829    -0.10364636    -0.00001990     0.00008997     0.00038517
N        -0.03417063    -0.04258132     1.41429594    -0.00000794     0.00004811    -0.00027276
H         0.99731200    -0.23416582    -0.63197120    -0.00046968    -0.00085323    -0.00090557
H         0.84125901    -0.18990894     1.91876743    -0.00015310     0.00000361     0.00070511
H        -1.00105398    -0.23221916     1.85843059     0.00043197    -0.00060232     0.00032528
H        -1.08881699    -0.05221857    -0.67168924     0.00053835    -0.00028871    -0.00092416
     6
  Step:    41            Position(A)                                  Velocity(au)
C        -0.04096366     0.05339456    -0.10138628    -0.00002020     0.00008489     0.00042630
N        -0.03425908    -0.04231603     1.41266836    -0.00002322     0.00004716    -0.00031133
H         0.99437078    -0.23886965    -0.63689965    -0.00058693    -0.00083739    -0.00086502
H         0.84056132    -0.18985340     1.92275999    -0.00010272     0.00001714     0.00072589
H        -0.99821474    -0.23548885     1.86006292     0.00058444    -0.00057320     0.00026196
H        -1.08545375    -0.05378166    -0.67669960     0.00066848    -0.00027351    -0.00087619
     6
  Step:    42            Position(A)                                  Velocity(au)
C        -0.04107635     0.05385270    -0.09890377    -0.00002015     0.00007988     0.00046520
N        -0.03442890    -0.04205662     1.41083232    -0.00003707     0.00004601    -0.00034773
H         0.99078229    -0.24348184    -0.64159470    -0.00070202    -0.00082046    -0.00082194
H         0.84011626    -0.18971830     1.92684301    -0.00006291     0.00003236     0.00073726
H        -0.99455201    -0.23859610     1.86134490     0.00072684    -0.00054425     0.00019996
H        -1.08138012    -0.05526145    -0.68143697     0.00079335    -0.00025880    -0.00082634
     6
  Step:    43            Position(A)                                  Velocity(au)
C        -0.04118782     0.05428318    -0.09621110    -0.00001975     0.00007494     0.00050176
N        -0.03467148    -0.04180423     1.40879991    -0.00004925     0.00004464    -0.00038185
H         0.98656096    -0.24799710    -0.64604350    -0.00081386    -0.00080245    -0.00077651
H         0.83986147    -0.18949339     1.93096184    -0.00003467     0.00004952     0.00073830
H        -0.99012886    -0.24154350     1.86228738     0.00085649    -0.00051589     0.00014045
H        -1.07662792    -0.05666072    -0.68589245     0.00091179    -0.00024451    -0.00077491
     6
  Step:    44            Position(A)                                  Velocity(au)
C        -0.04129610     0.05468653    -0.09332110    -0.00001899     0.00007009     0.00053584
N        -0.03497687    -0.04155996     1.40658378    -0.00005954     0.00004307    -0.00041355
H         0.98172714    -0.25241012    -0.65023430    -0.00092131    -0.00078338    -0.00072897
H         0.83973052    -0.18916732     1.93505746    -0.00001850     0.00006874     0.00072837
H        -0.98502251    -0.24433602     1.86290755     0.00097087    -0.00048857     0.00008459
H        -1.07123535    -0.05798196    -0.69005874     0.00102259    -0.00023062    -0.00072221
     6