     6
  Step:   300            Position(A)                                  Velocity(au)
C        -0.03445568     0.02120007     0.02609214     0.00003123     0.00004590    -0.00008346
N        -0.04843641    -0.06188140     1.29278770    -0.00001111    -0.00001506     0.00005812
H         0.23389340     0.96236008    -0.45035295     0.00056152    -0.00008141     0.00033306
H         0.05540956    -0.96046679     1.76402849     0.00067319    -0.00025195    -0.00043722
H        -0.09872076     0.78074084     1.87296096    -0.00070207     0.00015006    -0.00044164
H        -0.31986523    -0.84510219    -0.57054095    -0.00075051    -0.00015441     0.00073262
