 Fermi distribution function

Calculation with static geometry


********************************************************************************
 iSCC Total electronic   Diff electronic      SCC error    
   14   -0.52483518E+01   -0.49828053E-09    0.15466103E-06
********************************************************************************

 Total charge:     1.00000000

 Atomic gross charges (e)
 Atom           Charge
    1       0.31479355
    2      -0.19718062
    3       0.18057986
    4       0.25362702
    5       0.26229165
    6       0.18588855

Nr. of electrons (up):     12.00000000
Atom populations (up)
 Atom       Population
    1       3.68520645
    2       5.19718062
    3       0.81942014
    4       0.74637298
    5       0.73770835
    6       0.81411145

l-shell populations (up)
 Atom Sh.   l       Population
    1   1   0       1.42317597
    1   2   1       2.26203048
    2   1   0       1.54423503
    2   2   1       3.65294560
    3   1   0       0.81942014
    4   1   0       0.74637298
    5   1   0       0.73770835
    6   1   0       0.81411145

Orbital populations (up)
 Atom Sh.   l   m       Population  Label
    1   1   0   0       1.42317597  s
    1   2   1  -1       0.38820932  p_y
    1   2   1   0       0.86927541  p_z
    1   2   1   1       1.00454576  p_x
    2   1   0   0       1.54423503  s
    2   2   1  -1       1.36943890  p_y
    2   2   1   0       1.06947793  p_z
    2   2   1   1       1.21402876  p_x
    3   1   0   0       0.81942014  s
    4   1   0   0       0.74637298  s
    5   1   0   0       0.73770835  s
    6   1   0   0       0.81411145  s

Fermi level:                        -0.5209629094 H          -14.1761 eV
Band energy:                        -8.6355325306 H         -234.9848 eV
TS:                                  0.0000000000 H            0.0000 eV
Band free energy (E-TS):            -8.6355325306 H         -234.9848 eV
Extrapolated E(0K):                 -8.6355325306 H         -234.9848 eV
Input / Output electrons (q):     12.0000000000     12.0000000000

Energy H0:                          -5.3859444947 H         -146.5590 eV
Energy SCC:                          0.1375926863 H            3.7441 eV
Total Electronic energy:            -5.2483518084 H         -142.8149 eV
Repulsive energy:                    0.1282952002 H            3.4911 eV
Total energy:                       -5.1200566082 H         -139.3238 eV
Extrapolated to 0:                  -5.1200566082 H         -139.3238 eV
Total Mermin free energy:           -5.1200566082 H         -139.3238 eV
Force related energy:               -5.1200566082 H         -139.3238 eV

SCC converged

Excitation Energy:                   0.0913196438 H            2.4849 eV

Total Forces
    1     -0.003105406136      0.001645761978      0.025830607505
    2     -0.014735874471      0.025157060977     -0.034488516374
    3     -0.004758200530      0.003574833545      0.003357690332
    4      0.007126763256     -0.010593555557      0.009699036128
    5      0.013411702598     -0.009479698238     -0.001352528224
    6      0.002061015282     -0.010304402705     -0.003046289367

Maximal derivative component:        0.344885E-01 au


