     6
  Step:   300            Position(A)                                  Velocity(au)
C        -0.03405620     0.03276918     0.02018066    -0.00010765    -0.00004897    -0.00005536
N        -0.03949584    -0.08731955     1.29858229     0.00001763     0.00013604     0.00001164
H         0.86200859    -0.15719692    -0.55414685     0.00046368    -0.00032758     0.00108055
H         0.79389595     0.19366412     1.81646347     0.00049740    -0.00034020    -0.00034726
H        -0.93524126    -0.11702089     1.80346242    -0.00000458    -0.00112628    -0.00022126
H        -0.97891905     0.23371768    -0.45973938     0.00008122     0.00048713    -0.00001406
