 Fermi distribution function

Calculation with static geometry


********************************************************************************
 iSCC Total electronic   Diff electronic      SCC error    
   13   -0.52648798E+01   -0.11748503E-07    0.79818963E-06
********************************************************************************

 Total charge:     1.00000000

 Atomic gross charges (e)
 Atom           Charge
    1       0.31210445
    2      -0.20211167
    3       0.18525396
    4       0.27217929
    5       0.25727988
    6       0.17529409

Nr. of electrons (up):     12.00000000
Atom populations (up)
 Atom       Population
    1       3.68789555
    2       5.20211167
    3       0.81474604
    4       0.72782071
    5       0.74272012
    6       0.82470591

l-shell populations (up)
 Atom Sh.   l       Population
    1   1   0       1.40825021
    1   2   1       2.27964534
    2   1   0       1.52249088
    2   2   1       3.67962079
    3   1   0       0.81474604
    4   1   0       0.72782071
    5   1   0       0.74272012
    6   1   0       0.82470591

Orbital populations (up)
 Atom Sh.   l   m       Population  Label
    1   1   0   0       1.40825021  s
    1   2   1  -1       0.43838998  p_y
    1   2   1   0       0.86333606  p_z
    1   2   1   1       0.97791930  p_x
    2   1   0   0       1.52249088  s
    2   2   1  -1       1.38965578  p_y
    2   2   1   0       1.06413979  p_z
    2   2   1   1       1.22582523  p_x
    3   1   0   0       0.81474604  s
    4   1   0   0       0.72782071  s
    5   1   0   0       0.74272012  s
    6   1   0   0       0.82470591  s

Fermi level:                        -0.5140134594 H          -13.9870 eV
Band energy:                        -8.6432648949 H         -235.1952 eV
TS:                                  0.0000000000 H            0.0000 eV
Band free energy (E-TS):            -8.6432648949 H         -235.1952 eV
Extrapolated E(0K):                 -8.6432648949 H         -235.1952 eV
Input / Output electrons (q):     12.0000000000     12.0000000000

Energy H0:                          -5.4005822831 H         -146.9573 eV
Energy SCC:                          0.1357024393 H            3.6927 eV
Total Electronic energy:            -5.2648798438 H         -143.2647 eV
Repulsive energy:                    0.1327290465 H            3.6117 eV
Total energy:                       -5.1321507973 H         -139.6529 eV
Extrapolated to 0:                  -5.1321507973 H         -139.6529 eV
Total Mermin free energy:           -5.1321507973 H         -139.6529 eV
Force related energy:               -5.1321507973 H         -139.6529 eV

SCC converged

Excitation Energy:                   0.0921974153 H            2.5088 eV

Total Forces
    1     -0.001217166049      0.004926042009      0.043154096896
    2      0.000999324945      0.011490287386     -0.041352399683
    3     -0.002254346923     -0.012606628984     -0.000488018781
    4     -0.009384159298      0.003979429327     -0.003733024747
    5      0.005841271114     -0.013043281216     -0.000346559483
    6      0.006015076211      0.005254151477      0.002765905797

Maximal derivative component:        0.431541E-01 au


