 Fermi distribution function

Calculation with static geometry


********************************************************************************
 iSCC Total electronic   Diff electronic      SCC error    
   12   -0.53297332E+01   -0.87929664E-13    0.13611396E-08
********************************************************************************

 Total charge:     1.00000000

 Atomic gross charges (e)
 Atom           Charge
    1       0.26301869
    2      -0.14410962
    3       0.17622100
    4       0.26478631
    5       0.26018629
    6       0.17989733

Nr. of electrons (up):     12.00000000
Atom populations (up)
 Atom       Population
    1       3.73698131
    2       5.14410962
    3       0.82377900
    4       0.73521369
    5       0.73981371
    6       0.82010267

l-shell populations (up)
 Atom Sh.   l       Population
    1   1   0       1.36825738
    1   2   1       2.36872393
    2   1   0       1.49821478
    2   2   1       3.64589484
    3   1   0       0.82377900
    4   1   0       0.73521369
    5   1   0       0.73981371
    6   1   0       0.82010267

Orbital populations (up)
 Atom Sh.   l   m       Population  Label
    1   1   0   0       1.36825738  s
    1   2   1  -1       0.46609224  p_y
    1   2   1   0       0.88962474  p_z
    1   2   1   1       1.01300695  p_x
    2   1   0   0       1.49821478  s
    2   2   1  -1       1.31680857  p_y
    2   2   1   0       1.16604156  p_z
    2   2   1   1       1.16304471  p_x
    3   1   0   0       0.82377900  s
    4   1   0   0       0.73521369  s
    5   1   0   0       0.73981371  s
    6   1   0   0       0.82010267  s

Fermi level:                        -0.5276358829 H          -14.3577 eV
Band energy:                        -8.8353344055 H         -240.4217 eV
TS:                                  0.0000000000 H            0.0000 eV
Band free energy (E-TS):            -8.8353344055 H         -240.4217 eV
Extrapolated E(0K):                 -8.8353344055 H         -240.4217 eV
Input / Output electrons (q):     12.0000000000     12.0000000000

Energy H0:                          -5.4679094662 H         -148.7894 eV
Energy SCC:                          0.1381762291 H            3.7600 eV
Total Electronic energy:            -5.3297332372 H         -145.0294 eV
Repulsive energy:                    0.1602382830 H            4.3603 eV
Total energy:                       -5.1694949541 H         -140.6691 eV
Extrapolated to 0:                  -5.1694949541 H         -140.6691 eV
Total Mermin free energy:           -5.1694949541 H         -140.6691 eV
Force related energy:               -5.1694949541 H         -140.6691 eV

SCC converged

Excitation Energy:                   0.1476491505 H            4.0177 eV

Total Forces
    1     -0.021490050251      0.011226256788      0.069535704331
    2      0.022708507759     -0.007185252930     -0.061042790209
    3      0.006977843486     -0.013865066146     -0.001237295998
    4      0.004186877653      0.012578971555      0.018433403652
    5     -0.003295903988     -0.006998361494     -0.001546953714
    6     -0.009087274658      0.004243452227     -0.024142068062

Maximal derivative component:        0.695357E-01 au


