|===============================================================================
|
|  DFTB+ release 20.1
|
|  Copyright (C) 2006 - 2020  DFTB+ developers group
|
|===============================================================================
|
|  When publishing results obtained with DFTB+, please cite the following
|  reference:
|
|  * DFTB+, a software package for efficient approximate density functional
|    theory based atomistic simulations, J. Chem. Phys. 152, 124101 (2020).
|    [doi: 10.1063/1.5143190]
|
|  You should also cite additional publications crediting the parametrization
|  data you use. Please consult the documentation of the SK-files for the
|  references.
|
|===============================================================================

Reading input file 'dftb_in.hsd'
Parser version: 8

--------------------------------------------------------------------------------
Reading SK-files:
Done.


Processed input in HSD format written to 'dftb_pin.hsd'

Starting initialization...
--------------------------------------------------------------------------------
OpenMP threads:              1
Chosen random seed:          498663783
Mode:                        Static calculation
Self consistent charges:     Yes
SCC-tolerance:                 0.100000E-05
Max. scc iterations:                   1000
Shell resolved Hubbard:      No
Spin polarisation:           No
Nr. of up electrons:            16.000000
Nr. of down electrons:          16.000000
Periodic boundaries:         No
Electronic solver:           Relatively robust
Maximal SCC-cycles:                    1000
Initial charges:             Set automatically (system chrg:   0.100E+01)
Included shells:             C:  s, p
                             H:  s
                             N:  s, p
Spin coupling constants:     C   1(s)-1(s):  -0.455900E-01
                             C   1(s)-2(p):  -0.293000E-01
                             C   2(p)-1(s):  -0.293000E-01
                             C   2(p)-2(p):  -0.275500E-01
                             H   1(s)-1(s):  -0.792500E-01
                             N   1(s)-1(s):  -0.468700E-01
                             N   1(s)-2(p):  -0.317000E-01
                             N   2(p)-1(s):  -0.317000E-01
                             N   2(p)-2(p):  -0.307200E-01
Range separated hybrid:      Yes
  Screening parameter omega:   0.300000E+00
  Range separated algorithm:   MatrixBased
Extra options:
                             Mulliken analysis
                             Force calculation
Force type                   original
                             Eigenvector printing


REKS Calcuation:             Yes
SSR(2,2) Calcuation:         Yes
Energy Functional:           (PPS+OSS)/2
Number of Core Orbitals:                 15
Number of Active Orbitals:                2
Number of Basis:                         32
Number of States:                         2
State-Averaging Weight:          0.500000
                                 0.500000
State of Interest:                        1
Initial Guess:               Diagonalize H0 matrix
Newton-Raphson for FON opt:  Yes
NR max. Iterations:                      50
Level Shifting:              Yes
Shift Value:                     0.300000
W Scale Factor:              C  =    3.200000
                             H  =    3.200000
                             N  =    3.200000
Transition Dipole:           No
Gradient of Microstate:      No
CP-REKS Solver:              Preconditioned Conjugate-Gradient
CG max. Iterations:                     100
CG Tolerance:                  0.100000E-07
Memory for A and Hxc:        Direct Updating Without Saving
Non-Adiabatic Coupling:      Yes

--------------------------------------------------------------------------------

***  Geometry step: 0

  iSCC       reks energy        Diff energy         x_a       SCC error   
    1      -16.4046639435       0.0000000000     0.997757    1.20094556
    2      -16.4210768523      -0.0164129089     0.999658    0.04874780
    3      -16.4246300448      -0.0035531925     0.999867    0.02846666
    4      -16.4259113220      -0.0012812772     0.999926    0.01925577
    5      -16.4265077203      -0.0005963983     0.999950    0.01335091
    6      -16.4268351291      -0.0003274088     0.999963    0.00948240
    7      -16.4270378967      -0.0002027676     0.999970    0.00686718
    8      -16.4271755246      -0.0001376279     0.999975    0.00506010
    9      -16.4272756992      -0.0001001746     0.999978    0.00379003
   10      -16.4273525337      -0.0000768345     0.999980    0.00288368
   11      -16.4274137777      -0.0000612440     0.999982    0.00222740
   12      -16.4274639749      -0.0000501971     0.999983    0.00177065
   13      -16.4275059544      -0.0000419795     0.999985    0.00154602
   14      -16.4275415787      -0.0000356242     0.999986    0.00135794
   15      -16.4275721362      -0.0000305575     0.999987    0.00119899
   16      -16.4275985581      -0.0000264220     0.999987    0.00106363
   17      -16.4276215431      -0.0000229849     0.999988    0.00094760
   18      -16.4276416310      -0.0000200880     0.999989    0.00084758
   19      -16.4276592506      -0.0000176196     0.999989    0.00076092
   20      -16.4276747488      -0.0000154982     0.999990    0.00072377
   21      -16.4276884116      -0.0000136627     0.999990    0.00069419
   22      -16.4277004777      -0.0000120661     0.999990    0.00066411
   23      -16.4277111489      -0.0000106712     0.999991    0.00063406
   24      -16.4277205973      -0.0000094484     0.999991    0.00060441
   25      -16.4277289708      -0.0000083735     0.999991    0.00057541
   26      -16.4277363974      -0.0000074266     0.999992    0.00054723
   27      -16.4277429882      -0.0000065908     0.999992    0.00051999
   28      -16.4277488402      -0.0000058520     0.999992    0.00049375
   29      -16.4277540385      -0.0000051983     0.999992    0.00046856
   30      -16.4277586577      -0.0000046192     0.999993    0.00044443
   31      -16.4277627637      -0.0000041059     0.999993    0.00042136
   32      -16.4277664143      -0.0000036506     0.999993    0.00039933
   33      -16.4277696608      -0.0000032465     0.999993    0.00037834
   34      -16.4277725484      -0.0000028877     0.999993    0.00035834
   35      -16.4277751174      -0.0000025689     0.999993    0.00033932
   36      -16.4277774031      -0.0000022857     0.999993    0.00032123
   37      -16.4277794372      -0.0000020340     0.999994    0.00030405
   38      -16.4277812475      -0.0000018103     0.999994    0.00028773
   39      -16.4277828588      -0.0000016113     0.999994    0.00027225
   40      -16.4277842932      -0.0000014344     0.999994    0.00025757
   41      -16.4277855702      -0.0000012770     0.999994    0.00024364
   42      -16.4277867071      -0.0000011370     0.999994    0.00023044
   43      -16.4277877195      -0.0000010124     0.999994    0.00021794
   44      -16.4277886211      -0.0000009016     0.999994    0.00020609
   45      -16.4277894240      -0.0000008029     0.999994    0.00019487
   46      -16.4277901391      -0.0000007151     0.999994    0.00018425
   47      -16.4277907760      -0.0000006369     0.999994    0.00017419
   48      -16.4277913434      -0.0000005674     0.999994    0.00016467
   49      -16.4277918488      -0.0000005054     0.999995    0.00015567
   50      -16.4277922991      -0.0000004503     0.999995    0.00014714
   51      -16.4277927003      -0.0000004012     0.999995    0.00013908
   52      -16.4277930577      -0.0000003574     0.999995    0.00013145
   53      -16.4277933762      -0.0000003185     0.999995    0.00012424
   54      -16.4277936600      -0.0000002838     0.999995    0.00011742
   55      -16.4277939129      -0.0000002529     0.999995    0.00011097
   56      -16.4277941383      -0.0000002254     0.999995    0.00010487
   57      -16.4277943392      -0.0000002009     0.999995    0.00009910
   58      -16.4277945182      -0.0000001790     0.999995    0.00009365
   59      -16.4277946777      -0.0000001596     0.999995    0.00008849
   60      -16.4277948200      -0.0000001422     0.999995    0.00008362
   61      -16.4277949467      -0.0000001268     0.999995    0.00007901
   62      -16.4277950597      -0.0000001130     0.999995    0.00007466
   63      -16.4277951605      -0.0000001007     0.999995    0.00007054
   64      -16.4277952503      -0.0000000898     0.999995    0.00006665
   65      -16.4277953304      -0.0000000801     0.999995    0.00006297
   66      -16.4277954017      -0.0000000714     0.999995    0.00005950
   67      -16.4277954654      -0.0000000636     0.999995    0.00005622
   68      -16.4277955221      -0.0000000567     0.999995    0.00005311
   69      -16.4277955727      -0.0000000506     0.999995    0.00005018
   70      -16.4277956178      -0.0000000451     0.999995    0.00004741
   71      -16.4277956580      -0.0000000402     0.999995    0.00004479
   72      -16.4277956939      -0.0000000359     0.999995    0.00004232
   73      -16.4277957259      -0.0000000320     0.999995    0.00003998
   74      -16.4277957544      -0.0000000285     0.999995    0.00003777
   75      -16.4277957799      -0.0000000254     0.999995    0.00003569
   76      -16.4277958025      -0.0000000227     0.999995    0.00003371
   77      -16.4277958228      -0.0000000202     0.999995    0.00003185
   78      -16.4277958408      -0.0000000180     0.999995    0.00003009
   79      -16.4277958569      -0.0000000161     0.999995    0.00002843
   80      -16.4277958712      -0.0000000143     0.999995    0.00002685
   81      -16.4277958840      -0.0000000128     0.999995    0.00002537
   82      -16.4277958954      -0.0000000114     0.999995    0.00002397
   83      -16.4277959056      -0.0000000102     0.999995    0.00002264
   84      -16.4277959147      -0.0000000091     0.999995    0.00002139
   85      -16.4277959228      -0.0000000081     0.999995    0.00002021
   86      -16.4277959300      -0.0000000072     0.999995    0.00001909
   87      -16.4277959365      -0.0000000064     0.999995    0.00001803
   88      -16.4277959422      -0.0000000057     0.999995    0.00001704
   89      -16.4277959473      -0.0000000051     0.999995    0.00001609
   90      -16.4277959519      -0.0000000046     0.999995    0.00001520
   91      -16.4277959560      -0.0000000041     0.999995    0.00001436
   92      -16.4277959596      -0.0000000036     0.999995    0.00001357
   93      -16.4277959629      -0.0000000032     0.999995    0.00001282
   94      -16.4277959658      -0.0000000029     0.999995    0.00001211
   95      -16.4277959684      -0.0000000026     0.999995    0.00001144
   96      -16.4277959707      -0.0000000023     0.999995    0.00001080
   97      -16.4277959727      -0.0000000021     0.999995    0.00001021
   98      -16.4277959745      -0.0000000018     0.999995    0.00000964
   99      -16.4277959762      -0.0000000016     0.999995    0.00000911
  100      -16.4277959776      -0.0000000015     0.999995    0.00000860
  101      -16.4277959789      -0.0000000013     0.999995    0.00000813
  102      -16.4277959801      -0.0000000012     0.999995    0.00000768
  103      -16.4277959811      -0.0000000010     0.999995    0.00000725
  104      -16.4277959821      -0.0000000009     0.999995    0.00000685
  105      -16.4277959829      -0.0000000008     0.999995    0.00000647
  106      -16.4277959836      -0.0000000007     0.999995    0.00000611
  107      -16.4277959843      -0.0000000007     0.999995    0.00000577
  108      -16.4277959849      -0.0000000006     0.999995    0.00000546
  109      -16.4277959854      -0.0000000005     0.999995    0.00000515
  110      -16.4277959858      -0.0000000005     0.999995    0.00000487
  111      -16.4277959863      -0.0000000004     0.999995    0.00000460
  112      -16.4277959866      -0.0000000004     0.999995    0.00000434
  113      -16.4277959870      -0.0000000003     0.999995    0.00000410
  114      -16.4277959873      -0.0000000003     0.999995    0.00000388
  115      -16.4277959875      -0.0000000003     0.999995    0.00000366
  116      -16.4277959878      -0.0000000002     0.999995    0.00000346
  117      -16.4277959880      -0.0000000002     0.999995    0.00000327
  118      -16.4277959882      -0.0000000002     0.999995    0.00000309
  119      -16.4277959883      -0.0000000002     0.999995    0.00000292
  120      -16.4277959885      -0.0000000001     0.999995    0.00000275
  121      -16.4277959886      -0.0000000001     0.999995    0.00000260
  122      -16.4277959887      -0.0000000001     0.999995    0.00000246
  123      -16.4277959888      -0.0000000001     0.999995    0.00000232
  124      -16.4277959889      -0.0000000001     0.999995    0.00000219
  125      -16.4277959890      -0.0000000001     0.999995    0.00000207
  126      -16.4277959891      -0.0000000001     0.999995    0.00000196
  127      -16.4277959891      -0.0000000001     0.999995    0.00000185
  128      -16.4277959892      -0.0000000001     0.999995    0.00000175
  129      -16.4277959893      -0.0000000001     0.999995    0.00000165
  130      -16.4277959893      -0.0000000000     0.999995    0.00000156
  131      -16.4277959893      -0.0000000000     0.999995    0.00000147
  132      -16.4277959894      -0.0000000000     0.999995    0.00000139
  133      -16.4277959894      -0.0000000000     0.999995    0.00000131
  134      -16.4277959894      -0.0000000000     0.999995    0.00000124
  135      -16.4277959895      -0.0000000000     0.999995    0.00000117
  136      -16.4277959895      -0.0000000000     0.999995    0.00000111
  137      -16.4277959895      -0.0000000000     0.999995    0.00000105
  138      -16.4277959895      -0.0000000000     0.999995    0.00000099
  
--------------------------------------------------
 Final SA-REKS(2,2) energy:     -16.42779599
  
 State     Energy      FON(1)    FON(2)   Spin
  PPS  -16.49758886   1.999991  0.000009  0.00
  OSS  -16.35800312   1.000000  1.000000  0.00
 Trip  -16.39510988   1.000000  1.000000  1.00
--------------------------------------------------

 Lagrangian Wab:  -0.00659827 -0.00659784

--------------------------------------------------
 SSR: 2SI-2SA-REKS(2,2) Hamiltonian matrix
               PPS           OSS
   PPS   -16.49758886   -0.00931107
   OSS    -0.00931107  -16.35800312
--------------------------------------------------

----------------------------------------------------------------
 SSR: 2SI-2SA-REKS(2,2) states
                    E_n       C_{PPS}    C_{OSS}
 SSR state  1  -16.49820721  -0.997802  -0.066265
 SSR state  2  -16.35738477   0.066265  -0.997802
----------------------------------------------------------------

 unrelaxed SSR FONs for S0:  1.995600  0.004400

Total Energy:                      -16.4982072120 H         -448.9391 eV
Extrapolated to 0:                 -16.4982072120 H         -448.9391 eV

----------------------------------------------------------------------------------
 Solving CP-REKS equation for  1 state vector...
----------------------------------------------------------------------------------
  CG solver: Constructing Y initial guess
  CG solver: Iteration    1    eps =    0.000577861683
  CG solver: Iteration    2    eps =    0.000262307481
  CG solver: Iteration    3    eps =    0.000034983311
  CG solver: Iteration    4    eps =    0.000043890675
  CG solver: Iteration    5    eps =    0.000010526029
  CG solver: Iteration    6    eps =    0.000002014163
  CG solver: Iteration    7    eps =    0.000000116810
  CG solver: Iteration    8    eps =    0.000000015253
  CG solver: Iteration    9    eps =    0.000000002666
  Convergence reached in CG solver after    9 iterations
  CG solver: Calculating converged R, Z, Q2 matrix
----------------------------------------------------------------------------------

----------------------------------------------------------------------------------
 Solving CP-REKS equation for SI between  1 and  2 state vectors...
----------------------------------------------------------------------------------
  CG solver: Constructing Y initial guess
  CG solver: Iteration    1    eps =    0.050736091444
  CG solver: Iteration    2    eps =    0.002868266403
  CG solver: Iteration    3    eps =    0.001233916866
  CG solver: Iteration    4    eps =    0.003358060816
  CG solver: Iteration    5    eps =    0.000353835791
  CG solver: Iteration    6    eps =    0.000085944130
  CG solver: Iteration    7    eps =    0.000014128800
  CG solver: Iteration    8    eps =    0.000000799010
  CG solver: Iteration    9    eps =    0.000000223160
  CG solver: Iteration   10    eps =    0.000000019351
  CG solver: Iteration   11    eps =    0.000000002437
  Convergence reached in CG solver after   11 iterations
  CG solver: Calculating converged R, Z, Q2 matrix
----------------------------------------------------------------------------------

--------------------------------------------------
 Gradient Information
--------------------------------------------------
           1 st state (SSR)
     0.02150467    -0.02658050    -0.04810116
    -0.06125616     0.01581674     0.06987385
     0.02780412     0.02619513    -0.02568952
    -0.00035493    -0.02075621     0.00014616
     0.02578347     0.00440847    -0.01238979
    -0.00912160     0.00594107     0.00203929
    -0.00549276    -0.00616689     0.04971866
    -0.00165003     0.00788585    -0.01198566
     0.00376018    -0.00886842    -0.01876252
    -0.00960431    -0.01517317    -0.01423237
    -0.02010092     0.01229240     0.03046006
    -0.01732358    -0.01272699     0.00291755
     0.01788143     0.02052846     0.00394936
     0.02817043    -0.00279594    -0.02794391

           2 st state (SSR)
     0.02722012    -0.03978601    -0.07449247
    -0.10120113     0.04658782     0.10268386
     0.02399830     0.02500708    -0.02704234
     0.00530878    -0.02013779     0.00250545
     0.03360714     0.00975677    -0.01515924
     0.06895023    -0.00988425     0.04138178
    -0.06491948    -0.03150819    -0.01683842
     0.00096253     0.00628563    -0.01288381
    -0.00320089     0.01383746    -0.01418821
     0.07002379    -0.00869295    -0.00638774
    -0.02131772     0.01794394     0.02945531
    -0.09065775    -0.02254458     0.01320039
     0.02094307     0.01827808     0.00687820
     0.03028302    -0.00514302    -0.02911277
--------------------------------------------------
 Coupling Information
--------------------------------------------------
 between  1 and  2 states
--------------------------------------------------
 g vector - difference gradient
    -0.00105680     0.00589356     0.01057591
     0.01900213    -0.01391269    -0.01507682
     0.00053144     0.00056627     0.00005439
    -0.00193545    -0.00035763    -0.00099338
    -0.00448536    -0.00278202     0.00031999
    -0.04872519     0.00262321    -0.01811791
     0.04143736     0.01694388     0.03490515
    -0.00189706     0.00231991     0.00070849
     0.00438505    -0.01306474    -0.00148584
    -0.04106909    -0.00204157    -0.00536178
     0.00072634    -0.00271512     0.00064327
     0.03520604     0.00432102    -0.00523331
    -0.00125134     0.00112667    -0.00117651
    -0.00086809     0.00107926     0.00023834

 h vector - derivative coupling
    -0.01368901     0.00575438     0.02051314
     0.00859992    -0.01206176    -0.01104512
     0.01040645     0.00024748     0.00470739
    -0.00690726     0.00034241    -0.00147455
     0.00403917     0.00063095     0.00807286
     0.07003535     0.04017358    -0.01294971
    -0.08590618    -0.03118933    -0.00998256
     0.00434156    -0.01133877    -0.00191474
    -0.00654883     0.01207717    -0.00615827
     0.00676326    -0.00919909     0.01052928
    -0.00084368    -0.00101706    -0.00102274
     0.01338665     0.00473181     0.00034729
    -0.00219656     0.00006365    -0.00225528
    -0.00148085     0.00078459     0.00263299

 G vector - GDV
    -0.00285773     0.00660276     0.01319565
     0.01997249    -0.01538554    -0.01640501
     0.00190291     0.00059402     0.00067641
    -0.00283186    -0.00030921    -0.00117965
    -0.00391183    -0.00267415     0.00138472
    -0.03903591     0.00791266    -0.01967125
     0.02971336     0.01267065     0.03327854
    -0.00130628     0.00080011     0.00044907
     0.00348054    -0.01135294    -0.00228715
    -0.03981405    -0.00324011    -0.00392231
     0.00060840    -0.00282577     0.00050238
     0.03666709     0.00490880    -0.00514142
    -0.00153082     0.00112519    -0.00146442
    -0.00105629     0.00117354     0.00058443

 H vector - DCV - non-adiabatic coupling
    -0.09536153     0.03496950     0.13445622
     0.04268912    -0.07183545    -0.06358632
     0.07274965     0.00121023     0.03308322
    -0.04680121     0.00274594    -0.00944619
     0.03264280     0.00705353     0.05652258
     0.53871835     0.28030958    -0.07413666
    -0.64358601    -0.23544584    -0.10304246
     0.03234071    -0.08198961    -0.01414273
    -0.05021354     0.09727687    -0.04195143
     0.08617076    -0.06283321     0.07914823
    -0.00662055    -0.00460922    -0.00780287
     0.06116561     0.02924853     0.00735882
    -0.01428600    -0.00060994    -0.01476960
    -0.00960816     0.00450909     0.01830920
--------------------------------------------------


--------------------------------------------------------------------------------
DFTB+ running times                          cpu [s]             wall clock [s]
--------------------------------------------------------------------------------
SCC                                    +     0.19  ( 39.9%)      0.19  ( 40.0%)
      Dense to sparse                        0.04  (  7.3%)      0.04  (  8.6%)
      Range separated Hamiltonian            0.02  (  3.5%)      0.02  (  3.1%)
  Density matrix creation                    0.02  (  4.3%)      0.02  (  3.9%)
Post-SCC processing                    +     0.29  ( 59.7%)      0.29  ( 59.2%)
  Force calculation                          0.29  ( 59.7%)      0.29  ( 59.0%)
--------------------------------------------------------------------------------
Missing                                +     0.00  (  0.3%)      0.00  (  0.8%)
Total                                  =     0.48  (100.0%)      0.49  (100.0%)
--------------------------------------------------------------------------------
