 Fermi distribution function

Calculation with static geometry


********************************************************************************
 iSCC Total electronic   Diff electronic      SCC error    
   13   -0.52645982E+01   -0.85336183E-11    0.96960875E-08
********************************************************************************

 Total charge:     1.00000000

 Atomic gross charges (e)
 Atom           Charge
    1       0.30809184
    2      -0.19003624
    3       0.18157723
    4       0.25491710
    5       0.25984540
    6       0.18560467

Nr. of electrons (up):     12.00000000
Atom populations (up)
 Atom       Population
    1       3.69190816
    2       5.19003624
    3       0.81842277
    4       0.74508290
    5       0.74015460
    6       0.81439533

l-shell populations (up)
 Atom Sh.   l       Population
    1   1   0       1.41909068
    1   2   1       2.27281748
    2   1   0       1.53843980
    2   2   1       3.65159644
    3   1   0       0.81842277
    4   1   0       0.74508290
    5   1   0       0.74015460
    6   1   0       0.81439533

Orbital populations (up)
 Atom Sh.   l   m       Population  Label
    1   1   0   0       1.41909068  s
    1   2   1  -1       0.38844700  p_y
    1   2   1   0       0.87281954  p_z
    1   2   1   1       1.01155094  p_x
    2   1   0   0       1.53843980  s
    2   2   1  -1       1.39630152  p_y
    2   2   1   0       1.08534378  p_z
    2   2   1   1       1.16995114  p_x
    3   1   0   0       0.81842277  s
    4   1   0   0       0.74508290  s
    5   1   0   0       0.74015460  s
    6   1   0   0       0.81439533  s

Fermi level:                        -0.5183815862 H          -14.1059 eV
Band energy:                        -8.6383904997 H         -235.0626 eV
TS:                                  0.0000000000 H            0.0000 eV
Band free energy (E-TS):            -8.6383904997 H         -235.0626 eV
Extrapolated E(0K):                 -8.6383904997 H         -235.0626 eV
Input / Output electrons (q):     12.0000000000     12.0000000000

Energy H0:                          -5.4006648902 H         -146.9596 eV
Energy SCC:                          0.1360667207 H            3.7026 eV
Total Electronic energy:            -5.2645981696 H         -143.2570 eV
Repulsive energy:                    0.1330987738 H            3.6218 eV
Total energy:                       -5.1314993958 H         -139.6352 eV
Extrapolated to 0:                  -5.1314993958 H         -139.6352 eV
Total Mermin free energy:           -5.1314993958 H         -139.6352 eV
Force related energy:               -5.1314993958 H         -139.6352 eV

SCC converged

Excitation Energy:                   0.1099284335 H            2.9913 eV

Total Forces
    1     -0.007921216032      0.007298166084      0.004421266508
    2     -0.015722659769     -0.018155242412     -0.007125764808
    3      0.002445104384     -0.005603533138      0.000702234979
    4      0.010863488939      0.004345316427      0.005370955123
    5      0.007434792776      0.010422829837     -0.005942400489
    6      0.002900489700      0.001692463202      0.002573708687

Maximal derivative component:        0.181552E-01 au


