|===============================================================================
|
|  DFTB+ release 20.1
|
|  Copyright (C) 2006 - 2020  DFTB+ developers group
|
|===============================================================================
|
|  When publishing results obtained with DFTB+, please cite the following
|  reference:
|
|  * DFTB+, a software package for efficient approximate density functional
|    theory based atomistic simulations, J. Chem. Phys. 152, 124101 (2020).
|    [doi: 10.1063/1.5143190]
|
|  You should also cite additional publications crediting the parametrization
|  data you use. Please consult the documentation of the SK-files for the
|  references.
|
|===============================================================================

Reading input file 'dftb_in.hsd'
Parser version: 8

--------------------------------------------------------------------------------
Reading SK-files:
Done.


Processed input in HSD format written to 'dftb_pin.hsd'

Starting initialization...
--------------------------------------------------------------------------------
OpenMP threads:              1
Chosen random seed:          511834726
Mode:                        Static calculation
Self consistent charges:     Yes
SCC-tolerance:                 0.100000E-05
Max. scc iterations:                   1000
Shell resolved Hubbard:      No
Spin polarisation:           No
Nr. of up electrons:             6.000000
Nr. of down electrons:           6.000000
Periodic boundaries:         No
Electronic solver:           Relatively robust
Maximal SCC-cycles:                    1000
Initial charges:             Set automatically (system chrg:   0.100E+01)
Included shells:             C:  s, p
                             N:  s, p
                             H:  s
Spin coupling constants:     C   1(s)-1(s):  -0.455900E-01
                             C   1(s)-2(p):  -0.293000E-01
                             C   2(p)-1(s):  -0.293000E-01
                             C   2(p)-2(p):  -0.275500E-01
                             N   1(s)-1(s):  -0.468700E-01
                             N   1(s)-2(p):  -0.317000E-01
                             N   2(p)-1(s):  -0.317000E-01
                             N   2(p)-2(p):  -0.307200E-01
                             H   1(s)-1(s):  -0.792500E-01
Range separated hybrid:      Yes
  Screening parameter omega:   0.300000E+00
  Range separated algorithm:   MatrixBased
Extra options:
                             Mulliken analysis
                             Force calculation
Force type                   original
                             Eigenvector printing


REKS Calcuation:             Yes
SSR(2,2) Calcuation:         Yes
Energy Functional:           (PPS+OSS)/2
Number of Core Orbitals:                  5
Number of Active Orbitals:                2
Number of Basis:                         12
Number of States:                         2
State-Averaging Weight:          0.500000
                                 0.500000
State of Interest:                        1
Initial Guess:               Diagonalize H0 matrix
Newton-Raphson for FON opt:  Yes
NR max. Iterations:                      50
Level Shifting:              Yes
Shift Value:                     0.300000
W Scale Factor:              C  =    3.000000
                             N  =    3.000000
                             H  =    3.000000
Transition Dipole:           No
Gradient of Microstate:      No
CP-REKS Solver:              Preconditioned Conjugate-Gradient
CG max. Iterations:                     100
CG Tolerance:                  0.100000E-07
Memory for A and Hxc:        Direct Updating Without Saving
Non-Adiabatic Coupling:      Yes

--------------------------------------------------------------------------------

***  Geometry step: 0

  iSCC       reks energy        Diff energy         x_a       SCC error   
    1       -6.2817915867       0.0000000000     0.999972    1.19260905
    2       -6.2842041846      -0.0024125979     0.999975    0.02312241
    3       -6.2846803671      -0.0004761825     0.999978    0.00824207
    4       -6.2848090213      -0.0001286542     0.999979    0.00441950
    5       -6.2848539440      -0.0000449226     0.999979    0.00237387
    6       -6.2848734163      -0.0000194723     0.999980    0.00183702
    7       -6.2848831594      -0.0000097431     0.999980    0.00149704
    8       -6.2848884448      -0.0000052853     0.999980    0.00120164
    9       -6.2848914385      -0.0000029938     0.999980    0.00095608
   10       -6.2848931753      -0.0000017368     0.999981    0.00075666
   11       -6.2848941974      -0.0000010221     0.999981    0.00059682
   12       -6.2848948045      -0.0000006071     0.999981    0.00046969
   13       -6.2848951676      -0.0000003630     0.999981    0.00036907
   14       -6.2848953857      -0.0000002182     0.999981    0.00028968
   15       -6.2848955173      -0.0000001316     0.999981    0.00022719
   16       -6.2848955969      -0.0000000796     0.999981    0.00017807
   17       -6.2848956452      -0.0000000483     0.999981    0.00013951
   18       -6.2848956745      -0.0000000293     0.999981    0.00010926
   19       -6.2848956923      -0.0000000178     0.999981    0.00008555
   20       -6.2848957032      -0.0000000109     0.999981    0.00006697
   21       -6.2848957098      -0.0000000066     0.999981    0.00005242
   22       -6.2848957139      -0.0000000040     0.999981    0.00004102
   23       -6.2848957163      -0.0000000025     0.999981    0.00003210
   24       -6.2848957178      -0.0000000015     0.999981    0.00002512
   25       -6.2848957187      -0.0000000009     0.999981    0.00001965
   26       -6.2848957193      -0.0000000006     0.999981    0.00001538
   27       -6.2848957197      -0.0000000003     0.999981    0.00001203
   28       -6.2848957199      -0.0000000002     0.999981    0.00000941
   29       -6.2848957200      -0.0000000001     0.999981    0.00000736
   30       -6.2848957201      -0.0000000001     0.999981    0.00000576
   31       -6.2848957201      -0.0000000000     0.999981    0.00000451
   32       -6.2848957201      -0.0000000000     0.999981    0.00000352
   33       -6.2848957202      -0.0000000000     0.999981    0.00000276
   34       -6.2848957202      -0.0000000000     0.999981    0.00000216
   35       -6.2848957202      -0.0000000000     0.999981    0.00000169
   36       -6.2848957202      -0.0000000000     0.999981    0.00000132
   37       -6.2848957202      -0.0000000000     0.999981    0.00000103
   38       -6.2848957202      -0.0000000000     0.999981    0.00000081
  
--------------------------------------------------
 Final SA-REKS(2,2) energy:      -6.28489572
  
 State     Energy      FON(1)    FON(2)   Spin
  PPS   -6.41836393   1.999962  0.000038  0.00
  OSS   -6.15142751   1.000000  1.000000  0.00
 Trip   -6.22810491   1.000000  1.000000  1.00
--------------------------------------------------

 Lagrangian Wab:   0.00007526  0.00007526

--------------------------------------------------
 SSR: 2SI-2SA-REKS(2,2) Hamiltonian matrix
               PPS           OSS
   PPS    -6.41836393    0.00010596
   OSS     0.00010596   -6.15142751
--------------------------------------------------

----------------------------------------------------------------
 SSR: 2SI-2SA-REKS(2,2) states
                    E_n       C_{PPS}    C_{OSS}
 SSR state  1   -6.41836397  -1.000000   0.000397
 SSR state  2   -6.15142747  -0.000397  -1.000000
----------------------------------------------------------------

 unrelaxed SSR FONs for S0:  1.999962  0.000038

Total Energy:                       -6.4183639747 H         -174.6526 eV
Extrapolated to 0:                  -6.4183639747 H         -174.6526 eV

----------------------------------------------------------------------------------
 Solving CP-REKS equation for  1 state vector...
----------------------------------------------------------------------------------
  CG solver: Constructing Y initial guess
  CG solver: Iteration    1    eps =    0.000028816514
  CG solver: Iteration    2    eps =    0.000001399066
  CG solver: Iteration    3    eps =    0.000000271434
  CG solver: Iteration    4    eps =    0.000000002398
  Convergence reached in CG solver after    4 iterations
  CG solver: Calculating converged R, Z, Q2 matrix
----------------------------------------------------------------------------------

----------------------------------------------------------------------------------
 Solving CP-REKS equation for SI between  1 and  2 state vectors...
----------------------------------------------------------------------------------
  CG solver: Constructing Y initial guess
  CG solver: Iteration    1    eps =    0.000275720298
  CG solver: Iteration    2    eps =    0.000074985249
  CG solver: Iteration    3    eps =    0.000002483425
  CG solver: Iteration    4    eps =    0.000000152603
  CG solver: Iteration    5    eps =    0.000000001466
  Convergence reached in CG solver after    5 iterations
  CG solver: Calculating converged R, Z, Q2 matrix
----------------------------------------------------------------------------------

--------------------------------------------------
 Gradient Information
--------------------------------------------------
           1 st state (SSR)
    -0.00261486    -0.00712752     0.03193236
     0.00883572    -0.00103013    -0.03881329
     0.00016336    -0.00250139    -0.00503400
    -0.00386535     0.00685714     0.00687883
    -0.00264801    -0.00104989     0.00431085
     0.00012914     0.00485179     0.00072525

           2 st state (SSR)
     0.00203200    -0.00544065     0.14531122
    -0.00345346     0.00376559    -0.17124037
    -0.00109177     0.00865359     0.01518124
     0.00154932    -0.00018489    -0.00223156
     0.00129968     0.00613082    -0.00491344
    -0.00033578    -0.01292446     0.01789291
--------------------------------------------------
 Coupling Information
--------------------------------------------------
 between  1 and  2 states
--------------------------------------------------
 g vector - difference gradient
    -0.00232407    -0.00084460    -0.05668952
     0.00614439    -0.00239592     0.06621363
     0.00062374    -0.00557743    -0.01010767
    -0.00271182     0.00352006     0.00455488
    -0.00196921    -0.00359079     0.00461243
     0.00023696     0.00888868    -0.00858375

 h vector - derivative coupling
    -0.00080285    -0.00147007    -0.00008945
    -0.00024646     0.00245177     0.00008243
    -0.00482417     0.00007488    -0.00005799
    -0.00564295    -0.00120294    -0.00039563
     0.00584113    -0.00054369     0.00035737
     0.00567530     0.00069005     0.00010328

 G vector - GDV
    -0.00232343    -0.00084344    -0.05668943
     0.00614459    -0.00239786     0.06621354
     0.00062757    -0.00557749    -0.01010762
    -0.00270734     0.00352102     0.00455519
    -0.00197384    -0.00359035     0.00461215
     0.00023246     0.00888813    -0.00858383

 H vector - DCV - non-adiabatic coupling
    -0.00301456    -0.00550971    -0.00050370
    -0.00090502     0.00917773     0.00050572
    -0.01807049     0.00026393    -0.00024730
    -0.02114771    -0.00449599    -0.00146858
     0.02187623    -0.00204747     0.00135250
     0.02126155     0.00261152     0.00036138
--------------------------------------------------


--------------------------------------------------------------------------------
DFTB+ running times                          cpu [s]             wall clock [s]
--------------------------------------------------------------------------------
SCC                                    +     0.02  ( 57.1%)      0.02  ( 52.8%)
Post-SCC processing                    +     0.01  ( 38.6%)      0.01  ( 33.3%)
  Force calculation                          0.01  ( 37.7%)      0.01  ( 30.6%)
--------------------------------------------------------------------------------
Missing                                +     0.00  (  4.2%)      0.00  ( 13.9%)
Total                                  =     0.03  (100.0%)      0.04  (100.0%)
--------------------------------------------------------------------------------
