     6
  Step:     0            Position(A)                                  Velocity(au)
C        -0.03708417     0.00358292     0.00270437    -0.00007175     0.00007266    -0.00026464
N        -0.05294908    -0.05943802     1.31344320     0.00022547    -0.00005217     0.00022688
H         0.93387238     0.06638432    -0.51006069    -0.00008353    -0.00037870     0.00051330
H         0.90410407    -0.07888852     1.80435948    -0.00155936     0.00027767    -0.00070102
H        -0.91062818     0.01186617     1.82791463    -0.00086755     0.00004391     0.00043235
H        -0.96258936     0.11413794    -0.51446682     0.00023219    -0.00008377    -0.00024393
     6
  Step:     1            Position(A)                                  Velocity(au)
C        -0.03776854     0.00436699    -0.00035002    -0.00005494     0.00007055    -0.00028838
N        -0.05026514    -0.06004448     1.31616404     0.00025575    -0.00005811     0.00026610
H         0.93340473     0.06238686    -0.50533806     0.00001277    -0.00035234     0.00034135
H         0.88522844    -0.07580948     1.79647162    -0.00181264     0.00028403    -0.00069663
H        -0.92127089     0.01254013     1.83403772    -0.00102161     0.00007434     0.00064930
H        -0.96174549     0.11346654    -0.51883770    -0.00007781    -0.00003915    -0.00055546
     6
  Step:     2            Position(A)                                  Velocity(au)
C        -0.03828618     0.00512623    -0.00360460    -0.00004114     0.00007586    -0.00041968
N        -0.04735407    -0.06070933     1.31926474     0.00026633    -0.00006935     0.00038870
H         0.93415169     0.05867626    -0.50259293     0.00004908    -0.00024219     0.00024571
H         0.86444918    -0.07267491     1.78911937    -0.00194809     0.00020229    -0.00062092
H        -0.93297776     0.01349253     1.84211939    -0.00100859     0.00019898     0.00075056
H        -0.96429155     0.11328149    -0.52661862    -0.00030330    -0.00009932    -0.00077589
     6
  Step:     3            Position(A)                                  Velocity(au)
C        -0.03866848     0.00602654    -0.00953125    -0.00003015     0.00008850    -0.00066114
N        -0.04443858    -0.06156168     1.32466753     0.00025313    -0.00008579     0.00059438
H         0.93447839     0.05708848    -0.49996267     0.00001504    -0.00009222     0.00022552
H         0.84261019    -0.07138398     1.78288785    -0.00192141     0.00008072    -0.00045999
H        -0.94333581     0.01689327     1.85045762    -0.00082942     0.00036981     0.00073785
H        -0.96838075     0.11129364    -0.53581182    -0.00042251    -0.00022080    -0.00088492
     6
  Step:     4            Position(A)                                  Velocity(au)
C        -0.03894581     0.00706244    -0.01806830    -0.00002264     0.00010035    -0.00088671
N        -0.04181639    -0.06258617     1.33226802     0.00021332    -0.00010059     0.00078058
H         0.93448067     0.05665881    -0.49765921    -0.00000221     0.00000118     0.00018383
H         0.82241460    -0.07090900     1.77905613    -0.00163381     0.00001940    -0.00017270
H        -0.95112289     0.02158280     1.85826118    -0.00055723     0.00046917     0.00066835
H        -0.97353477     0.10845115    -0.54597788    -0.00050131    -0.00028777    -0.00096050
     6
  Step:     5            Position(A)                                  Velocity(au)
C        -0.03916383     0.00822192    -0.02892981    -0.00001950     0.00011094    -0.00108292
N        -0.03977182    -0.06376223     1.34174416     0.00014997    -0.00011350     0.00093462
H         0.93443005     0.05711422    -0.49594115     0.00000891     0.00007692     0.00011731
H         0.80686753    -0.07095965     1.77910963    -0.00108720    -0.00002274     0.00024201
H        -0.95552624     0.02715722     1.86507905    -0.00022874     0.00054049     0.00056903
H        -0.97934787     0.10499812    -0.55682449    -0.00054458    -0.00033955    -0.00101196
     6
  Step:     6            Position(A)                                  Velocity(au)
C        -0.03937250     0.00948954    -0.04175923    -0.00002087     0.00012004    -0.00124561
N        -0.03853553    -0.06506910     1.35271453     0.00007032    -0.00012462     0.00105426
H         0.93467551     0.05834168    -0.49509274     0.00005310     0.00014526     0.00002481
H         0.79862993    -0.07140637     1.78435060    -0.00034539    -0.00005553     0.00075011
H        -0.95612696     0.03340697     1.87070975     0.00011972     0.00059735     0.00046179
H        -0.98544856     0.10102283    -0.56811638    -0.00055598    -0.00038578    -0.00104424
     6
  Step:     7            Position(A)                                  Velocity(au)
C        -0.03962033     0.01084801    -0.05617999    -0.00002636     0.00012754    -0.00137448
N        -0.03823344    -0.06648850     1.36480810    -0.00001433    -0.00013429     0.00114256
H         0.93559170     0.06029204    -0.49539836     0.00013014     0.00021050    -0.00009229
H         0.79931144    -0.07217452     1.79551983     0.00047216    -0.00008237     0.00128829
H        -0.95290722     0.04022549     1.87518151     0.00045113     0.00064817     0.00036708
H        -0.99151096     0.09655852    -0.57966924    -0.00054022    -0.00042988    -0.00106200
     6
  Step:     8            Position(A)                                  Velocity(au)
C        -0.03994924     0.01227968    -0.07182869    -0.00003517     0.00013346    -0.00147169
N        -0.03884895    -0.06800704     1.37771014    -0.00009084    -0.00014304     0.00120545
H         0.93752263     0.06294672    -0.49711178     0.00023461     0.00027461    -0.00022996
H         0.80895942    -0.07320847     1.81253448     0.00122125    -0.00010438     0.00178100
H        -0.94625758     0.04758685     1.87874040     0.00072850     0.00070019     0.00030414
H        -0.99726682     0.09161842    -0.59134959    -0.00050290    -0.00047305    -0.00106977
     6
  Step:     9            Position(A)                                  Velocity(au)
C        -0.04038978     0.01376777    -0.08837592    -0.00004607     0.00013792    -0.00154081
N        -0.04022074    -0.06961783     1.39117952    -0.00014765    -0.00015151     0.00124925
H         0.94072431     0.06629969    -0.50042926     0.00035624     0.00033839    -0.00038201
H         0.82602853    -0.07445804     1.83448269     0.00177769    -0.00012186     0.00216409
H        -0.93696985     0.05554357     1.88183524     0.00091704     0.00076082     0.00029019
H        -1.00251293     0.08620969    -0.60307247    -0.00045014    -0.00051547    -0.00107177
     6
  Step:    10            Position(A)                                  Velocity(au)
C        -0.04095711     0.01529693    -0.10553695    -0.00005753     0.00014108    -0.00158604
N        -0.04207918    -0.07132153     1.40503977    -0.00017749    -0.00016038     0.00127887
H         0.94531615     0.07034967    -0.50546890     0.00048112     0.00040193    -0.00054087
H         0.84784976    -0.07587433     1.85987806     0.00207092    -0.00013503     0.00240167
H        -0.92619552     0.06423127     1.88508882     0.00098822     0.00083758     0.00033871
H        -1.00711446     0.08034163    -0.61479664    -0.00038825    -0.00055697    -0.00107182
     6
  Step:    11            Position(A)                                  Velocity(au)
C        -0.04164828     0.01685410    -0.12307359    -0.00006787     0.00014315    -0.00161144
N        -0.04410376    -0.07312635     1.41915732    -0.00017832    -0.00017029     0.00129738
H         0.95124974     0.07509275    -0.51226181     0.00059370     0.00046484    -0.00069879
H         0.87133380    -0.07741210     1.88702380     0.00209041    -0.00014418     0.00248875
H        -0.91535075     0.07386731     1.88924524     0.00092602     0.00093725     0.00045640
H        -1.01100658     0.07402488    -0.62652048    -0.00032341    -0.00059735    -0.00107319
     6
  Step:    12            Position(A)                                  Velocity(au)
C        -0.04244187     0.01842854    -0.14079026    -0.00007551     0.00014434    -0.00162055
N        -0.04598025    -0.07504685     1.43342243    -0.00015271    -0.00018168     0.00130652
H         0.95830452     0.08051882    -0.52075617     0.00067926     0.00052644    -0.00084884
H         0.89358146    -0.07902850     1.91432423     0.00186976    -0.00014950     0.00244259
H        -0.90593703     0.08473541     1.89507350     0.00073407     0.00106416     0.00063951
H        -1.01418974     0.06727352    -0.63827463    -0.00026123    -0.00063631    -0.00107849
     6
  Step:    13            Position(A)                                  Velocity(au)
C        -0.04330017     0.02001172    -0.15852618    -0.00007914     0.00014483    -0.00161609
N        -0.04744457    -0.07710103     1.44773985    -0.00010655    -0.00019466     0.00130756
H         0.96610991     0.08660964    -0.53083192     0.00072605     0.00058602    -0.00098577
H         0.91223847    -0.08068264     1.94046008     0.00146398    -0.00015113     0.00229081
H        -0.89929151     0.09714781     1.90323584     0.00044006     0.00121810     0.00087169
H        -1.01672152     0.06010438    -0.65011442    -0.00020637    -0.00067369    -0.00108960
     6
  Step:    14            Position(A)                                  Velocity(au)
C        -0.04417324     0.02159694    -0.17614537    -0.00007791     0.00014478    -0.00159993
N        -0.04831124    -0.07930550     1.46202786    -0.00004766    -0.00020885     0.00130187
H         0.97418821     0.09333907    -0.54232180     0.00072677     0.00064286    -0.00110632
H         0.92560873    -0.08233471     1.96444002     0.00093193    -0.00014913     0.00206255
H        -0.89630994     0.11138362     1.91414334     0.00009413     0.00139273     0.00112494
H        -1.01870447     0.05253531    -0.66211165    -0.00016220    -0.00070940    -0.00110760
     6
  Step:    15            Position(A)                                  Velocity(au)
C        -0.04500455     0.02317896    -0.19352761    -0.00007146     0.00014430    -0.00157334
N        -0.04848717    -0.08167000     1.47622077     0.00001553    -0.00022341     0.00129105
H         0.98200933     0.10067348    -0.55503476     0.00067906     0.00069641    -0.00120921
H         0.93262614    -0.08394520     1.98558223     0.00032779    -0.00014350     0.00178429
H        -0.89723222     0.12761635     1.92784602    -0.00024061     0.00157568     0.00136481
H        -1.02027006     0.04458487    -0.67434539    -0.00013051    -0.00074346    -0.00113273
     6
  Step:    16            Position(A)                                  Velocity(au)
C        -0.04573665     0.02475369    -0.21056514    -0.00005998     0.00014349    -0.00153741
N        -0.04797146    -0.08419304     1.49027197     0.00007512    -0.00023725     0.00127670
H         0.98904404     0.10857440    -0.56877559     0.00058515     0.00074629    -0.00129481
H         0.93277984    -0.08547407     2.00347478    -0.00030030    -0.00013416     0.00147944
H        -0.90157381     0.14585454     1.94400128    -0.00050278     0.00175084     0.00155814
H        -1.02155973     0.03627061    -0.68689226    -0.00011130    -0.00077590    -0.00116431
     6
  Step:    17            Position(A)                                  Velocity(au)
C        -0.04631663     0.02631801    -0.22716138    -0.00004406     0.00014242    -0.00149312
N        -0.04684379    -0.08686029     1.50415094     0.00012457    -0.00024925     0.00125985
H         0.99481058     0.11699991    -0.58336119     0.00045093     0.00079241    -0.00136462
H         0.92605654    -0.08688021     2.01794787    -0.00090757    -0.00012096     0.00116997
H        -0.90823142     0.16591935     1.96193329    -0.00064666     0.00190199     0.00168034
H        -1.02270489     0.02761062    -0.69981686    -0.00010273    -0.00080683    -0.00120082
     6
  Step:    18            Position(A)                                  Velocity(au)
C        -0.04670065     0.02786934    -0.24323005    -0.00002472     0.00014112    -0.00144138
N        -0.04524622    -0.08964590     1.51783354     0.00015899    -0.00025855     0.00124050
H         0.99890906     0.12590987    -0.59862924     0.00028505     0.00083505    -0.00142088
H         0.91292512    -0.08812029     2.02907008    -0.00144863    -0.00010364     0.00087866
H        -0.91572075     0.18746418     1.98076190    -0.00064987     0.00201633     0.00171930
H        -1.02380723     0.01861965    -0.71316251    -0.00010139    -0.00083643    -0.00124000
     6
  Step:    19            Position(A)                                  Velocity(au)
C        -0.04685735     0.02940521    -0.25869427    -0.00000317     0.00013958    -0.00138301
N        -0.04336563    -0.09251657     1.53128933     0.00017487    -0.00026469     0.00121754
H         1.00104655     0.13526824    -0.61444561     0.00009788     0.00087470    -0.00146630
H         0.89436497    -0.08914755     2.03717033    -0.00187445    -0.00008178     0.00063102
H        -0.92244860     0.21003050     1.99954617    -0.00051301     0.00208673     0.00167500
H        -1.02492293     0.00931209    -0.72694414    -0.00010262    -0.00086465    -0.00127902
     6
  Step:    20            Position(A)                                  Velocity(au)
C        -0.04677008     0.03092288    -0.27348604     0.00001919     0.00013776    -0.00131881
N        -0.04142068    -0.09543654     1.54446955     0.00016970    -0.00026767     0.00118892
H         1.00105045     0.14504557    -0.63070734    -0.00009933     0.00091209    -0.00150377
H         0.87191793    -0.08990948     2.04287475    -0.00213235    -0.00005469     0.00045538
H        -0.92694393     0.23311533     2.01740578    -0.00025400     0.00211188     0.00155649
H        -1.02605232    -0.00029612    -0.74114362    -0.00010119    -0.00089124    -0.00131481
     6
  Step:    21            Position(A)                                  Velocity(au)
C        -0.04643764     0.03241888    -0.28754567     0.00004096     0.00013557    -0.00124951
N        -0.03965306    -0.09837226     1.55729929     0.00014189    -0.00026784     0.00115222
H         0.99887342     0.15522192    -0.64734340    -0.00029523     0.00094821    -0.00153618
H         0.84771567    -0.09034401     2.04713274    -0.00217184    -0.00002127     0.00038003
H        -0.92800526     0.25623185     2.03359745     0.00009917     0.00209545     0.00137801
H        -1.02713673    -0.01018553    -0.75570817    -0.00009190    -0.00091583    -0.00134427
     6
  Step:    22            Position(A)                                  Velocity(au)
C        -0.04587409     0.03388869    -0.30082137     0.00006081     0.00013291    -0.00117581
N        -0.03831658    -0.10129610     1.56967649     0.00009127    -0.00026589     0.00110534
H         0.99459183     0.16578942    -0.66431412    -0.00047883     0.00098427    -0.00156630
H         0.82440487    -0.09037470     2.05118870    -0.00195793     0.00001995     0.00042577
H        -0.92477436     0.27895727     2.04755231     0.00051411     0.00204490     0.00115594
H        -1.02806284    -0.02033172    -0.77055216    -0.00007026    -0.00093794    -0.00136462
     6
  Step:    23            Position(A)                                  Velocity(au)
C        -0.04510741     0.03532653    -0.31326870     0.00007756     0.00012966    -0.00109836
N        -0.03765634    -0.10418922     1.58148076     0.00002027    -0.00026271     0.00104749
H         0.98839812     0.17675480    -0.68160932    -0.00064017     0.00102171    -0.00159671
H         0.80488228    -0.08990767     2.05644728    -0.00149016     0.00007037     0.00059506
H        -0.91675806     0.30096785     2.05888580     0.00095738     0.00197065     0.00090714
H        -1.02867374    -0.03070466    -0.78556190    -0.00003302    -0.00095704    -0.00137363
     6
  Step:    24            Position(A)                                  Velocity(au)
C        -0.04417727     0.03672523    -0.32485019     0.00009030     0.00012570    -0.00101779
N        -0.03787308    -0.10704345     1.59259241    -0.00006503    -0.00025932     0.00097988
H         0.98058695     0.18814131    -0.69924518    -0.00077086     0.00106207    -0.00162956
H         0.79180479    -0.08883531     2.06420667    -0.00081854     0.00013053     0.00086229
H        -0.90382978     0.32206911     2.06739775     0.00139569     0.00188592     0.00064842
H        -1.02878512    -0.04126872    -0.80060285     0.00002147    -0.00097269    -0.00136976
     6
  Step:    25            Position(A)                                  Velocity(au)
C        -0.04313200     0.03807635    -0.33553490     0.00009840     0.00012091    -0.00093469
N        -0.03907910    -0.10986243     1.60291746    -0.00015496    -0.00025682     0.00090578
H         0.97153402     0.19998955    -0.71725897    -0.00086487     0.00110691    -0.00166639
H         0.78697524    -0.08705204     2.07531163    -0.00004372     0.00019902     0.00117290
H        -0.88622461     0.34222603     2.07307124     0.00179632     0.00180677     0.00039659
H        -1.02820409    -0.05198406    -0.81552808     0.00009311    -0.00098462    -0.00135228
     6
  Step:    26            Position(A)                                  Velocity(au)
C        -0.04202462     0.03937040    -0.34529828     0.00010166     0.00011523    -0.00084961
N        -0.04126309    -0.11266195     1.61240800    -0.00023791    -0.00025632     0.00082962
H         0.96166616     0.21235702    -0.73570055    -0.00091925     0.00115760    -0.00170783
H         0.79084829    -0.08448139     2.08986619     0.00070596     0.00027177     0.00145596
H        -0.86453186     0.36159575     2.07607391     0.00212795     0.00175216     0.00016841
H        -1.02674818    -0.06280909    -0.83018655     0.00018010    -0.00099277    -0.00132119
     6
  Step:    27            Position(A)                                  Velocity(au)
C        -0.04090809     0.04059723    -0.35412184     0.00010031     0.00010861    -0.00076314
N        -0.04428385    -0.11546986     1.62106703    -0.00030332    -0.00025889     0.00075547
H         0.95142365     0.22531420    -0.75462100    -0.00093476     0.00121508    -0.00175329
H         0.80241951    -0.08110651     2.10716358     0.00131237     0.00034256     0.00164603
H        -0.83967162     0.38055799     2.07675562     0.00236294     0.00174307    -0.00002022
H        -1.02426405    -0.07370290    -0.84443171     0.00027911    -0.00099738    -0.00127719
     6
  Step:    28            Position(A)                                  Velocity(au)
C        -0.03983007     0.04174652    -0.36199339     0.00009509     0.00010108    -0.00067586
N        -0.04789871    -0.11832564     1.62893538    -0.00034424    -0.00026551     0.00068579
H         0.94121641     0.23893916    -0.77405710    -0.00091621     0.00127965    -0.00180064
H         0.81955882    -0.07698716     2.12587635     0.00169961     0.00040449     0.00170210
H        -0.81283801     0.39972883     2.07563163     0.00248147     0.00179979    -0.00015644
H        -1.02064211    -0.08462860    -0.85812751     0.00038564    -0.00099888    -0.00122141
     6
  Step:    29            Position(A)                                  Velocity(au)
C        -0.03882777     0.04280854    -0.36890752     0.00008713     0.00009271    -0.00058841
N        -0.05181467    -0.12127830     1.63606999    -0.00035855    -0.00027679     0.00062124
H         0.93137970     0.25330910    -0.79401344    -0.00087212     0.00135081    -0.00184610
H         0.83960170    -0.07225755     2.14440019     0.00184480     0.00045151     0.00161385
H        -0.78538475     0.41993179     2.07333326     0.00247722     0.00193734    -0.00023375
H        -1.01582737    -0.09555527    -0.87115230     0.00049436    -0.00099804    -0.00115537
     6
  Step:    30            Position(A)                                  Velocity(au)
C        -0.03792394     0.04377465    -0.37486603     0.00007788     0.00008363    -0.00050151
N        -0.05574261    -0.12438090     1.64252617    -0.00034858    -0.00029260     0.00056138
H         0.92213710     0.26849067    -0.81444413    -0.00081390     0.00142717    -0.00188426
H         0.85991734    -0.06710951     2.16118244     0.00176792     0.00047932     0.00139570
H        -0.75864408     0.44211179     2.07051789     0.00236241     0.00215904    -0.00025561
H        -1.00982695    -0.10646266    -0.88340353     0.00059953    -0.00099595    -0.00108086
     6
  Step:    31            Position(A)                                  Velocity(au)
C        -0.03712407     0.04463809    -0.37987899     0.00006893     0.00007403    -0.00041591
N        -0.05944044    -0.12767958     1.64835115    -0.00031980    -0.00031163     0.00050560
H         0.91357408     0.28453114    -0.83523525    -0.00075441     0.00150659    -0.00190844
H         0.87827836    -0.06177160     2.17493384     0.00151274     0.00048521     0.00107549
H        -0.73370241     0.46716491     2.06774131     0.00216896     0.00245038    -0.00023728
H        -1.00271152    -0.11734361    -0.89479817     0.00069543    -0.00099389    -0.00099965
     6
  Step:    32            Position(A)                                  Velocity(au)
C        -0.03641604     0.04539422    -0.38396494     0.00006180     0.00006411    -0.00033239
N        -0.06273883    -0.13119834     1.65358709    -0.00027924    -0.00033116     0.00045371
H         0.90563288     0.30145028    -0.85619495    -0.00070606     0.00158640    -0.00191144
H         0.89301135    -0.05649454     2.18471082     0.00112999     0.00046757     0.00068466
H        -0.71119391     0.49571845     2.06532684     0.00194331     0.00277724    -0.00020392
H        -0.99461308    -0.12820590    -0.90527273     0.00077677    -0.00099330    -0.00091344
     6
  Step:    33            Position(A)                                  Velocity(au)
C        -0.03577204     0.04604060    -0.38715069     0.00005776     0.00005405    -0.00025165
N        -0.06554938    -0.13492427     1.65827701    -0.00023396    -0.00034745     0.00040590
H         0.89812773     0.31923673    -0.87705155    -0.00067907     0.00166378    -0.00188627
H         0.90299897    -0.05154257     2.18991199     0.00066763     0.00042534     0.00025266
H        -0.69118884     0.52792226     2.06328010     0.00173529     0.00309083    -0.00018447
H        -0.98571814    -0.13907390    -0.91478137     0.00083907    -0.00099573    -0.00082367
     6
  Step:    34            Position(A)                                  Velocity(au)
C        -0.03515248     0.04657661    -0.38947037     0.00005764     0.00004399    -0.00017431
N        -0.06785712    -0.13879947     1.66246689    -0.00018987    -0.00035651     0.00036222
H         0.89077692     0.33784873    -0.89746065    -0.00068032     0.00173618    -0.00182695
H         0.90761703    -0.04718942     2.19023833     0.00016781     0.00035777    -0.00019463
H        -0.67323105     0.56333634     2.06129113     0.00158521     0.00333880    -0.00020362
H        -0.97625679    -0.14998934    -0.92329203     0.00087901    -0.00100275    -0.00073133
     6
  Step:    35            Position(A)                                  Velocity(au)
C        -0.03451112     0.04700288    -0.39096398     0.00006179     0.00003400    -0.00010080
N        -0.06970318    -0.14272358     1.66620136    -0.00015121    -0.00035499     0.00032216
H         0.88324440     0.35721909    -0.91701961    -0.00071275     0.00180164    -0.00172906
H         0.90667009    -0.04371557     2.18565416    -0.00033201     0.00026443    -0.00063423
H        -0.65650930     0.60096500     2.05882554     0.00151504     0.00347769    -0.00027555
H        -0.96648808    -0.16101108    -0.93078053     0.00089474    -0.00101589    -0.00063678
     6
  Step:    36            Position(A)                                  Velocity(au)
C        -0.03380072     0.04732044    -0.39167565     0.00007006     0.00002409    -0.00003144
N        -0.07116518    -0.14656552     1.66951474    -0.00012063    -0.00034083     0.00028431
H         0.87518414     0.37726311    -0.93528726    -0.00077546     0.00185897    -0.00159008
H         0.90035359    -0.04140450     2.17636335    -0.00079597     0.00014533    -0.00104438
H        -0.64008670     0.63941740     2.05526294     0.00152680     0.00348143    -0.00040202
H        -0.95668255    -0.17221397    -0.93722287     0.00088609    -0.00103650    -0.00053965
     6
  Step:    37            Position(A)                                  Velocity(au)
C        -0.03297847     0.04752988    -0.39165184     0.00008183     0.00001418     0.00003364
N        -0.07234213    -0.15017992     1.67242112    -0.00009974    -0.00031343     0.00024646
H         0.86627981     0.39788768    -0.95180560    -0.00086435     0.00190778    -0.00140939
H         0.88925670    -0.04053622     2.16280625    -0.00118648     0.00000122    -0.00140301
H        -0.62310754     0.67712802     2.05003053     0.00160711     0.00334329    -0.00057457
H        -0.94710319    -0.18368647    -0.94258644     0.00085461    -0.00106566    -0.00043876
     6
  Step:    38            Position(A)                                  Velocity(au)
C        -0.03201046     0.04763061    -0.39093964     0.00009615     0.00000414     0.00009448
N        -0.07334718    -0.15342250     1.67490647    -0.00008981    -0.00027342     0.00020586
H         0.85627484     0.41899942    -0.96612032    -0.00097307     0.00194827    -0.00118823
H         0.87439714    -0.04137786     2.14566992    -0.00146232    -0.00016617    -0.00168721
H        -0.60492817     0.71255833     2.04269312     0.00173416     0.00307222    -0.00077882
H        -0.93798638    -0.19552739    -0.94682158     0.00080352    -0.00110412    -0.00033224
     6
  Step:    39            Position(A)                                  Velocity(au)
C        -0.03087499     0.04762041    -0.38958500     0.00011180    -0.00000618     0.00015125
N        -0.07430689    -0.15616153     1.67692480    -0.00009210    -0.00022226     0.00015965
H         0.84499202     0.44050976    -0.97780047    -0.00109387     0.00198108    -0.00092963
H         0.85726555    -0.04417141     2.12589534    -0.00158002    -0.00035413    -0.00187474
H        -0.58516952     0.74433880     2.03299226     0.00188399     0.00268743    -0.00099858
H        -0.92952467    -0.20784112    -0.94985491     0.00073747    -0.00115213    -0.00021785
     6
  Step:    40            Position(A)                                  Velocity(au)
C        -0.02956457     0.04749540    -0.38763077     0.00012746    -0.00001693     0.00020435
N        -0.07536199    -0.15828492     1.67839908    -0.00010771    -0.00016191     0.00010529
H         0.83234428     0.46233939    -0.98645767    -0.00121841     0.00200724    -0.00063835
H         0.83983114    -0.04912507     2.10465634    -0.00150036    -0.00055968    -0.00194799
H        -0.56371228     0.77135096     2.02084738     0.00203455     0.00221360    -0.00121852
H        -0.92185290    -0.22073244    -0.95158745     0.00066214    -0.00120947    -0.00009341
     6
  Step:    41            Position(A)                                  Velocity(au)
C        -0.02808653     0.04725011    -0.38511438     0.00014180    -0.00002823     0.00025439
N        -0.07666322    -0.15970371     1.67922832    -0.00013684    -0.00009454     0.00004122
H         0.81833704     0.48442190    -0.99176556    -0.00133842     0.00202810    -0.00032094
H         0.82444229    -0.05641556     2.08327938    -0.00120110    -0.00078100    -0.00190026
H        -0.54065989     0.79276547     2.00633481     0.00216756     0.00167837    -0.00142549
H        -0.91503916    -0.23430052    -0.95189845     0.00058376    -0.00127527     0.00004263
     6
  Step:    42            Position(A)                                  Velocity(au)
C        -0.02646236     0.04687777    -0.38206551     0.00015362    -0.00004023     0.00030215
N        -0.07835555    -0.16035328     1.67930080    -0.00017761    -0.00002237    -0.00003274
H         0.80306383     0.50670799    -0.99347876    -0.00144644     0.00204569     0.00001456
H         0.81355471    -0.06621088     2.06308446    -0.00069335    -0.00101916    -0.00174226
H        -0.51629276     0.80806857     1.98966206     0.00226869     0.00111180    -0.00160854
H        -0.90908203    -0.24863135    -0.95065494     0.00050866    -0.00134822     0.00019078
     6
  Step:    43            Position(A)                                  Velocity(au)
C        -0.02472573     0.04637009    -0.37850437     0.00016192    -0.00005306     0.00034854
N        -0.08054880    -0.16019304     1.67851218    -0.00022519     0.00005236    -0.00011512
H         0.78669332     0.52917531    -0.99144700    -0.00153625     0.00206284     0.00035908
H         0.80927401    -0.07871154     2.04516417    -0.00003338    -0.00127867    -0.00150455
H        -0.49102798     0.81708818     1.97114502     0.00232686     0.00054718    -0.00175837
H        -0.90391122    -0.26379538    -0.94772473     0.00044273    -0.00142667     0.00035038
     6
  Step:    44            Position(A)                                  Velocity(au)
C        -0.02292011     0.04571693    -0.37444062     0.00016592    -0.00006694     0.00039454
N        -0.08328211    -0.15920787     1.67678244    -0.00027191     0.00012706    -0.00020328
H         0.76945549     0.55183665    -0.98562325    -0.00160301     0.00208311     0.00070323
H         0.81282448    -0.09418429     2.03016964     0.00068022    -0.00156506    -0.00123274
H        -0.46538823     0.82003926     1.95119436     0.00233331     0.00002255    -0.00186660
H        -0.89939642    -0.27984256    -0.94298971     0.00039089    -0.00150871     0.00051962
     6