     6
  Step:   600            Position(A)                                  Velocity(au)
C        -0.00111231     0.04902191    -0.07351809    -0.00033572    -0.00015276     0.00081644
N        -0.07263615    -0.16552583     1.41014067    -0.00016700    -0.00010411    -0.00052325
H         0.16843954    -0.80120361    -0.71395463     0.00296798    -0.00043559     0.00213618
H        -1.20849226     0.08899057     1.18910973     0.00032076     0.00230797    -0.00485696
H         0.59990171     0.49494958     1.97713257     0.00525740     0.00009832    -0.00144999
H         0.25025004     1.26395046    -0.28015644    -0.00222494     0.00129630     0.00171319
