     6
  Step:     0            Position(A)                                  Velocity(au)
C        -0.04324328    -0.00231541     0.04301527    -0.00010952    -0.00010086     0.00005850
N        -0.04343895    -0.03667078     1.27852791    -0.00000508     0.00006030     0.00002720
H         0.93266703     0.05376950    -0.53680275     0.00041117     0.00022303    -0.00009272
H         0.84379392    -0.20253891     1.90135505    -0.00006215     0.00003507    -0.00080593
H        -0.88339514    -0.08686954     1.78386942     0.00015708    -0.00031321    -0.00031054
H        -0.98707104     0.10304111    -0.53582627     0.00086961     0.00041908     0.00013409
     6
  Step:     1            Position(A)                                  Velocity(au)
C        -0.04436070    -0.00342126     0.04248397    -0.00009291    -0.00010182    -0.00015265
N        -0.04318610    -0.03601938     1.27985751     0.00005054     0.00005945     0.00021244
H         0.93665981     0.05636249    -0.53807726     0.00031271     0.00025028    -0.00013385
H         0.84105575    -0.20198476     1.89106426    -0.00041949     0.00006259    -0.00105605
H        -0.88424273    -0.09056917     1.78243976    -0.00031404    -0.00036600     0.00005061
H        -0.97767568     0.10771962    -0.53497723     0.00082572     0.00044042     0.00000612
     6
  Step:     2            Position(A)                                  Velocity(au)
C        -0.04527588    -0.00454297     0.03967566    -0.00007312    -0.00010389    -0.00035218
N        -0.04233334    -0.03537027     1.28317550     0.00010127     0.00006005     0.00038655
H         0.93950824     0.05924493    -0.53973103     0.00020674     0.00027604    -0.00016479
H         0.83461680    -0.20116965     1.87825195    -0.00072121     0.00007947    -0.00125370
H        -0.89026537    -0.09487641     1.78497660    -0.00075851    -0.00042211     0.00039474
H        -0.96900683     0.11267623    -0.53569229     0.00073705     0.00047013    -0.00015134
     6
  Step:     3            Position(A)                                  Velocity(au)
C        -0.04596035    -0.00569402     0.03477929    -0.00005135    -0.00010725    -0.00052988
N        -0.04097061    -0.03470567     1.28831412     0.00014063     0.00006246     0.00054158
H         0.94118258     0.06240131    -0.54168244     0.00010222     0.00030053    -0.00019072
H         0.82527797    -0.20024612     1.86363717    -0.00093014     0.00007846    -0.00137197
H        -0.90083660    -0.09980357     1.79107542    -0.00112064    -0.00047707     0.00068631
H        -0.96155127     0.11800452    -0.53828806     0.00060637     0.00050821    -0.00033555
     6
  Step:     4            Position(A)                                  Velocity(au)
C        -0.04639932    -0.00688923     0.02808356    -0.00002890    -0.00011195    -0.00067815
N        -0.03925690    -0.03400395     1.29502354     0.00016293     0.00006703     0.00067075
H         0.94174450     0.06581958    -0.54390337     0.00000674     0.00032416    -0.00021610
H         0.81426815    -0.19945311     1.84823743    -0.00100728     0.00005130    -0.00138499
H        -0.91478150    -0.10531317     1.79999085    -0.00136029    -0.00052674     0.00090127
H        -0.95574135     0.12379437    -0.54303301     0.00044110     0.00055388    -0.00054033
     6
  Step:     5            Position(A)                                  Velocity(au)
C        -0.04659251    -0.00814318     0.01994354    -0.00000711    -0.00011791    -0.00079260
N        -0.03740622    -0.03323922     1.30298800     0.00016423     0.00007415     0.00076916
H         0.94133011     0.06949285    -0.54641000    -0.00007377     0.00034744    -0.00024448
H         0.80324173    -0.19912374     1.83333780    -0.00091880    -0.00001006    -0.00127320
H        -0.93059558    -0.11132712     1.81079238    -0.00145815    -0.00056815     0.00102993
H        -0.95190137     0.13012174    -0.55010883     0.00025335     0.00060536    -0.00075620
     6
  Step:     6            Position(A)                                  Velocity(au)
C        -0.04655482    -0.00946863     0.01074394     0.00001264    -0.00012488    -0.00087206
N        -0.03566415    -0.03238174     1.31185046     0.00014312     0.00008406     0.00083452
H         0.94013068     0.07342056    -0.54925184    -0.00013523     0.00037097    -0.00027836
H         0.79416754    -0.19967321     1.82038378    -0.00064837    -0.00011106    -0.00103122
H        -0.94668137    -0.11774252     1.82252247    -0.00141475    -0.00059982     0.00107540
H        -0.95019890     0.13703779    -0.55957640     0.00005896     0.00065993    -0.00097109
     6
  Step:     7            Position(A)                                  Velocity(au)
C        -0.04631605    -0.01087506     0.00086552     0.00002906    -0.00013253    -0.00091807
N        -0.03427519    -0.03140035     1.32124472     0.00010148     0.00009664     0.00086760
H         0.93837179     0.07760856    -0.55249974    -0.00017547     0.00039527    -0.00031914
H         0.78905750    -0.20155333     1.81077783    -0.00021112    -0.00025130    -0.00067546
H        -0.96154590    -0.12444941     1.83431876    -0.00124549    -0.00062181     0.00104958
H        -0.95061151     0.14455904    -0.57135330    -0.00012442     0.00071416    -0.00117173
     6
  Step:     8            Position(A)                                  Velocity(au)
C        -0.04591902    -0.01236789    -0.00934063     0.00004905    -0.00013220    -0.00105957
N        -0.03344400    -0.03026756     1.33083090     0.00004039     0.00010841     0.00097157
H         0.93629184     0.08206789    -0.55623361    -0.00029208     0.00041508    -0.00027146
H         0.78954892    -0.20517096     1.80560685     0.00029796    -0.00044701    -0.00030071
H        -0.97392886    -0.13134588     1.84548404    -0.00090965    -0.00059683     0.00094216
H        -0.95292082     0.15266142    -0.58521016    -0.00024195     0.00069757    -0.00124547
     6
  Step:     9            Position(A)                                  Velocity(au)
C        -0.04524306    -0.01376720    -0.02231462     0.00007130    -0.00012319    -0.00129228
N        -0.03339147    -0.02902860     1.34249976    -0.00003238     0.00011817     0.00114532
H         0.93198195     0.08668927    -0.55843835    -0.00047379     0.00041122    -0.00014571
H         0.79557589    -0.21133244     1.80419923     0.00080425    -0.00066350     0.00004578
H        -0.98144615    -0.13750622     1.85493033    -0.00044249    -0.00054364     0.00077328
H        -0.95590460     0.15981977    -0.59860037    -0.00028749     0.00062172    -0.00119035
     6
  Step:    10            Position(A)                                  Velocity(au)
C        -0.04435921    -0.01506284    -0.03761170     0.00008655    -0.00011332    -0.00148281
N        -0.03415246    -0.02768230     1.35588706    -0.00010372     0.00012749     0.00128601
H         0.92592685     0.09106417    -0.55942124    -0.00060063     0.00038330    -0.00005382
H         0.80714338    -0.21968639     1.80660827     0.00126921    -0.00085157     0.00037356
H        -0.98360926    -0.14323897     1.86240093     0.00004686    -0.00050885     0.00059470
H        -0.95921018     0.16626263    -0.61125135    -0.00030533     0.00055579    -0.00111605
     6
  Step:    11            Position(A)                                  Velocity(au)
C        -0.04334960    -0.01624619    -0.05475388     0.00009373    -0.00010275    -0.00163042
N        -0.03566063    -0.02623947     1.37063358    -0.00016503     0.00013534     0.00139554
H         0.91884212     0.09507462    -0.55961575    -0.00065233     0.00034905    -0.00000683
H         0.82334226    -0.22996222     1.81237159     0.00161821    -0.00100950     0.00064284
H        -0.98042096    -0.14863832     1.86794058     0.00051428    -0.00048252     0.00043166
H        -0.96258438     0.17197882    -0.62301607    -0.00030374     0.00048668    -0.00103254
     6
  Step:    12            Position(A)                                  Velocity(au)
C        -0.04230864    -0.01731068    -0.07328018     0.00009190    -0.00009170    -0.00173783
N        -0.03776272    -0.02472150     1.38641723    -0.00020938     0.00014101     0.00147750
H         0.91165580     0.09870035    -0.55957068    -0.00061197     0.00031544    -0.00001343
H         0.84254484    -0.24177117     1.82067158     0.00180071    -0.00112736     0.00083071
H        -0.97235850    -0.15379505     1.87184438     0.00091584    -0.00046689     0.00030652
H        -0.96585518     0.17690961    -0.63384021    -0.00028995     0.00041203    -0.00094769
     6
  Step:    13            Position(A)                                  Velocity(au)
C        -0.04133905    -0.01825232    -0.09277222     0.00008069    -0.00008040    -0.00180953
N        -0.04024131    -0.02315456     1.40295680    -0.00023209     0.00014439     0.00153532
H         0.90545414     0.10197556    -0.55990963    -0.00046964     0.00028645    -0.00007758
H         0.86273617    -0.25462538     1.83054504     0.00179735    -0.00119895     0.00093230
H        -0.96038522    -0.15885244     1.87464620     0.00120696    -0.00046809     0.00024059
H        -0.96892761     0.18099268    -0.64374860    -0.00027091     0.00033210    -0.00086828
     6
  Step:    14            Position(A)                                  Velocity(au)
C        -0.04054339    -0.01906949    -0.11286711     0.00006072    -0.00006903    -0.00185083
N        -0.04284009    -0.02156260     1.42000534    -0.00023068     0.00014599     0.00157176
H         0.90138146     0.10496697    -0.56126798    -0.00022725     0.00026392    -0.00019650
H         0.88186527    -0.26800039     1.84106748     0.00161710    -0.00122392     0.00095654
H        -0.94595395    -0.16403549     1.87710781     0.00134555    -0.00049429     0.00025286
H        -0.97178185     0.18417501    -0.65283551    -0.00025327     0.00024813    -0.00080008
     6
  Step:    15            Position(A)                                  Velocity(au)
C        -0.04001062    -0.01976243    -0.13326257     0.00003394    -0.00005770    -0.00186715
N        -0.04528791    -0.01996071     1.43734197    -0.00020489     0.00014674     0.00158895
H         0.90048262     0.10774925    -0.56420847     0.00009787     0.00024719    -0.00035983
H         0.89811339    -0.28140098     1.85147124     0.00128814    -0.00120690     0.00091988
H        -0.93094873    -0.16966592     1.88017793     0.00130004    -0.00055388     0.00035602
H        -0.97446837     0.18642104    -0.66125179    -0.00024315     0.00016194    -0.00074766
     6
  Step:    16            Position(A)                                  Velocity(au)
C        -0.03980088    -0.02033169    -0.15371451     0.00000359    -0.00004632    -0.00186346
N        -0.04732253    -0.01835228     1.45476660    -0.00015680     0.00014769     0.00158876
H         0.90352259     0.11037464    -0.56913998     0.00047256     0.00023305    -0.00055052
H         0.91004577    -0.29440357     1.86119151     0.00084827    -0.00115583     0.00084086
H        -0.91751308    -0.17615276     1.88489652     0.00106124    -0.00065297     0.00055108
H        -0.97710116     0.18771779    -0.66919201    -0.00024582     0.00007536    -0.00071436
     6
  Step:    17            Position(A)                                  Velocity(au)
C        -0.03993203    -0.02077571    -0.17402922    -0.00002619    -0.00003465    -0.00184387
N        -0.04871828    -0.01672968     1.47209907    -0.00009120     0.00014963     0.00157324
H         0.91082087     0.11284766    -0.57625217     0.00085234     0.00021637    -0.00074788
H         0.91667101    -0.30668698     1.86986668     0.00033848    -0.00108068     0.00073714
H        -0.90773211    -0.18395089     1.89223393     0.00065394    -0.00079199     0.00082225
H        -0.97984609     0.18806976    -0.67687983    -0.00026523    -0.00001008    -0.00070211
     6
  Step:    18            Position(A)                                  Velocity(au)
C        -0.04037390    -0.02108967    -0.19405280    -0.00005121    -0.00002237    -0.00181178
N        -0.04931770    -0.01507888     1.48918417    -0.00001562     0.00015285     0.00154517
H         0.92216910     0.11510819    -0.58550125     0.00119025     0.00019132    -0.00093212
H         0.91745073    -0.31804546     1.87731790    -0.00020007    -0.00099252     0.00062444
H        -0.90320679    -0.19347896     1.90288489     0.00014059    -0.00096296     0.00113603
H        -0.98290350     0.18749736    -0.68455191    -0.00030341    -0.00009319    -0.00071127
     6
  Step:    19            Position(A)                                  Velocity(au)
C        -0.04105245    -0.02126516    -0.21366543    -0.00006808    -0.00000921    -0.00177002
N        -0.04905992    -0.01338588     1.50590254     0.00006045     0.00015711     0.00150807
H         0.93685992     0.11703314    -0.59664418     0.00144664     0.00015297    -0.00108822
H         0.91229416    -0.32840018     1.88352749    -0.00072639    -0.00090365     0.00051689
H        -0.90465650    -0.20501750     1.91708671    -0.00038911    -0.00114935     0.00144694
H        -0.98648377     0.18603098    -0.69244014    -0.00035991    -0.00017343    -0.00074058
     6
  Step:    20            Position(A)                                  Velocity(au)
C        -0.04186320    -0.02129109    -0.23277546    -0.00007481     0.00000503    -0.00172086
N        -0.04799526    -0.01164183     1.52217600     0.00012714     0.00016192     0.00146543
H         0.95381711     0.11845477    -0.60930809     0.00159595     0.00009850    -0.00120782
H         0.90155965    -0.33781460     1.88862587    -0.00119889    -0.00082812     0.00042785
H        -0.91171921    -0.21862321     1.93453955    -0.00084098    -0.00132935     0.00170887
H        -0.99077720     0.18370321    -0.70075358    -0.00043139    -0.00025099    -0.00078719
     6
  Step:    21            Position(A)                                  Velocity(au)
C        -0.04268902    -0.02115518    -0.25131251    -0.00007106     0.00002037    -0.00166596
N        -0.04627850    -0.00984355     1.53796158     0.00017606     0.00016697     0.00141984
H         0.97177444     0.11918795    -0.62306763     0.00162884     0.00002750    -0.00128911
H         0.88606624    -0.34651684     1.89288748    -0.00157538    -0.00078200     0.00037033
H        -0.92305448    -0.23409954     1.95447146    -0.00114160    -0.00148159     0.00188669
H        -0.99592118     0.18054010    -0.70966152    -0.00051163    -0.00032676    -0.00084685
     6
  Step:    22            Position(A)                                  Velocity(au)
C        -0.04341774    -0.02084552    -0.26922150    -0.00005787     0.00003672    -0.00160653
N        -0.04414364    -0.00798914     1.55323765     0.00020155     0.00017245     0.00137255
H         0.98945115     0.11905641    -0.63750986     0.00154983    -0.00005837    -0.00133502
H         0.86709518    -0.35492228     1.89672745    -0.00181533    -0.00078296     0.00035654
H        -0.93669397    -0.25103593     1.97581461    -0.00125358    -0.00159036     0.00196295
H        -1.00197014     0.17655467    -0.71928015    -0.00059209    -0.00040223    -0.00091436
     6
  Step:    23            Position(A)                                  Velocity(au)
C        -0.04395499    -0.02035178    -0.28645850    -0.00003722     0.00005392    -0.00154347
N        -0.04186926    -0.00607095     1.56798867     0.00020116     0.00017911     0.00132367
H         1.00568002     0.11791109    -0.65227382     0.00137302    -0.00015603    -0.00135124
H         0.84635253    -0.36364570     1.90068737    -0.00188593    -0.00084829     0.00039593
H        -0.95047904    -0.26889172     1.99741470    -0.00117603    -0.00164803     0.00193736
H        -1.00887429     0.17174059    -0.72966491    -0.00066290    -0.00047903    -0.00098413
     6
  Step:    24            Position(A)                                  Velocity(au)
C        -0.04423197    -0.01966590    -0.30298796    -0.00001156     0.00007173    -0.00147748
N        -0.03974285    -0.00407085     1.58219544     0.00017566     0.00018787     0.00127280
H         1.01948853     0.11564285    -0.66707081     0.00111756    -0.00026177    -0.00134444
H         0.82583676    -0.37348016     1.90538908    -0.00177195    -0.00099051     0.00049185
H        -0.96242189    -0.28708980     2.01819812    -0.00093460    -0.00165454     0.00182181
H        -1.01647240     0.16607494    -0.74080993    -0.00071422    -0.00055859    -0.00105083
     6
  Step:    25            Position(A)                                  Velocity(au)
C        -0.04420779    -0.01878258    -0.31878117     0.00001661     0.00008988    -0.00140911
N        -0.03802646    -0.00196089     1.59583361     0.00012883     0.00019926     0.00121974
H         1.03012877     0.11218447    -0.68168601     0.00080441    -0.00037178    -0.00132123
H         0.80758768    -0.38531504     1.91144753    -0.00148611    -0.00121136     0.00063793
H        -0.97092527    -0.30508785     2.03727029    -0.00056891    -0.00161502     0.00163430
H        -1.02449922     0.15952039    -0.75265387    -0.00073751    -0.00064190    -0.00110993
     6
  Step:    26            Position(A)                                  Velocity(au)
C        -0.04386870    -0.01769954    -0.33381486     0.00004491     0.00010810    -0.00133880
N        -0.03692437     0.00028845     1.60887948     0.00006724     0.00021282     0.00116494
H         1.03708657     0.10750946    -0.69597517     0.00045461    -0.00048254    -0.00128774
H         0.79332529    -0.39998098     1.91934510    -0.00107482    -0.00149615     0.00081606
H        -0.97486796    -0.32242140     2.05395146    -0.00012267    -0.00153758     0.00139443
H        -1.03260692     0.15203218    -0.76509173    -0.00072659    -0.00072927    -0.00115806
     6
  Step:    27            Position(A)                                  Velocity(au)
C        -0.04322525    -0.01641771    -0.34806992     0.00007130     0.00012608    -0.00126686
N        -0.03655550     0.00269504     1.62131896    -0.00000064     0.00022691     0.00110959
H         1.04007416     0.10162803    -0.70985771     0.00008854    -0.00059090    -0.00124958
H         0.78407395    -0.41804616     1.92930029    -0.00061259    -0.00181248     0.00099829
H        -0.97360892    -0.33872539     2.06777620     0.00036161    -0.00143181     0.00112118
H        -1.04039483     0.14356611    -0.77798875    -0.00067820    -0.00082030    -0.00119319
     6
  Step:    28            Position(A)                                  Velocity(au)
C        -0.04230892    -0.01494135    -0.36152993     0.00009400     0.00014351    -0.00119347
N        -0.03693836     0.00525249     1.63315394    -0.00006576     0.00023905     0.00105513
H         1.03902365     0.09458245    -0.72331209    -0.00027386    -0.00069415    -0.00121205
H         0.77992379    -0.43963236     1.94118456    -0.00018426    -0.00211572     0.00115319
H        -0.96695704    -0.35374488     2.07847937     0.00084415    -0.00130827     0.00083234
H        -1.04744395     0.13408652    -0.79119511    -0.00059224    -0.00091390    -0.00121455
     6
  Step:    29            Position(A)                                  Velocity(au)
C        -0.04116888    -0.01327806    -0.37417939     0.00011152     0.00016012    -0.00111863
N        -0.03799409     0.00792479     1.64440201    -0.00012013     0.00024680     0.00100266
H         1.03408296     0.08644207    -0.73637368    -0.00061292    -0.00079008    -0.00118038
H         0.78004284    -0.46433157     1.95452859     0.00013764    -0.00236006     0.00125399
H        -0.95514144    -0.36734624     2.08598514     0.00128735    -0.00117883     0.00054508
H        -1.05335117     0.12357277    -0.80455926    -0.00047152    -0.00100851    -0.00122245
     6
  Step:    30            Position(A)                                  Velocity(au)
C        -0.03986912    -0.01143848    -0.38600202     0.00012263     0.00017563    -0.00104219
N        -0.03956648     0.01065162     1.65508906    -0.00015798     0.00024853     0.00095243
H         1.02561482     0.07729792    -0.74913508    -0.00090900    -0.00087697    -0.00115988
H         0.78293493    -0.49126311     1.96861809     0.00030986    -0.00250994     0.00128481
H        -0.93879389    -0.37953415     2.09040399     0.00165473    -0.00105722     0.00027657
H        -1.05775940     0.11202350    -0.81793857    -0.00032136    -0.00110228    -0.00121807
     6
  Step:    31            Position(A)                                  Velocity(au)
C        -0.03848616    -0.00943592    -0.39697918     0.00012627     0.00018983    -0.00096388
N        -0.04145028     0.01336191     1.66523818    -0.00017606     0.00024401     0.00090372
H         1.01419682     0.06725656    -0.76174817    -0.00114270    -0.00095377    -0.00115605
H         0.78682158    -0.51924123     1.98263617     0.00032265    -0.00254664     0.00124230
H        -0.91894102    -0.39047489     2.09203556     0.00191100    -0.00095918     0.00004403
H        -1.06038161     0.09945829    -0.83120692    -0.00014896    -0.00119333    -0.00120313
     6
  Step:    32            Position(A)                                  Velocity(au)
C        -0.03710677    -0.00728551    -0.40708876     0.00012167     0.00020262    -0.00088338
N        -0.04341804     0.01598989     1.67485974    -0.00017328     0.00023428     0.00085514
H         1.00061607     0.05643238    -0.77442580    -0.00129606    -0.00102020    -0.00117427
H         0.78999348    -0.54697584     1.99579588     0.00019297    -0.00246829     0.00113330
H        -0.89698706    -0.40051808     2.09136714     0.00202421    -0.00090170    -0.00013636
H        -1.06101822     0.08591715    -0.84425933     0.00003710    -0.00127989    -0.00117969
     6
  Step:    33            Position(A)                                  Velocity(au)
C        -0.03582438    -0.00500316    -0.41630476     0.00010848     0.00021399    -0.00080035
N        -0.04524116     0.01848728     1.68394605    -0.00015035     0.00022116     0.00080509
H         0.98584307     0.04493778    -0.78743753    -0.00135471    -0.00107696    -0.00121914
H         0.79104318    -0.57323977     2.00742935    -0.00004683    -0.00228543     0.00097056
H        -0.87465764    -0.41020133     2.08905242     0.00197098    -0.00090025    -0.00025211
H        -1.05956991     0.07145828    -0.85701496     0.00022728    -0.00136046    -0.00115004
     6
  Step:    34            Position(A)                                  Velocity(au)
C        -0.03473364    -0.00260417    -0.42459803     0.00008698     0.00022404    -0.00071463
N        -0.04670716     0.02082814     1.69247252    -0.00010951     0.00020651     0.00075233
H         0.97097923     0.03287190    -0.80109687    -0.00131117    -0.00112576    -0.00129330
H         0.78896903    -0.59697405     2.01702877    -0.00035908    -0.00201569     0.00076900
H        -0.85386807    -0.42021280     2.08585178     0.00174420    -0.00096401    -0.00029831
H        -1.05604594     0.05615448    -0.86941860     0.00041147    -0.00143393    -0.00111652
     6
  Step:    35            Position(A)                                  Velocity(au)
C        -0.03392162    -0.00010178    -0.43193856     0.00005838     0.00023304    -0.00062629
N        -0.04763687     0.02300507     1.70040463    -0.00005468     0.00019153     0.00069644
H         0.95715879     0.02030957    -0.81573093    -0.00116853    -0.00116915    -0.00139581
H         0.78318769    -0.61733695     2.02425278    -0.00070695    -0.00167966     0.00054339
H        -0.83649991    -0.43129094     2.08252637     0.00136035    -0.00109001    -0.00028126
H        -1.05056813     0.04008834    -0.88144089     0.00057942    -0.00149966    -0.00108144
     6
  Step:    36            Position(A)                                  Velocity(au)
C        -0.03345642     0.00249406    -0.43829939     0.00002500     0.00024130    -0.00053588
N        -0.04790347     0.02501826     1.70770857     0.00000852     0.00017629     0.00063797
H         0.94541543     0.00729454    -0.83163299    -0.00094306    -0.00120989    -0.00152071
H         0.77350315    -0.63371989     2.02891640    -0.00105676    -0.00129896     0.00030746
H        -0.82410783    -0.44405875     2.07969861     0.00086241    -0.00125876    -0.00021969
H        -1.04337009     0.02334652    -0.89307719     0.00072121    -0.00155756    -0.00104694
     6
  Step:    37            Position(A)                                  Velocity(au)
C        -0.03337463     0.00517716    -0.44366204    -0.00000984     0.00024915    -0.00044442
N        -0.04745057     0.02686185     1.71436145     0.00007319     0.00015979     0.00057814
H         0.93652747    -0.00615908    -0.84899940    -0.00066397    -0.00125013    -0.00165628
H         0.76006899    -0.64575408     2.03097898    -0.00137781    -0.00089604     0.00007407
H        -0.81763310    -0.45882871     2.07772024     0.00031421    -0.00143504    -0.00014144
H        -1.03479035     0.00601363    -0.90434462     0.00082792    -0.00160810    -0.00101475
     6
  Step:    38            Position(A)                                  Velocity(au)
C        -0.03367177     0.00794467    -0.44802183    -0.00004227     0.00025683    -0.00035334
N        -0.04630240     0.02851394     1.72035648     0.00013206     0.00014051     0.00051832
H         0.93088990    -0.02005437    -0.86786730    -0.00036916    -0.00129047    -0.00178595
H         0.74336094    -0.65332238     2.03053692    -0.00164121    -0.00049497    -0.00014426
H        -0.81723398    -0.47545300     2.07660432    -0.00021347    -0.00157515    -0.00007621
H        -1.02525770    -0.01183379    -0.91527672     0.00089252    -0.00165223    -0.00098593
     6
  Step:    39            Position(A)                                  Velocity(au)
C        -0.03429941     0.01079573    -0.45139213    -0.00006853     0.00026443    -0.00026438
N        -0.04456158     0.02993567     1.72570073     0.00017862     0.00011732     0.00045940
H         0.92845139    -0.03439050    -0.88807039    -0.00009812    -0.00132949    -0.00189072
H         0.72416432    -0.65658253     2.02782296    -0.00181886    -0.00012231    -0.00033497
H        -0.82230326    -0.49328808     2.07605297    -0.00065944    -0.00163824    -0.00004743
H        -1.01526474    -0.03013205    -0.92591371     0.00091093    -0.00169122    -0.00096043
     6
  Step:    40            Position(A)                                  Velocity(au)
C        -0.03517098     0.01372961    -0.45380572    -0.00008575     0.00027189    -0.00017924
N        -0.04239477     0.03108058     1.73040664     0.00020799     0.00009026     0.00040137
H         0.92874338    -0.04913956    -0.90923051     0.00011597    -0.00136394    -0.00195264
H         0.70356985    -0.65599821     2.02320878    -0.00188335     0.00019279    -0.00048537
H        -0.83166053    -0.51129258     2.07556668    -0.00098409    -0.00159655    -0.00006713
H        -1.00532941    -0.04883255    -0.93628802     0.00088304    -0.00172638    -0.00093667
     6
  Step:    41            Position(A)                                  Velocity(au)
C        -0.03617534     0.01674393    -0.45531334    -0.00009247     0.00027900    -0.00009937
N        -0.04001143     0.03191022     1.73448150     0.00021729     0.00006068     0.00034343
H         0.93098836    -0.06422939    -0.93078807     0.00025168    -0.00138947    -0.00195788
H         0.68296253    -0.65236496     2.01720463    -0.00180993     0.00042042    -0.00058356
H        -0.84383206    -0.52821565     2.07458431    -0.00117261    -0.00144007    -0.00013559
H        -0.99594660    -0.06790002    -0.94640517     0.00081329    -0.00175862    -0.00091127
     6
  Step:    42            Position(A)                                  Velocity(au)
C        -0.03719392     0.01983321    -0.45597973    -0.00008877     0.00028541    -0.00002583
N        -0.03764121     0.03240809     1.73791979     0.00020567     0.00003088     0.00028431
H         0.93424938    -0.07953691    -0.95206283     0.00030119    -0.00140163    -0.00189879
H         0.66397418    -0.64680065     2.01044230    -0.00158132     0.00053472    -0.00062059
H        -0.85731363    -0.54279679     2.07260043    -0.00123066    -0.00117511    -0.00024462
H        -0.98753710    -0.08730572    -0.95622368     0.00071053    -0.00178801    -0.00087915
     6
  Step:    43            Position(A)                                  Velocity(au)
C        -0.03811728     0.02298778    -0.45587832    -0.00007603     0.00029070     0.00004083
N        -0.03551202     0.03258580     1.74070127     0.00017429     0.00000314     0.00022285
H         0.93757756    -0.09489271    -0.97232773     0.00026830    -0.00139668    -0.00177409
H         0.64836817    -0.64066684     2.00362806    -0.00119483     0.00052192    -0.00059334
H        -0.87075504    -0.55392336     2.06923279    -0.00117664    -0.00081936    -0.00038192
H        -0.98040237    -0.10701606    -0.96563821     0.00058714    -0.00181349    -0.00083401
     6
  Step:    44            Position(A)                                  Velocity(au)
C        -0.03885712     0.02619292    -0.45508652    -0.00005648     0.00029440     0.00010044
N        -0.03382825     0.03247676     1.74279506     0.00012633    -0.00002127     0.00015848
H         0.94011896    -0.11009194    -0.99087435     0.00016469    -0.00137204    -0.00158789
H         0.63783492    -0.63538266     1.99746185    -0.00066975     0.00038905    -0.00050745
H        -0.88305486    -0.56072184     2.06424514    -0.00103475    -0.00039662    -0.00053460
H        -0.97469223    -0.12697933    -0.97446917     0.00045738    -0.00183282    -0.00076921
     6