    14
  Step:   600            Position(A)                                  Velocity(au)
C        -5.81046669    -0.75765839     0.33848760     0.00023637     0.00004930    -0.00003116
C        -4.55631928    -0.66952088    -0.24717556    -0.00088748    -0.00002404     0.00024582
H        -5.95332694    -1.62574602     0.75820532     0.00163419    -0.00248481    -0.00102240
H        -6.68161944    -0.10449180     0.49309119    -0.00031455    -0.00062045     0.00048271
H        -4.10120805    -1.75954080    -0.43871658     0.00257913     0.00115486     0.00181749
C        -3.95271453     0.60891933    -0.27177378    -0.00038639    -0.00044330    -0.00024806
C        -2.67839270     0.49935051     0.16880292     0.00032620     0.00060430    -0.00039461
H        -4.14411586     1.55760996    -0.72742512     0.00018311    -0.00175268     0.00164783
H        -2.34673467    -0.41763459     0.84259175     0.00146503     0.00059626     0.00028914
C        -1.89262323     1.64993556     0.11911516     0.00003825     0.00079276    -0.00043473
H        -2.35986285     2.54930968    -0.31264165     0.00167307     0.00123384     0.00037506
N        -0.65055222     1.67222980     0.20380672    -0.00000306    -0.00056676     0.00040674
H        -0.15904124     2.56337325     0.01935144     0.00111921    -0.00200684     0.00191915
H        -0.08692618     0.77968800     0.26657312    -0.00027669     0.00008974    -0.00088063
