 Fermi distribution function

Calculation with static geometry


********************************************************************************
 iSCC Total electronic   Diff electronic      SCC error    
   11   -0.54105022E+01   -0.63948846E-13    0.20800508E-08
********************************************************************************

 Total charge:     1.00000000

 Atomic gross charges (e)
 Atom           Charge
    1       0.24998318
    2      -0.13362992
    3       0.15818408
    4       0.26780652
    5       0.30495443
    6       0.15270172

Nr. of electrons (up):     12.00000000
Atom populations (up)
 Atom       Population
    1       3.75001682
    2       5.13362992
    3       0.84181592
    4       0.73219348
    5       0.69504557
    6       0.84729828

l-shell populations (up)
 Atom Sh.   l       Population
    1   1   0       1.28548620
    1   2   1       2.46453063
    2   1   0       1.41200808
    2   2   1       3.72162185
    3   1   0       0.84181592
    4   1   0       0.73219348
    5   1   0       0.69504557
    6   1   0       0.84729828

Orbital populations (up)
 Atom Sh.   l   m       Population  Label
    1   1   0   0       1.28548620  s
    1   2   1  -1       0.57034865  p_y
    1   2   1   0       0.90615969  p_z
    1   2   1   1       0.98802228  p_x
    2   1   0   0       1.41200808  s
    2   2   1  -1       1.31261836  p_y
    2   2   1   0       1.13312835  p_z
    2   2   1   1       1.27587513  p_x
    3   1   0   0       0.84181592  s
    4   1   0   0       0.73219348  s
    5   1   0   0       0.69504557  s
    6   1   0   0       0.84729828  s

Fermi level:                        -0.4861823589 H          -13.2297 eV
Band energy:                        -8.9343638299 H         -243.1164 eV
TS:                                  0.0000000000 H            0.0000 eV
Band free energy (E-TS):            -8.9343638299 H         -243.1164 eV
Extrapolated E(0K):                 -8.9343638299 H         -243.1164 eV
Input / Output electrons (q):     12.0000000000     12.0000000000

Energy H0:                          -5.5456254708 H         -150.9041 eV
Energy SCC:                          0.1351232246 H            3.6769 eV
Total Electronic energy:            -5.4105022462 H         -147.2273 eV
Repulsive energy:                    0.2143601283 H            5.8330 eV
Total energy:                       -5.1961421178 H         -141.3942 eV
Extrapolated to 0:                  -5.1961421178 H         -141.3942 eV
Total Mermin free energy:           -5.1961421178 H         -141.3942 eV
Force related energy:               -5.1961421178 H         -141.3942 eV

SCC converged

Excitation Energy:                   0.1053730822 H            2.8673 eV

Total Forces
    1      0.021228695459     -0.006085410927     -0.038671187716
    2     -0.008253671789     -0.014417183059      0.032657475132
    3     -0.008041990032     -0.004519412674     -0.001521923828
    4     -0.007539109987      0.017129609851     -0.003190839239
    5      0.004491389535     -0.006902567211      0.006426110226
    6     -0.001885313186      0.014794964019      0.004300365425

Maximal derivative component:        0.386712E-01 au


