|===============================================================================
|
|  DFTB+ release 20.1
|
|  Copyright (C) 2006 - 2020  DFTB+ developers group
|
|===============================================================================
|
|  When publishing results obtained with DFTB+, please cite the following
|  reference:
|
|  * DFTB+, a software package for efficient approximate density functional
|    theory based atomistic simulations, J. Chem. Phys. 152, 124101 (2020).
|    [doi: 10.1063/1.5143190]
|
|  You should also cite additional publications crediting the parametrization
|  data you use. Please consult the documentation of the SK-files for the
|  references.
|
|===============================================================================

Reading input file 'dftb_in.hsd'
Parser version: 8

--------------------------------------------------------------------------------
Reading SK-files:
Done.


Processed input in HSD format written to 'dftb_pin.hsd'

Starting initialization...
--------------------------------------------------------------------------------
WARNING!
-> Excited state forces are not implemented yet for fractional occupations, kT=  0.3158E-02K
OpenMP threads:              1
Chosen random seed:          506121472
Mode:                        Static calculation
Self consistent charges:     Yes
SCC-tolerance:                 0.100000E-05
Max. scc iterations:                    100
Shell resolved Hubbard:      No
Spin polarisation:           No
Nr. of up electrons:             6.000000
Nr. of down electrons:           6.000000
Periodic boundaries:         No
Electronic solver:           Relatively robust
Mixer:                       Broyden mixer
Mixing parameter:                  0.200000
Maximal SCC-cycles:                     100
Nr. of chrg. vec. in memory:              0
Electronic temperature:        0.100000E-07 H      0.272114E-06 eV
Initial charges:             Set automatically (system chrg:   0.100E+01)
Included shells:             C:  s, p
                             N:  s, p
                             H:  s
Extra options:
                             Mulliken analysis
                             Force calculation
Force type                   original
                             Eigenvector printing

--------------------------------------------------------------------------------

***  Geometry step: 0

 iSCC Total electronic   Diff electronic      SCC error    
    1   -0.54010527E+01    0.00000000E+00    0.78104915E+00
    2   -0.54062512E+01   -0.51984942E-02    0.53771245E+00
    3   -0.54101917E+01   -0.39405637E-02    0.72108133E-01
    4   -0.54102886E+01   -0.96887053E-04    0.73497349E-01
    5   -0.54104990E+01   -0.21039477E-03    0.13866925E-01
    6   -0.54105020E+01   -0.30414825E-05    0.34529912E-02
    7   -0.54105022E+01   -0.20805082E-06    0.13820102E-03
    8   -0.54105022E+01   -0.74007556E-09    0.69472367E-04
    9   -0.54105022E+01   -0.16887736E-09    0.14106339E-05
   10   -0.54105022E+01   -0.31086245E-13    0.12211260E-05
   11   -0.54105022E+01   -0.63948846E-13    0.20800508E-08
>> Charges saved for restart in charges.bin

Total Energy:                       -5.0907690356 H         -138.5269 eV
Extrapolated to 0:                  -5.1961421178 H         -141.3942 eV
Total Mermin free energy:           -5.0907690356 H         -138.5269 eV
Force related energy:               -5.1961421178 H         -141.3942 eV

--------------------------------------------------------------------------------
DFTB+ running times                          cpu [s]             wall clock [s]
--------------------------------------------------------------------------------
Global initialisation                  +     0.00  (  3.2%)      0.01  (  9.1%)
SCC                                    +     0.01  ( 58.2%)      0.08  ( 75.5%)
Post-SCC processing                    +     0.01  ( 35.9%)      0.02  ( 14.5%)
--------------------------------------------------------------------------------
Missing                                +     0.00  (  2.7%)      0.00  (  0.9%)
Total                                  =     0.02  (100.0%)      0.11  (100.0%)
--------------------------------------------------------------------------------
