|===============================================================================
|
|  DFTB+ release 20.1
|
|  Copyright (C) 2006 - 2020  DFTB+ developers group
|
|===============================================================================
|
|  When publishing results obtained with DFTB+, please cite the following
|  reference:
|
|  * DFTB+, a software package for efficient approximate density functional
|    theory based atomistic simulations, J. Chem. Phys. 152, 124101 (2020).
|    [doi: 10.1063/1.5143190]
|
|  You should also cite additional publications crediting the parametrization
|  data you use. Please consult the documentation of the SK-files for the
|  references.
|
|===============================================================================

Reading input file 'dftb_in.hsd'
Parser version: 8

--------------------------------------------------------------------------------
Reading SK-files:
Done.


Processed input in HSD format written to 'dftb_pin.hsd'

Starting initialization...
--------------------------------------------------------------------------------
OpenMP threads:              1
Chosen random seed:          510738555
Mode:                        Static calculation
Self consistent charges:     Yes
SCC-tolerance:                 0.100000E-05
Max. scc iterations:                   1000
Shell resolved Hubbard:      No
Spin polarisation:           No
Nr. of up electrons:             6.000000
Nr. of down electrons:           6.000000
Periodic boundaries:         No
Electronic solver:           Relatively robust
Maximal SCC-cycles:                    1000
Initial charges:             Set automatically (system chrg:   0.100E+01)
Included shells:             C:  s, p
                             N:  s, p
                             H:  s
Spin coupling constants:     C   1(s)-1(s):  -0.455900E-01
                             C   1(s)-2(p):  -0.293000E-01
                             C   2(p)-1(s):  -0.293000E-01
                             C   2(p)-2(p):  -0.275500E-01
                             N   1(s)-1(s):  -0.468700E-01
                             N   1(s)-2(p):  -0.317000E-01
                             N   2(p)-1(s):  -0.317000E-01
                             N   2(p)-2(p):  -0.307200E-01
                             H   1(s)-1(s):  -0.792500E-01
Range separated hybrid:      Yes
  Screening parameter omega:   0.300000E+00
  Range separated algorithm:   MatrixBased
Extra options:
                             Mulliken analysis
                             Force calculation
Force type                   original
                             Eigenvector printing


REKS Calcuation:             Yes
SSR(2,2) Calcuation:         Yes
Energy Functional:           (PPS+OSS)/2
Number of Core Orbitals:                  5
Number of Active Orbitals:                2
Number of Basis:                         12
Number of States:                         2
State-Averaging Weight:          0.500000
                                 0.500000
State of Interest:                        1
Initial Guess:               Diagonalize H0 matrix
Newton-Raphson for FON opt:  Yes
NR max. Iterations:                      50
Level Shifting:              Yes
Shift Value:                     0.300000
W Scale Factor:              C  =    3.000000
                             N  =    3.000000
                             H  =    3.000000
Transition Dipole:           No
Gradient of Microstate:      No
CP-REKS Solver:              Preconditioned Conjugate-Gradient
CG max. Iterations:                     100
CG Tolerance:                  0.100000E-07
Memory for A and Hxc:        Direct Updating Without Saving
Non-Adiabatic Coupling:      Yes

--------------------------------------------------------------------------------

***  Geometry step: 0

  iSCC       reks energy        Diff energy         x_a       SCC error   
    1       -6.2611366631       0.0000000000     0.998961    1.17814229
    2       -6.2749247651      -0.0137881019     0.999605    0.10856961
    3       -6.2790935154      -0.0041687503     0.999789    0.05100423
    4       -6.2811078070      -0.0020142916     0.999864    0.02599237
    5       -6.2822933938      -0.0011855868     0.999900    0.01395791
    6       -6.2830821531      -0.0007887593     0.999919    0.00800114
    7       -6.2836403107      -0.0005581576     0.999930    0.00714270
    8       -6.2840437203      -0.0004034096     0.999937    0.00618260
    9       -6.2843355335      -0.0002918132     0.999942    0.00525367
   10       -6.2845450643      -0.0002095309     0.999945    0.00466848
   11       -6.2846940507      -0.0001489864     0.999948    0.00417468
   12       -6.2847989851      -0.0001049344     0.999949    0.00368120
   13       -6.2848722908      -0.0000733057     0.999950    0.00321056
   14       -6.2849231663      -0.0000508755     0.999951    0.00277578
   15       -6.2849582983      -0.0000351320     0.999952    0.00238315
   16       -6.2849824697      -0.0000241714     0.999952    0.00203447
   17       -6.2849990569      -0.0000165872     0.999952    0.00172872
   18       -6.2850104193      -0.0000113624     0.999952    0.00146322
   19       -6.2850181935      -0.0000077742     0.999952    0.00123447
   20       -6.2850235087      -0.0000053152     0.999953    0.00103860
   21       -6.2850271411      -0.0000036324     0.999953    0.00087174
   22       -6.2850296228      -0.0000024817     0.999953    0.00073021
   23       -6.2850313180      -0.0000016953     0.999953    0.00061059
   24       -6.2850324761      -0.0000011580     0.999953    0.00050979
   25       -6.2850332670      -0.0000007910     0.999953    0.00042507
   26       -6.2850338073      -0.0000005403     0.999953    0.00035402
   27       -6.2850341764      -0.0000003690     0.999953    0.00029456
   28       -6.2850344284      -0.0000002521     0.999953    0.00024487
   29       -6.2850346006      -0.0000001722     0.999953    0.00020340
   30       -6.2850347182      -0.0000001176     0.999953    0.00016885
   31       -6.2850347986      -0.0000000803     0.999953    0.00014009
   32       -6.2850348534      -0.0000000549     0.999953    0.00011616
   33       -6.2850348909      -0.0000000375     0.999953    0.00009628
   34       -6.2850349165      -0.0000000256     0.999953    0.00007978
   35       -6.2850349340      -0.0000000175     0.999953    0.00006608
   36       -6.2850349459      -0.0000000119     0.999953    0.00005471
   37       -6.2850349541      -0.0000000082     0.999953    0.00004529
   38       -6.2850349597      -0.0000000056     0.999953    0.00003748
   39       -6.2850349635      -0.0000000038     0.999953    0.00003102
   40       -6.2850349661      -0.0000000026     0.999952    0.00002566
   41       -6.2850349678      -0.0000000018     0.999952    0.00002123
   42       -6.2850349691      -0.0000000012     0.999952    0.00001756
   43       -6.2850349699      -0.0000000008     0.999952    0.00001452
   44       -6.2850349704      -0.0000000006     0.999952    0.00001201
   45       -6.2850349708      -0.0000000004     0.999952    0.00000993
   46       -6.2850349711      -0.0000000003     0.999952    0.00000821
   47       -6.2850349713      -0.0000000002     0.999952    0.00000679
   48       -6.2850349714      -0.0000000001     0.999952    0.00000561
   49       -6.2850349715      -0.0000000001     0.999952    0.00000464
   50       -6.2850349715      -0.0000000001     0.999952    0.00000383
   51       -6.2850349716      -0.0000000000     0.999952    0.00000317
   52       -6.2850349716      -0.0000000000     0.999952    0.00000262
   53       -6.2850349716      -0.0000000000     0.999952    0.00000216
   54       -6.2850349716      -0.0000000000     0.999952    0.00000179
   55       -6.2850349716      -0.0000000000     0.999952    0.00000148
   56       -6.2850349717      -0.0000000000     0.999952    0.00000122
   57       -6.2850349717      -0.0000000000     0.999952    0.00000101
   58       -6.2850349717      -0.0000000000     0.999952    0.00000083
  
--------------------------------------------------
 Final SA-REKS(2,2) energy:      -6.28503497
  
 State     Energy      FON(1)    FON(2)   Spin
  PPS   -6.41126099   1.999905  0.000095  0.00
  OSS   -6.15880895   1.000000  1.000000  0.00
 Trip   -6.23946927   1.000000  1.000000  1.00
--------------------------------------------------

 Lagrangian Wab:   0.00544453  0.00544434

--------------------------------------------------
 SSR: 2SI-2SA-REKS(2,2) Hamiltonian matrix
               PPS           OSS
   PPS    -6.41126099    0.00764647
   OSS     0.00764647   -6.15880895
--------------------------------------------------

----------------------------------------------------------------
 SSR: 2SI-2SA-REKS(2,2) states
                    E_n       C_{PPS}    C_{OSS}
 SSR state  1   -6.41149238  -0.999542   0.030247
 SSR state  2   -6.15857756  -0.030247  -0.999542
----------------------------------------------------------------

 unrelaxed SSR FONs for S0:  1.998990  0.001010

Total Energy:                       -6.4114923816 H         -174.4656 eV
Extrapolated to 0:                  -6.4114923816 H         -174.4656 eV

----------------------------------------------------------------------------------
 Solving CP-REKS equation for  1 state vector...
----------------------------------------------------------------------------------
  CG solver: Constructing Y initial guess
  CG solver: Iteration    1    eps =    0.000086708738
  CG solver: Iteration    2    eps =    0.000051846308
  CG solver: Iteration    3    eps =    0.000002905937
  CG solver: Iteration    4    eps =    0.000000686166
  CG solver: Iteration    5    eps =    0.000000015763
  CG solver: Iteration    6    eps =    0.000000002380
  Convergence reached in CG solver after    6 iterations
  CG solver: Calculating converged R, Z, Q2 matrix
----------------------------------------------------------------------------------

----------------------------------------------------------------------------------
 Solving CP-REKS equation for SI between  1 and  2 state vectors...
----------------------------------------------------------------------------------
  CG solver: Constructing Y initial guess
  CG solver: Iteration    1    eps =    0.002030171586
  CG solver: Iteration    2    eps =    0.002755863096
  CG solver: Iteration    3    eps =    0.000423469858
  CG solver: Iteration    4    eps =    0.000005041996
  CG solver: Iteration    5    eps =    0.000000709994
  CG solver: Iteration    6    eps =    0.000000012146
  CG solver: Iteration    7    eps =    0.000000000310
  Convergence reached in CG solver after    7 iterations
  CG solver: Calculating converged R, Z, Q2 matrix
----------------------------------------------------------------------------------

--------------------------------------------------
 Gradient Information
--------------------------------------------------
           1 st state (SSR)
    -0.00409824    -0.00412945    -0.00967618
     0.00738671    -0.01154212     0.00816075
     0.01201766    -0.00118982     0.00065481
     0.00952363     0.00930027    -0.00478656
    -0.01372773     0.00331950    -0.00326685
    -0.01110203     0.00424161     0.00891404

           2 st state (SSR)
     0.00238712    -0.00089418     0.09566302
    -0.00635000     0.00299330    -0.11154438
    -0.01117271     0.00494284     0.01669730
    -0.00631358    -0.00143814    -0.01304272
     0.01276972     0.00609126    -0.01060100
     0.00867944    -0.01169508     0.02282779
--------------------------------------------------
 Coupling Information
--------------------------------------------------
 between  1 and  2 states
--------------------------------------------------
 g vector - difference gradient
    -0.00320429    -0.00134579    -0.05364379
     0.00706674    -0.00754321     0.06064499
     0.01221510    -0.00302655    -0.00792756
     0.00861951     0.00535918     0.00422579
    -0.01405666    -0.00123931     0.00366573
    -0.01064040     0.00779567    -0.00696516

 h vector - derivative coupling
     0.00073194     0.00453640    -0.01448793
     0.00306702    -0.00432786     0.01126993
     0.00988254     0.00074947     0.00178926
     0.01133078    -0.00032790     0.00148813
    -0.01293623     0.00246151    -0.00013320
    -0.01207604    -0.00309162     0.00007380

 G vector - GDV
    -0.00324268    -0.00161763    -0.05266960
     0.00686835    -0.00726771     0.05985256
     0.01159518    -0.00306633    -0.00802125
     0.00791860     0.00536921     0.00412808
    -0.01324872    -0.00138588     0.00366707
    -0.00989073     0.00796835    -0.00695687

 H vector - DCV - non-adiabatic coupling
     0.00212263     0.01758192    -0.07000417
     0.01379400    -0.01888404     0.05897764
     0.04192346     0.00223431     0.00516631
     0.04677953    -0.00001286     0.00688346
    -0.05441565     0.00941847     0.00035071
    -0.05020398    -0.01033780    -0.00137394
--------------------------------------------------


--------------------------------------------------------------------------------
DFTB+ running times                          cpu [s]             wall clock [s]
--------------------------------------------------------------------------------
SCC                                    +     0.03  ( 74.3%)      0.04  ( 70.0%)
Post-SCC processing                    +     0.01  ( 22.0%)      0.01  ( 22.0%)
  Force calculation                          0.01  ( 21.6%)      0.01  ( 20.0%)
--------------------------------------------------------------------------------
Missing                                +     0.00  (  3.7%)      0.00  (  8.0%)
Total                                  =     0.04  (100.0%)      0.05  (100.0%)
--------------------------------------------------------------------------------
