 Fermi distribution function

Calculation with static geometry


********************************************************************************
 iSCC Total electronic   Diff electronic      SCC error    
   13   -0.53040534E+01   -0.43343107E-12    0.31414910E-07
********************************************************************************

 Total charge:     1.00000000

 Atomic gross charges (e)
 Atom           Charge
    1       0.30588878
    2      -0.19478834
    3       0.16106042
    4       0.26242113
    5       0.28146610
    6       0.18395192

Nr. of electrons (up):     12.00000000
Atom populations (up)
 Atom       Population
    1       3.69411122
    2       5.19478834
    3       0.83893958
    4       0.73757887
    5       0.71853390
    6       0.81604808

l-shell populations (up)
 Atom Sh.   l       Population
    1   1   0       1.36986405
    1   2   1       2.32424717
    2   1   0       1.49106627
    2   2   1       3.70372208
    3   1   0       0.83893958
    4   1   0       0.73757887
    5   1   0       0.71853390
    6   1   0       0.81604808

Orbital populations (up)
 Atom Sh.   l   m       Population  Label
    1   1   0   0       1.36986405  s
    1   2   1  -1       0.48860792  p_y
    1   2   1   0       0.88116319  p_z
    1   2   1   1       0.95447606  p_x
    2   1   0   0       1.49106627  s
    2   2   1  -1       1.33222643  p_y
    2   2   1   0       1.12717352  p_z
    2   2   1   1       1.24432212  p_x
    3   1   0   0       0.83893958  s
    4   1   0   0       0.73757887  s
    5   1   0   0       0.71853390  s
    6   1   0   0       0.81604808  s

Fermi level:                        -0.5086873900 H          -13.8421 eV
Band energy:                        -8.7440417472 H         -237.9375 eV
TS:                                  0.0000000000 H            0.0000 eV
Band free energy (E-TS):            -8.7440417472 H         -237.9375 eV
Extrapolated E(0K):                 -8.7440417472 H         -237.9375 eV
Input / Output electrons (q):     12.0000000000     12.0000000000

Energy H0:                          -5.4405433409 H         -148.0447 eV
Energy SCC:                          0.1364899095 H            3.7141 eV
Total Electronic energy:            -5.3040534314 H         -144.3306 eV
Repulsive energy:                    0.1487850520 H            4.0486 eV
Total energy:                       -5.1552683794 H         -140.2820 eV
Extrapolated to 0:                  -5.1552683794 H         -140.2820 eV
Total Mermin free energy:           -5.1552683794 H         -140.2820 eV
Force related energy:               -5.1552683794 H         -140.2820 eV

SCC converged

Excitation Energy:                   0.0966928969 H            2.6311 eV

Total Forces
    1      0.013016095314     -0.009474146203      0.070161135811
    2      0.003608418163      0.000591188328     -0.074631710724
    3     -0.008272662357     -0.006214228687     -0.002281850307
    4     -0.013365160374      0.015538007772     -0.003533730697
    5      0.003842863655     -0.014282074820      0.007282890156
    6      0.001170445599      0.013841253610      0.003003265761

Maximal derivative component:        0.746317E-01 au


