     6
  Step:     0            Position(A)                                  Velocity(au)
C        -0.03265176    -0.00232717     0.00532054     0.00005484    -0.00000255    -0.00007352
N        -0.03557539    -0.04459429     1.31327538    -0.00005003     0.00006243    -0.00005335
H         0.91377050     0.06931903    -0.54748644    -0.00057408    -0.00023425     0.00063481
H         0.80902113    -0.13873572     1.83334710     0.00073244    -0.00026727     0.00062208
H        -1.01365007    -0.06133761     1.82307161    -0.00001535    -0.00041968     0.00037653
H        -1.03863129     0.10840492    -0.53002805    -0.00010119     0.00008403    -0.00001591
     6
  Step:     1            Position(A)                                  Velocity(au)
C        -0.03215657    -0.00236191     0.00421340     0.00003398    -0.00000406    -0.00012689
N        -0.03641926    -0.04389072     1.31297959    -0.00009997     0.00006580     0.00000172
H         0.90787668     0.06694374    -0.54141459    -0.00047723    -0.00019824     0.00045777
H         0.81850035    -0.14200259     1.84170025     0.00093962    -0.00032363     0.00086373
H        -1.01113147    -0.06596505     1.82633242     0.00047242    -0.00042602     0.00021956
H        -1.03890858     0.10931137    -0.53041005     0.00004947     0.00008197    -0.00005281
     6
  Step:     2            Position(A)                                  Velocity(au)
C        -0.03190832    -0.00241603     0.00254453     0.00001049    -0.00000612    -0.00017538
N        -0.03776232    -0.04315490     1.31331298    -0.00013977     0.00006831     0.00006052
H         0.90333011     0.06498221    -0.53747190    -0.00033291    -0.00015918     0.00024965
H         0.82957712    -0.14581564     1.85224282     0.00101914    -0.00036594     0.00101734
H        -1.00331488    -0.07065764     1.82787483     0.00093695    -0.00043207     0.00007120
H        -1.03754912     0.11019810    -0.53118340     0.00019415     0.00008083    -0.00008928
     6
  Step:     3            Position(A)                                  Velocity(au)
C        -0.03192708    -0.00249579     0.00037662    -0.00001388    -0.00000875    -0.00021750
N        -0.03947694    -0.04239628     1.31430358    -0.00016694     0.00007004     0.00012025
H         0.90059356     0.06346143    -0.53595309    -0.00015432    -0.00011837     0.00002045
H         0.84079590    -0.15000833     1.86395653     0.00096991    -0.00039294     0.00107928
H        -0.99063387    -0.07541744     1.82788998     0.00134440    -0.00043912    -0.00005010
H        -1.03466115     0.11107970    -0.53236314     0.00032537     0.00008142    -0.00012886
     6
  Step:     4            Position(A)                                  Velocity(au)
C        -0.03221198    -0.00260756    -0.00221365    -0.00003714    -0.00001196    -0.00025216
N        -0.04141452    -0.04162261     1.31594366    -0.00017991     0.00007122     0.00017735
H         0.89995398     0.06239270    -0.53702462     0.00004056    -0.00007739    -0.00021704
H         0.85079583    -0.15441198     1.87585405     0.00080683    -0.00040520     0.00105673
H        -0.97390350    -0.08026423     1.82677869     0.00165890    -0.00044915    -0.00012446
H        -1.03043101     0.11197941    -0.53400246     0.00043648     0.00008454    -0.00017492
     6
  Step:     5            Position(A)                                  Velocity(au)
C        -0.03273959    -0.00275745    -0.00513989    -0.00005728    -0.00001570    -0.00027870
N        -0.04341289    -0.04083818     1.31818346    -0.00017764     0.00007222     0.00022798
H         0.90148081     0.06176828    -0.54070129     0.00023133    -0.00003795    -0.00044871
H         0.85844683    -0.15887288     1.88707446     0.00055396    -0.00040459     0.00096353
H        -0.95434219    -0.08524343     1.82516729     0.00184402    -0.00046492    -0.00013130
H        -1.02511220     0.11292924    -0.53618985     0.00052198     0.00009094    -0.00023046
     6
  Step:     6            Position(A)                                  Velocity(au)
C        -0.03346519    -0.00295109    -0.00831082    -0.00007553    -0.00001290    -0.00041907
N        -0.04530082    -0.04004261     1.32093109    -0.00015845     0.00006979     0.00036721
H         0.90501474     0.06156245    -0.54684099     0.00034205     0.00004266    -0.00056529
H         0.86291470    -0.16326315     1.89693311     0.00018646    -0.00045425     0.00076794
H        -0.93356198    -0.09043515     1.82390619     0.00191239    -0.00041603    -0.00008958
H        -1.01901178     0.11396890    -0.53904412     0.00066106     0.00001141    -0.00022228
     6
  Step:     7            Position(A)                                  Velocity(au)
C        -0.03439186    -0.00303960    -0.01430775    -0.00009082    -0.00000326    -0.00067054
N        -0.04687935    -0.03931131     1.32621687    -0.00012218     0.00006423     0.00059060
H         0.90896377     0.06270165    -0.55306810     0.00036440     0.00012594    -0.00056460
H         0.86252607    -0.16881045     1.90387470    -0.00026351    -0.00051773     0.00049256
H        -0.91250506    -0.09434480     1.82320761     0.00183489    -0.00034446     0.00000775
H        -1.01065030     0.11317896    -0.54105271     0.00084435    -0.00011755    -0.00015273
     6
  Step:     8            Position(A)                                  Velocity(au)
C        -0.03545198    -0.00302235    -0.02298007    -0.00009913     0.00000597    -0.00090037
N        -0.04797378    -0.03863737     1.33385164    -0.00007104     0.00005987     0.00078921
H         0.91298678     0.06431757    -0.55919275     0.00035970     0.00015733    -0.00054900
H         0.85714994    -0.17458948     1.90770885    -0.00070489    -0.00052826     0.00021424
H        -0.89342034    -0.09797088     1.82407584     0.00154701    -0.00033709     0.00020564
H        -1.00054002     0.11139720    -0.54238543     0.00096660    -0.00019512    -0.00010915
     6
  Step:     9            Position(A)                                  Velocity(au)
C        -0.03656043    -0.00290893    -0.03400508    -0.00009909     0.00001419    -0.00109751
N        -0.04843343    -0.03800157     1.34348243    -0.00000882     0.00005754     0.00095306
H         0.91683281     0.06614363    -0.56507849     0.00033599     0.00017060    -0.00052406
H         0.84710532    -0.18036719     1.90856171    -0.00109573    -0.00052750    -0.00003837
H        -0.87866128    -0.10171931     1.82770641     0.00106043    -0.00036032     0.00050526
H        -0.98950400     0.10891032    -0.54344066     0.00100276    -0.00025144    -0.00010889
     6
  Step:    10            Position(A)                                  Velocity(au)
C        -0.03761977    -0.00271194    -0.04699013    -0.00008982     0.00002116    -0.00125762
N        -0.04816683    -0.03737859     1.35470166     0.00005732     0.00005769     0.00107970
H         0.92033729     0.06804970    -0.57065755     0.00030122     0.00017453    -0.00049611
H         0.83317878    -0.18612960     1.90686937    -0.00139151    -0.00053215    -0.00023627
H        -0.87022140    -0.10585351     1.83512929     0.00042973    -0.00040325     0.00087772
H        -0.97860276     0.10589638    -0.54476752     0.00093431    -0.00029294    -0.00016336
     6
  Step:    11            Position(A)                                  Velocity(au)
C        -0.03852531    -0.00244597    -0.06151788    -0.00007106     0.00002680    -0.00138007
N        -0.04717943    -0.03673955     1.36710295     0.00011740     0.00006056     0.00117101
H         0.92342254     0.06996171    -0.57593178     0.00026326     0.00017301    -0.00047126
H         0.81666335    -0.19200900     1.90339290    -0.00154524    -0.00055549    -0.00034986
H        -0.86926007    -0.11054115     1.84690832    -0.00025417    -0.00045652     0.00127160
H        -0.96906409     0.10250163    -0.54701450     0.00075153    -0.00032203    -0.00027819
     6
  Step:    12            Position(A)                                  Velocity(au)
C        -0.03917442    -0.00212556    -0.07718171    -0.00004368     0.00003119    -0.00146706
N        -0.04559840    -0.03605363     1.38031966     0.00016055     0.00006631     0.00123151
H         0.92609658     0.07183466    -0.58096735     0.00022965     0.00016831    -0.00045490
H         0.79937360    -0.19828205     1.89921543    -0.00151325    -0.00061073    -0.00035274
H        -0.87578188    -0.11584066     1.86294789    -0.00088534    -0.00050976     0.00162671
H        -0.96216160     0.09885136    -0.55085352     0.00045848    -0.00034104    -0.00045086
     6
  Step:    13            Position(A)                                  Velocity(au)
C        -0.03948089    -0.00176357    -0.09361268    -0.00000995     0.00003458    -0.00152288
N        -0.04366716    -0.03528881     1.39404452     0.00017801     0.00007500     0.00126684
H         0.92844652     0.07364376    -0.58588369     0.00020717     0.00016204    -0.00045130
H         0.78355814    -0.20536996     1.89567594    -0.00126747    -0.00070968    -0.00022912
H        -0.88862858    -0.12169308     1.88249578    -0.00137197    -0.00055302     0.00189191
H        -0.95903399     0.09504065    -0.55687800     0.00007721    -0.00035372    -0.00066921
     6
  Step:    14            Position(A)                                  Velocity(au)
C        -0.03939220    -0.00136898    -0.11049755     0.00002638     0.00003737    -0.00155299
N        -0.04170402    -0.03441279     1.40803421     0.00016603     0.00008653     0.00128285
H         0.93062878     0.07537957    -0.59084041     0.00020137     0.00015547    -0.00046336
H         0.77164536    -0.21380757     1.89420307    -0.00081209    -0.00085892     0.00001655
H        -0.90579638    -0.12793908     1.90433694    -0.00165852    -0.00057909     0.00203771
H        -0.96047252     0.09111303    -0.56549374    -0.00035236    -0.00036525    -0.00091228
     6
  Step:    15            Position(A)                                  Velocity(au)
C        -0.03890369    -0.00094598    -0.12758729     0.00006072     0.00004000    -0.00156320
N        -0.04003488    -0.03339579     1.42210932     0.00012718     0.00010038     0.00128541
H         0.93285196     0.07704506    -0.59602068     0.00021598     0.00014950    -0.00049247
H         0.76579202    -0.22416049     1.89603805    -0.00019668    -0.00105509     0.00035267
H        -0.92491181    -0.13436182     1.92707453    -0.00173146    -0.00058483     0.00205891
H        -0.96674243     0.08705004    -0.57683591    -0.00077865    -0.00038115    -0.00115427
     6
  Step:    16            Position(A)                                  Velocity(au)
C        -0.03806378    -0.00049391    -0.14469562     0.00008852     0.00004285    -0.00155881
N        -0.03892180    -0.03221677     1.43615491     0.00006962     0.00011541     0.00128032
H         0.93535382     0.07865006    -0.60161420     0.00025228     0.00014458    -0.00053839
H         0.76734270    -0.23688972     1.90191840     0.00048554    -0.00128197     0.00072306
H        -0.94367536    -0.14073328     1.94937943    -0.00161075    -0.00057093     0.00196868
H        -0.97750704     0.08277462    -0.59074569    -0.00114927    -0.00040602    -0.00137022
     6
  Step:    17            Position(A)                                  Velocity(au)
C        -0.03696713    -0.00000862    -0.16168925     0.00010632     0.00004614    -0.00154395
N        -0.03851184    -0.03087100     1.45011879     0.00000452     0.00012991     0.00127280
H         0.93837104     0.08020810    -0.60779908     0.00030856     0.00014088    -0.00059928
H         0.77641404    -0.25220603     1.91185636     0.00111913    -0.00151265     0.00106118
H        -0.96015011    -0.14685208     1.97014327    -0.00133527    -0.00054083     0.00178991
H        -0.99188483     0.07816754    -0.60681208    -0.00142209    -0.00044253    -0.00154120
     6
  Step:    18            Position(A)                                  Velocity(au)
C        -0.03573785     0.00051559    -0.17847249     0.00011238     0.00004995    -0.00152138
N        -0.03882287    -0.02937477     1.46399977    -0.00005730     0.00014204     0.00126650
H         0.94210408     0.08173218    -0.61472450     0.00037989     0.00013817    -0.00067181
H         0.79182576    -0.26998185     1.92513378     0.00160003    -0.00171690     0.00131011
H        -0.97288699    -0.15256495     1.98853705    -0.00095023    -0.00049931     0.00154806
H        -1.00861806     0.07309335    -0.62446231    -0.00157252    -0.00049102    -0.00165714
     6
  Step:    19            Position(A)                                  Velocity(au)
C        -0.03450853     0.00108409    -0.19497235     0.00010679     0.00005417    -0.00149276
N        -0.03976543    -0.02776356     1.47782581    -0.00010790     0.00015041     0.00126301
H         0.94668195     0.08323081    -0.62249612     0.00045846     0.00013584    -0.00075158
H         0.81141778    -0.28976655     1.94051757     0.00186297    -0.00187002     0.00143732
H        -0.98093819    -0.15777551     2.00400999    -0.00049999    -0.00045170     0.00126755
H        -1.02628661     0.06742555    -0.64306510    -0.00159445    -0.00054975    -0.00171661
     6
  Step:    20            Position(A)                                  Velocity(au)
C        -0.03340153     0.00170069    -0.21112948     0.00009106     0.00005865    -0.00145911
N        -0.04118350    -0.02608432     1.49163047    -0.00014300     0.00015441     0.00126195
H         0.95213377     0.08470387    -0.63116677     0.00053435     0.00013313    -0.00083353
H         0.83258177    -0.31089222     1.95657797     0.00189001    -0.00195840     0.00143771
H        -0.98382519    -0.16244671     2.01626714    -0.00002568    -0.00040345     0.00097071
H        -1.04349979     0.06106649    -0.66201653    -0.00149652    -0.00061594    -0.00172449
     6
  Step:    21            Position(A)                                  Velocity(au)
C        -0.03251644     0.00236727    -0.22689321     0.00006755     0.00006322    -0.00142106
N        -0.04289378    -0.02438558     1.50543338    -0.00016124     0.00015429     0.00126151
H         0.95837179     0.08614329    -0.64073128     0.00059687     0.00012926    -0.00091254
H         0.85276540    -0.33261032     1.97197024     0.00170127    -0.00197994     0.00132658
H        -0.98150008    -0.16660169     2.02524623     0.00043411    -0.00036021     0.00067834
H        -1.05902590     0.05395069    -0.68079169    -0.00129654    -0.00068650    -0.00168918
     6
  Step:    22            Position(A)                                  Velocity(au)
C        -0.03192369     0.00308378    -0.24221800     0.00003897     0.00006770    -0.00137901
N        -0.04471085    -0.02270899     1.51922833    -0.00016287     0.00015092     0.00125910
H         0.96519147     0.08753160    -0.65113033     0.00063610     0.00012342    -0.00098406
H         0.86980032    -0.35420711     1.98559934     0.00133802    -0.00194093     0.00112919
H        -0.97432826    -0.17032705     2.03110723     0.00084147    -0.00032810     0.00041076
H        -1.07186412     0.04604804    -0.69897055    -0.00101659    -0.00075836    -0.00162042
     6
  Step:    23            Position(A)                                  Velocity(au)
C        -0.03166399     0.00384842    -0.25706172     0.00000791     0.00007196    -0.00133320
N        -0.04645679    -0.02108399     1.53297867    -0.00014859     0.00014553     0.00125200
H         0.97228766     0.08884337    -0.66225943     0.00064416     0.00011505    -0.00104456
H         0.88203705    -0.37507188     1.99667347     0.00084794    -0.00185211     0.00087256
H        -0.96309132    -0.17377951     2.03423245     0.00115816    -0.00031388     0.00018826
H        -1.08126569     0.03736013    -0.71624138    -0.00067963    -0.00082893    -0.00152787
     6
  Step:    24            Position(A)                                  Velocity(au)
C        -0.03175061     0.00465811    -0.27138438    -0.00002328     0.00007589    -0.00128380
N        -0.04796150    -0.01952522     1.54661813    -0.00011904     0.00013952     0.00123765
H         0.97928363     0.09004844    -0.67398209     0.00061612     0.00010384    -0.00109177
H         0.88835063    -0.39472557     2.00468833     0.00027674    -0.00172581     0.00058106
H        -0.94899136    -0.17719384     2.03522581     0.00134681    -0.00032492     0.00003028
H        -1.08673235     0.02791354    -0.73239558    -0.00030797    -0.00089621    -0.00142056
     6
  Step:    25            Position(A)                                  Velocity(au)
C        -0.03217331     0.00550867    -0.28514725    -0.00005264     0.00007940    -0.00123086
N        -0.04906100    -0.01803178     1.56005468    -0.00007496     0.00013429     0.00121403
H         0.98576648     0.09111497    -0.68614402     0.00055037     0.00008980    -0.00112469
H         0.88809134    -0.41282733     2.00938532    -0.00033425    -0.00157488     0.00027542
H        -0.93362731    -0.18088769     2.03489483     0.00137569    -0.00036841    -0.00004733
H        -1.08800321     0.01775374    -0.74731892     0.00007716    -0.00095878    -0.00130684
     6
  Step:    26            Position(A)                                  Velocity(au)
C        -0.03290214     0.00639511    -0.29831189    -0.00007850     0.00008243    -0.00117438
N        -0.04960140    -0.01658739     1.57317729    -0.00001791     0.00013120     0.00117984
H         0.99132396     0.09201301    -0.69858693     0.00044851     0.00007328    -0.00114351
H         0.88103830    -0.42917911     2.01071372    -0.00094665    -0.00141308    -0.00002637
H        -0.91889561    -0.18525343     2.03419028     0.00122718    -0.00044973    -0.00003689
H        -1.08504429     0.00693842    -0.76098531     0.00045532    -0.00101584    -0.00119462
     6
  Step:    27            Position(A)                                  Velocity(au)
C        -0.03389060     0.00731193    -0.31083907    -0.00009946     0.00008495    -0.00111423
N        -0.04945289    -0.01516162     1.58586584     0.00004876     0.00013145     0.00113481
H         0.99557859     0.09271800    -0.71116041     0.00031500     0.00005487    -0.00114933
H         0.86738165    -0.44374107     2.00880843    -0.00152184    -0.00125648    -0.00030745
H        -0.90678030    -0.19072644     2.03408784     0.00090798    -0.00056999     0.00005605
H        -1.07804215    -0.00446962    -0.77345360     0.00080643    -0.00106728    -0.00109166
     6
  Step:    28            Position(A)                                  Velocity(au)
C        -0.03507800     0.00825351    -0.32268783    -0.00011430     0.00008697    -0.00105021
N        -0.04853459    -0.01371175     1.59800336     0.00011923     0.00013606     0.00107979
H         0.99821527     0.09321345    -0.72373080     0.00015652     0.00003543    -0.00114402
H         0.84774523    -0.45666705     2.00398764    -0.00201798    -0.00112534    -0.00055063
H        -0.89903182    -0.19772305     2.03541648     0.00045616    -0.00072344     0.00020967
H        -1.06740212    -0.01641042    -0.78486737     0.00111051    -0.00111376    -0.00100577
     6
  Step:    29            Position(A)                                  Velocity(au)
C        -0.03639121     0.00921467    -0.33381435    -0.00012196     0.00008858    -0.00098201
N        -0.04684445    -0.01218510     1.60948828     0.00018524     0.00014587     0.00101654
H         0.99900280     0.09349309    -0.73618814    -0.00001866     0.00001592    -0.00112987
H         0.82323441    -0.46836003     1.99676238    -0.00238902    -0.00104540    -0.00073788
H        -0.89680091    -0.20655311     2.03867477    -0.00006092    -0.00089643     0.00038821
H        -1.05374770    -0.02883519    -0.79545676     0.00134781    -0.00115677    -0.00094496
     6
  Step:    30            Position(A)                                  Velocity(au)
C        -0.03774614     0.01019139    -0.34417119    -0.00012159     0.00008992    -0.00090930
N        -0.04448212    -0.01052047     1.62024219     0.00023738     0.00016166     0.00094726
H         0.99780705     0.09356164    -0.74844898    -0.00020114    -0.00000257    -0.00110948
H         0.79548083    -0.47953708     1.98784521    -0.00258808    -0.00104747    -0.00085171
H        -0.90036462    -0.21733418     2.04390936    -0.00056056    -0.00106919     0.00055009
H        -1.03791629    -0.04171690    -0.80554020     0.00149997    -0.00119872    -0.00091696
     6
  Step:    31            Position(A)                                  Velocity(au)
C        -0.03905112     0.01118176    -0.35370711    -0.00011273     0.00009120    -0.00083179
N        -0.04165137    -0.00864848     1.63021134     0.00026732     0.00018407     0.00087404
H         0.99460249     0.09343682    -0.76046014    -0.00038077    -0.00001886    -0.00108561
H         0.76661531    -0.49127551     1.97812966    -0.00257739    -0.00116301    -0.00087922
H        -0.90906421    -0.22994359     2.05070908    -0.00096564    -0.00122007     0.00065887
H        -1.02093303    -0.05505939    -0.81551699     0.00155233    -0.00124282    -0.00092829
     6
  Step:    32            Position(A)                                  Velocity(au)
C        -0.04021226     0.01218665    -0.36236814    -0.00009561     0.00009272    -0.00074936
N        -0.03863397    -0.00649349     1.63936342     0.00027032     0.00021330     0.00079874
H         0.98947705     0.09314903    -0.77219884    -0.00054709    -0.00003180    -0.00106104
H         0.73909544    -0.50498019     1.96861061    -0.00234426    -0.00141394    -0.00081837
H        -0.92148983    -0.24402563     2.05832344    -0.00122319    -0.00133050     0.00069194
H        -1.00395613    -0.06890599    -0.82584840     0.00149743    -0.00129277    -0.00098268
     6
  Step:    33            Position(A)                                  Velocity(au)
C        -0.04114283     0.01321021    -0.37010082    -0.00007145     0.00009475    -0.00066232
N        -0.03573758    -0.00398209     1.64768537     0.00024697     0.00024826     0.00072323
H         0.98263379     0.09274106    -0.78367238    -0.00068973    -0.00004031    -0.00103844
H         0.71533021    -0.52220805     1.96022630    -0.00191731    -0.00179836    -0.00068396
H        -0.93582373    -0.25905072     2.06584669    -0.00131247    -0.00138834     0.00064323
H        -0.98817378    -0.08334128    -0.83701491     0.00133907    -0.00135195    -0.00107886
     6
  Step:    34            Position(A)                                  Velocity(au)
C        -0.04177542     0.01425943    -0.37685755    -0.00004262     0.00009748    -0.00057150
N        -0.03323113    -0.00106230     1.65518547     0.00020331     0.00028581     0.00064962
H         0.97438793     0.09226707    -0.79491669    -0.00079885    -0.00004342    -0.00102029
H         0.69715068    -0.54432267     1.95364772    -0.00137168    -0.00227885    -0.00050861
H        -0.95020262    -0.27439816     2.07239530    -0.00124177    -0.00138875     0.00052035
H        -0.97466139    -0.09848249    -0.84945055     0.00109503    -0.00142234    -0.00120879
     6
  Step:    35            Position(A)                                  Velocity(au)
C        -0.04207525     0.01534282    -0.38260346    -0.00001254     0.00010096    -0.00047838
N        -0.03128988     0.00227056     1.66189713     0.00014902     0.00032072     0.00058017
H         0.96515738     0.09179108    -0.80599311    -0.00086599    -0.00004034    -0.00100861
H         0.68532215    -0.57206216     1.94909954    -0.00081360    -0.00278331    -0.00033530
H        -0.96298988    -0.28943219     2.07723030    -0.00103844    -0.00133278     0.00033915
H        -0.96421796    -0.11445766    -0.86345943     0.00079670    -0.00150346    -0.00135698
     6
  Step:    36            Position(A)                                  Velocity(au)
C        -0.04204982     0.01646814    -0.38732313     0.00001482     0.00010500    -0.00038495
N        -0.02997101     0.00595401     1.66787780     0.00009430     0.00034682     0.00051661
H         0.95544274     0.09138455    -0.81698190    -0.00088508    -0.00003052    -0.00100461
H         0.67935160    -0.60521283     1.94631234    -0.00034792    -0.00322313    -0.00020375
H        -0.97292054    -0.30355520     2.07981493    -0.00073838    -0.00122529     0.00011862
H        -0.95723197    -0.13137353    -0.87913705     0.00048445    -0.00159181    -0.00150206
     6
  Step:    37            Position(A)                                  Velocity(au)
C        -0.04175112     0.01763996    -0.39102503     0.00003573     0.00010924    -0.00029342
N        -0.02922686     0.00985788     1.67319894     0.00004700     0.00035887     0.00045951
H         0.94579448     0.09112349    -0.82797093    -0.00085366    -0.00001371    -0.00100822
H         0.67771071    -0.64257438     1.94464210    -0.00004606    -0.00352068    -0.00013816
H        -0.97914336    -0.31623770     2.07982528    -0.00037873    -0.00107316    -0.00012239
H        -0.95361977    -0.14928163    -0.89631993     0.00019967    -0.00168128    -0.00162030
     6
  Step:    38            Position(A)                                  Velocity(au)
C        -0.04126819     0.01885808    -0.39374232     0.00004750     0.00011324    -0.00020591
N        -0.02894285     0.01380508     1.67793055     0.00001137     0.00035401     0.00040809
H         0.93676723     0.09108468    -0.83903873    -0.00077381     0.00000999    -0.00101759
H         0.67834399    -0.68223450     1.94328990     0.00006792    -0.00363017    -0.00014317
H        -0.98120605    -0.32703273     2.07713746     0.00000553    -0.00088428    -0.00036647
H        -0.95286386    -0.16815482    -0.91458425    -0.00002356    -0.00176444    -0.00169009
     6
  Step:    39            Position(A)                                  Velocity(au)
C        -0.04071196     0.02011730    -0.39552970     0.00004898     0.00011659    -0.00012413
N        -0.02897818     0.01760260     1.68212675    -0.00001146     0.00033204     0.00036050
H         0.92886599     0.09134195    -0.85023268    -0.00065266     0.00004014    -0.00102872
H         0.67919650    -0.72199125     1.94151009     0.00001022    -0.00354229    -0.00020819
H        -0.97902227    -0.33558297     2.07180804     0.00038219    -0.00066713    -0.00059793
H        -0.95413530    -0.18788203    -0.93329386    -0.00016406    -0.00183416    -0.00169561
     6
  Step:    40            Position(A)                                  Velocity(au)
C        -0.04019674     0.02140862    -0.39645799     0.00004063     0.00011902    -0.00004928
N        -0.02919355     0.02106915     1.68581726    -0.00002212     0.00029483     0.00031441
H         0.92248913     0.09196278    -0.86154402    -0.00050214     0.00007607    -0.00103548
H         0.67856766    -0.75972894     1.93873530    -0.00018039    -0.00327527    -0.00031532
H        -0.97284485    -0.34162758     2.06405667     0.00072076    -0.00043106    -0.00080245
H        -0.95645300    -0.20828064    -0.95167892    -0.00021489    -0.00188502    -0.00162865
     6
  Step:    41            Position(A)                                  Velocity(au)
C        -0.03982316     0.02272103    -0.39660771     0.00002422     0.00012043     0.00001805
N        -0.02946213     0.02405253     1.68900502    -0.00002173     0.00024537     0.00026744
H         0.91788070     0.09300602    -0.87288568    -0.00033762     0.00011696    -0.00103010
H         0.67525018    -0.79364400     1.93461191    -0.00045940    -0.00286136    -0.00044602
H        -0.96325418    -0.34501314     2.05425283     0.00099137    -0.00018654    -0.00096694
H        -0.95883639    -0.22912042    -0.96892373    -0.00018101    -0.00191381    -0.00148838
     6
  Step:    42            Position(A)                                  Velocity(au)
C        -0.03966685     0.02404321    -0.39606322     0.00000228     0.00012083     0.00007771
N        -0.02966883     0.02643702     1.69166807    -0.00001111     0.00018705     0.00021752
H         0.91510313     0.09452149    -0.88407948    -0.00017572     0.00016205    -0.00100436
H         0.66851734    -0.82232667     1.92897768    -0.00078654    -0.00233640    -0.00058484
H        -0.95115674    -0.34570851     2.04290302     0.00116469     0.00005468    -0.00107978
H        -0.96041288    -0.25014891    -0.98424016    -0.00007506    -0.00191950    -0.00127977
     6
  Step:    43            Position(A)                                  Velocity(au)
C        -0.03977335     0.02536439    -0.39490763    -0.00002248     0.00012029     0.00013004
N        -0.02970525     0.02814466     1.69376379     0.00000927     0.00012327     0.00016302
H         0.91403653     0.09655114    -0.89485795    -0.00003193     0.00021067    -0.00095089
H         0.65804304    -0.84475717     1.92181735    -0.00112924    -0.00173456    -0.00072034
H        -0.93777433    -0.34381684     2.03063055     0.00121373     0.00028036    -0.00113183
H        -0.96047853    -0.27111311    -0.99692120     0.00008652    -0.00190277    -0.00101178
     6
  Step:    44            Position(A)                                  Velocity(au)
C        -0.04015865     0.02667472    -0.39321840    -0.00004754     0.00011889     0.00017569
N        -0.02946596     0.02913369     1.69523440     0.00003903     0.00005717     0.00010284
H         0.91440458     0.09913029    -0.90488191     0.00008140     0.00026247    -0.00086443
H         0.64381303    -0.86027360     1.91321886    -0.00146180    -0.00108770    -0.00084445
H        -0.92460416    -0.33957512     2.01814217     0.00111809     0.00047978    -0.00111792
H        -0.95852018    -0.29177565    -1.00637471     0.00028651    -0.00186570    -0.00069568
     6