 Fermi distribution function

Calculation with static geometry


********************************************************************************
 iSCC Total electronic   Diff electronic      SCC error    
   10   -0.54029858E+01   -0.47251092E-12    0.37842698E-06
********************************************************************************

 Total charge:     1.00000000

 Atomic gross charges (e)
 Atom           Charge
    1       0.20371088
    2      -0.09832357
    3       0.14705207
    4       0.27880350
    5       0.28367235
    6       0.18508477

Nr. of electrons (up):     12.00000000
Atom populations (up)
 Atom       Population
    1       3.79628912
    2       5.09832357
    3       0.85294793
    4       0.72119650
    5       0.71632765
    6       0.81491523

l-shell populations (up)
 Atom Sh.   l       Population
    1   1   0       1.31430281
    1   2   1       2.48198631
    2   1   0       1.42441290
    2   2   1       3.67391067
    3   1   0       0.85294793
    4   1   0       0.72119650
    5   1   0       0.71632765
    6   1   0       0.81491523

Orbital populations (up)
 Atom Sh.   l   m       Population  Label
    1   1   0   0       1.31430281  s
    1   2   1  -1       0.57810935  p_y
    1   2   1   0       0.88158585  p_z
    1   2   1   1       1.02229111  p_x
    2   1   0   0       1.42441290  s
    2   2   1  -1       1.33215640  p_y
    2   2   1   0       1.09438792  p_z
    2   2   1   1       1.24736635  p_x
    3   1   0   0       0.85294793  s
    4   1   0   0       0.72119650  s
    5   1   0   0       0.71632765  s
    6   1   0   0       0.81491523  s

Fermi level:                        -0.4899046218 H          -13.3310 eV
Band energy:                        -8.8903306410 H         -241.9182 eV
TS:                                  0.0000000000 H            0.0000 eV
Band free energy (E-TS):            -8.8903306410 H         -241.9182 eV
Extrapolated E(0K):                 -8.8903306410 H         -241.9182 eV
Input / Output electrons (q):     12.0000000000     12.0000000000

Energy H0:                          -5.5351820943 H         -150.6200 eV
Energy SCC:                          0.1321963210 H            3.5972 eV
Total Electronic energy:            -5.4029857733 H         -147.0227 eV
Repulsive energy:                    0.1841918377 H            5.0121 eV
Total energy:                       -5.2187939356 H         -142.0106 eV
Extrapolated to 0:                  -5.2187939356 H         -142.0106 eV
Total Mermin free energy:           -5.2187939356 H         -142.0106 eV
Force related energy:               -5.2187939356 H         -142.0106 eV

SCC converged

Excitation Energy:                   0.1292438451 H            3.5169 eV

Total Forces
    1     -0.007837034286     -0.009574938968      0.038988644542
    2     -0.009353223442      0.013060643448     -0.041019202765
    3     -0.003047769474      0.008320766799      0.001522886619
    4     -0.007811070544     -0.008255781168      0.000695739313
    5      0.017633110077      0.002586402679     -0.001014791179
    6      0.010415987669     -0.006137092790      0.000826723471

Maximal derivative component:        0.410192E-01 au


