|===============================================================================
|
|  DFTB+ release 20.1
|
|  Copyright (C) 2006 - 2020  DFTB+ developers group
|
|===============================================================================
|
|  When publishing results obtained with DFTB+, please cite the following
|  reference:
|
|  * DFTB+, a software package for efficient approximate density functional
|    theory based atomistic simulations, J. Chem. Phys. 152, 124101 (2020).
|    [doi: 10.1063/1.5143190]
|
|  You should also cite additional publications crediting the parametrization
|  data you use. Please consult the documentation of the SK-files for the
|  references.
|
|===============================================================================

Reading input file 'dftb_in.hsd'
Parser version: 8

--------------------------------------------------------------------------------
Reading SK-files:
Done.


Processed input in HSD format written to 'dftb_pin.hsd'

Starting initialization...
--------------------------------------------------------------------------------
WARNING!
-> Excited state forces are not implemented yet for fractional occupations, kT=  0.3158E-02K
OpenMP threads:              1
Chosen random seed:          433655394
Mode:                        Static calculation
Self consistent charges:     Yes
SCC-tolerance:                 0.100000E-05
Max. scc iterations:                    100
Shell resolved Hubbard:      No
Spin polarisation:           No
Nr. of up electrons:             6.000000
Nr. of down electrons:           6.000000
Periodic boundaries:         No
Electronic solver:           Relatively robust
Mixer:                       Broyden mixer
Mixing parameter:                  0.200000
Maximal SCC-cycles:                     100
Nr. of chrg. vec. in memory:              0
Electronic temperature:        0.100000E-07 H      0.272114E-06 eV
Initial charges:             Set automatically (system chrg:   0.100E+01)
Included shells:             C:  s, p
                             N:  s, p
                             H:  s
Extra options:
                             Mulliken analysis
                             Force calculation
Force type                   original
                             Eigenvector printing

--------------------------------------------------------------------------------

***  Geometry step: 0

 iSCC Total electronic   Diff electronic      SCC error    
    1   -0.53943186E+01    0.00000000E+00    0.73982339E+00
    2   -0.53993717E+01   -0.50530284E-02    0.49860421E+00
    3   -0.54026016E+01   -0.32299365E-02    0.93470414E-01
    4   -0.54028882E+01   -0.28662688E-03    0.48983061E-01
    5   -0.54029854E+01   -0.97129242E-04    0.82291421E-02
    6   -0.54029857E+01   -0.33820373E-06    0.20386277E-02
    7   -0.54029858E+01   -0.76543545E-07    0.61892443E-04
    8   -0.54029858E+01   -0.47688964E-10    0.53795556E-04
    9   -0.54029858E+01   -0.12691803E-09    0.24912182E-05
   10   -0.54029858E+01   -0.47251092E-12    0.37842698E-06
>> Charges saved for restart in charges.bin

Total Energy:                       -5.0895500905 H         -138.4937 eV
Extrapolated to 0:                  -5.2187939356 H         -142.0106 eV
Total Mermin free energy:           -5.0895500905 H         -138.4937 eV
Force related energy:               -5.2187939356 H         -142.0106 eV

--------------------------------------------------------------------------------
DFTB+ running times                          cpu [s]             wall clock [s]
--------------------------------------------------------------------------------
SCC                                    +     0.01  ( 57.7%)      0.03  ( 63.0%)
Post-SCC processing                    +     0.00  ( 33.1%)      0.01  ( 28.3%)
--------------------------------------------------------------------------------
Missing                                +     0.00  (  9.2%)      0.00  (  8.7%)
Total                                  =     0.01  (100.0%)      0.05  (100.0%)
--------------------------------------------------------------------------------
