 Fermi distribution function

Calculation with static geometry


********************************************************************************
 iSCC Total electronic   Diff electronic      SCC error    
   13   -0.52599441E+01   -0.50244253E-11    0.90175459E-07
********************************************************************************

 Total charge:     1.00000000

 Atomic gross charges (e)
 Atom           Charge
    1       0.29915550
    2      -0.18351285
    3       0.18359933
    4       0.25673589
    5       0.25865155
    6       0.18537058

Nr. of electrons (up):     12.00000000
Atom populations (up)
 Atom       Population
    1       3.70084450
    2       5.18351285
    3       0.81640067
    4       0.74326411
    5       0.74134845
    6       0.81462942

l-shell populations (up)
 Atom Sh.   l       Population
    1   1   0       1.41599180
    1   2   1       2.28485270
    2   1   0       1.53999812
    2   2   1       3.64351473
    3   1   0       0.81640067
    4   1   0       0.74326411
    5   1   0       0.74134845
    6   1   0       0.81462942

Orbital populations (up)
 Atom Sh.   l   m       Population  Label
    1   1   0   0       1.41599180  s
    1   2   1  -1       0.40231769  p_y
    1   2   1   0       0.87892501  p_z
    1   2   1   1       1.00361000  p_x
    2   1   0   0       1.53999812  s
    2   2   1  -1       1.35197953  p_y
    2   2   1   0       1.12437398  p_z
    2   2   1   1       1.16716122  p_x
    3   1   0   0       0.81640067  s
    4   1   0   0       0.74326411  s
    5   1   0   0       0.74134845  s
    6   1   0   0       0.81462942  s

Fermi level:                        -0.5241809599 H          -14.2637 eV
Band energy:                        -8.6715008185 H         -235.9635 eV
TS:                                  0.0000000000 H            0.0000 eV
Band free energy (E-TS):            -8.6715008185 H         -235.9635 eV
Extrapolated E(0K):                 -8.6715008185 H         -235.9635 eV
Input / Output electrons (q):     12.0000000000     12.0000000000

Energy H0:                          -5.3976401478 H         -146.8773 eV
Energy SCC:                          0.1376960880 H            3.7469 eV
Total Electronic energy:            -5.2599440598 H         -143.1304 eV
Repulsive energy:                    0.1324673705 H            3.6046 eV
Total energy:                       -5.1274766892 H         -139.5257 eV
Extrapolated to 0:                  -5.1274766892 H         -139.5257 eV
Total Mermin free energy:           -5.1274766892 H         -139.5257 eV
Force related energy:               -5.1274766892 H         -139.5257 eV

SCC converged

Excitation Energy:                   0.1047178429 H            2.8495 eV

Total Forces
    1      0.002610730623     -0.001716963264      0.019831931799
    2      0.011767220199     -0.017769581814     -0.022201155501
    3     -0.005346926517     -0.001279406493      0.001187265040
    4     -0.007188257595      0.015416601471      0.005194400924
    5      0.000831243611     -0.000943506714      0.003660273966
    6     -0.002674010321      0.006292856814     -0.007672716229

Maximal derivative component:        0.222012E-01 au


