|===============================================================================
|
|  DFTB+ release 20.1
|
|  Copyright (C) 2006 - 2020  DFTB+ developers group
|
|===============================================================================
|
|  When publishing results obtained with DFTB+, please cite the following
|  reference:
|
|  * DFTB+, a software package for efficient approximate density functional
|    theory based atomistic simulations, J. Chem. Phys. 152, 124101 (2020).
|    [doi: 10.1063/1.5143190]
|
|  You should also cite additional publications crediting the parametrization
|  data you use. Please consult the documentation of the SK-files for the
|  references.
|
|===============================================================================

Reading input file 'dftb_in.hsd'
Parser version: 8

--------------------------------------------------------------------------------
Reading SK-files:
Done.


Processed input in HSD format written to 'dftb_pin.hsd'

Starting initialization...
--------------------------------------------------------------------------------
OpenMP threads:              1
Chosen random seed:          501552547
Mode:                        Static calculation
Self consistent charges:     Yes
SCC-tolerance:                 0.100000E-05
Max. scc iterations:                   1000
Shell resolved Hubbard:      No
Spin polarisation:           No
Nr. of up electrons:            16.000000
Nr. of down electrons:          16.000000
Periodic boundaries:         No
Electronic solver:           Relatively robust
Maximal SCC-cycles:                    1000
Initial charges:             Set automatically (system chrg:   0.100E+01)
Included shells:             C:  s, p
                             H:  s
                             N:  s, p
Spin coupling constants:     C   1(s)-1(s):  -0.455900E-01
                             C   1(s)-2(p):  -0.293000E-01
                             C   2(p)-1(s):  -0.293000E-01
                             C   2(p)-2(p):  -0.275500E-01
                             H   1(s)-1(s):  -0.792500E-01
                             N   1(s)-1(s):  -0.468700E-01
                             N   1(s)-2(p):  -0.317000E-01
                             N   2(p)-1(s):  -0.317000E-01
                             N   2(p)-2(p):  -0.307200E-01
Range separated hybrid:      Yes
  Screening parameter omega:   0.300000E+00
  Range separated algorithm:   MatrixBased
Extra options:
                             Mulliken analysis
                             Force calculation
Force type                   original
                             Eigenvector printing


REKS Calcuation:             Yes
SSR(2,2) Calcuation:         Yes
Energy Functional:           (PPS+OSS)/2
Number of Core Orbitals:                 15
Number of Active Orbitals:                2
Number of Basis:                         32
Number of States:                         2
State-Averaging Weight:          0.500000
                                 0.500000
State of Interest:                        1
Initial Guess:               Diagonalize H0 matrix
Newton-Raphson for FON opt:  Yes
NR max. Iterations:                      50
Level Shifting:              Yes
Shift Value:                     0.300000
W Scale Factor:              C  =    3.200000
                             H  =    3.200000
                             N  =    3.200000
Transition Dipole:           No
Gradient of Microstate:      No
CP-REKS Solver:              Preconditioned Conjugate-Gradient
CG max. Iterations:                     100
CG Tolerance:                  0.100000E-07
Memory for A and Hxc:        Direct Updating Without Saving
Non-Adiabatic Coupling:      Yes

--------------------------------------------------------------------------------

***  Geometry step: 0

  iSCC       reks energy        Diff energy         x_a       SCC error   
    1      -16.3981398156       0.0000000000     0.999086    1.20692176
    2      -16.4130951665      -0.0149553509     0.999853    0.03889901
    3      -16.4166203801      -0.0035252136     0.999946    0.01681733
    4      -16.4178329680      -0.0012125878     0.999972    0.01045462
    5      -16.4183485143      -0.0005155464     0.999982    0.00645620
    6      -16.4185949436      -0.0002464293     0.999986    0.00400929
    7      -16.4187232032      -0.0001282596     0.999989    0.00268258
    8      -16.4187956516      -0.0000724484     0.999991    0.00204245
    9      -16.4188403932      -0.0000447415     0.999992    0.00159382
   10      -16.4188707886      -0.0000303954     0.999992    0.00127509
   11      -16.4188934379      -0.0000226493     0.999993    0.00104654
   12      -16.4189117083      -0.0000182704     0.999993    0.00088125
   13      -16.4189273708      -0.0000156625     0.999993    0.00076065
   14      -16.4189413860      -0.0000140152     0.999994    0.00067178
   15      -16.4189542924      -0.0000129064     0.999994    0.00060559
   16      -16.4189664024      -0.0000121100     0.999994    0.00056825
   17      -16.4189779040      -0.0000115016     0.999994    0.00056571
   18      -16.4189889149      -0.0000110110     0.999994    0.00056150
   19      -16.4189995121      -0.0000105972     0.999994    0.00055609
   20      -16.4190097478      -0.0000102357     0.999995    0.00054982
   21      -16.4190196589      -0.0000099112     0.999995    0.00054292
   22      -16.4190292729      -0.0000096140     0.999995    0.00053559
   23      -16.4190386106      -0.0000093377     0.999995    0.00052796
   24      -16.4190476887      -0.0000090781     0.999995    0.00052014
   25      -16.4190565206      -0.0000088320     0.999995    0.00051220
   26      -16.4190651179      -0.0000085973     0.999995    0.00050421
   27      -16.4190734904      -0.0000083725     0.999995    0.00049622
   28      -16.4190816467      -0.0000081563     0.999995    0.00048825
   29      -16.4190895946      -0.0000079479     0.999995    0.00048034
   30      -16.4190973412      -0.0000077466     0.999995    0.00047249
   31      -16.4191048929      -0.0000075517     0.999995    0.00046474
   32      -16.4191122558      -0.0000073629     0.999995    0.00045709
   33      -16.4191194356      -0.0000071798     0.999996    0.00044954
   34      -16.4191264376      -0.0000070020     0.999996    0.00044210
   35      -16.4191332669      -0.0000068294     0.999996    0.00043478
   36      -16.4191399285      -0.0000066616     0.999996    0.00042757
   37      -16.4191464269      -0.0000064984     0.999996    0.00042049
   38      -16.4191527667      -0.0000063398     0.999996    0.00041352
   39      -16.4191589523      -0.0000061855     0.999996    0.00040667
   40      -16.4191649876      -0.0000060354     0.999996    0.00039994
   41      -16.4191708769      -0.0000058893     0.999996    0.00039333
   42      -16.4191766241      -0.0000057472     0.999996    0.00038683
   43      -16.4191822329      -0.0000056088     0.999996    0.00038045
   44      -16.4191877070      -0.0000054741     0.999996    0.00037418
   45      -16.4191930500      -0.0000053430     0.999996    0.00036802
   46      -16.4191982654      -0.0000052154     0.999996    0.00036197
   47      -16.4192033566      -0.0000050911     0.999996    0.00035603
   48      -16.4192083267      -0.0000049702     0.999996    0.00035019
   49      -16.4192131791      -0.0000048524     0.999996    0.00034446
   50      -16.4192179169      -0.0000047377     0.999996    0.00033883
   51      -16.4192225429      -0.0000046261     0.999996    0.00033331
   52      -16.4192270603      -0.0000045173     0.999997    0.00032788
   53      -16.4192314717      -0.0000044115     0.999997    0.00032254
   54      -16.4192357801      -0.0000043083     0.999997    0.00031731
   55      -16.4192399880      -0.0000042079     0.999997    0.00031217
   56      -16.4192440981      -0.0000041101     0.999997    0.00030712
   57      -16.4192481130      -0.0000040149     0.999997    0.00030216
   58      -16.4192520352      -0.0000039221     0.999997    0.00029729
   59      -16.4192558669      -0.0000038318     0.999997    0.00029251
   60      -16.4192596107      -0.0000037438     0.999997    0.00028781
   61      -16.4192632688      -0.0000036581     0.999997    0.00028320
   62      -16.4192668433      -0.0000035745     0.999997    0.00027867
   63      -16.4192703365      -0.0000034932     0.999997    0.00027423
   64      -16.4192737505      -0.0000034139     0.999997    0.00027265
   65      -16.4192770872      -0.0000033367     0.999997    0.00027201
   66      -16.4192803487      -0.0000032615     0.999997    0.00027131
   67      -16.4192835369      -0.0000031882     0.999997    0.00027057
   68      -16.4192866537      -0.0000031168     0.999997    0.00026979
   69      -16.4192897008      -0.0000030472     0.999997    0.00026896
   70      -16.4192926802      -0.0000029793     0.999997    0.00026810
   71      -16.4192955934      -0.0000029132     0.999997    0.00026720
   72      -16.4192984422      -0.0000028488     0.999997    0.00026626
   73      -16.4193012283      -0.0000027860     0.999997    0.00026529
   74      -16.4193039531      -0.0000027248     0.999997    0.00026429
   75      -16.4193066182      -0.0000026652     0.999997    0.00026326
   76      -16.4193092252      -0.0000026070     0.999997    0.00026221
   77      -16.4193117755      -0.0000025503     0.999997    0.00026112
   78      -16.4193142705      -0.0000024950     0.999998    0.00026002
   79      -16.4193167116      -0.0000024411     0.999998    0.00025889
   80      -16.4193191001      -0.0000023885     0.999998    0.00025774
   81      -16.4193214374      -0.0000023373     0.999998    0.00025657
   82      -16.4193237247      -0.0000022873     0.999998    0.00025538
   83      -16.4193259632      -0.0000022385     0.999998    0.00025417
   84      -16.4193281542      -0.0000021910     0.999998    0.00025294
   85      -16.4193302988      -0.0000021446     0.999998    0.00025171
   86      -16.4193323982      -0.0000020994     0.999998    0.00025045
   87      -16.4193344534      -0.0000020552     0.999998    0.00024919
   88      -16.4193364656      -0.0000020122     0.999998    0.00024791
   89      -16.4193384357      -0.0000019702     0.999998    0.00024662
   90      -16.4193403649      -0.0000019292     0.999998    0.00024533
   91      -16.4193422541      -0.0000018892     0.999998    0.00024402
   92      -16.4193441042      -0.0000018501     0.999998    0.00024271
   93      -16.4193459162      -0.0000018120     0.999998    0.00024138
   94      -16.4193476911      -0.0000017748     0.999998    0.00024006
   95      -16.4193494296      -0.0000017386     0.999998    0.00023872
   96      -16.4193511327      -0.0000017031     0.999998    0.00023738
   97      -16.4193528013      -0.0000016685     0.999998    0.00023604
   98      -16.4193544361      -0.0000016348     0.999998    0.00023469
   99      -16.4193560379      -0.0000016018     0.999998    0.00023334
  100      -16.4193576075      -0.0000015696     0.999998    0.00023199
  101      -16.4193591456      -0.0000015382     0.999998    0.00023063
  102      -16.4193606531      -0.0000015075     0.999998    0.00022928
  103      -16.4193621306      -0.0000014775     0.999998    0.00022792
  104      -16.4193635788      -0.0000014482     0.999998    0.00022656
  105      -16.4193649984      -0.0000014196     0.999998    0.00022521
  106      -16.4193663901      -0.0000013917     0.999998    0.00022385
  107      -16.4193677545      -0.0000013644     0.999998    0.00022249
  108      -16.4193690922      -0.0000013377     0.999998    0.00022114
  109      -16.4193704038      -0.0000013116     0.999998    0.00021979
  110      -16.4193716900      -0.0000012862     0.999998    0.00021844
  111      -16.4193729513      -0.0000012613     0.999998    0.00021709
  112      -16.4193741882      -0.0000012370     0.999998    0.00021574
  113      -16.4193754015      -0.0000012132     0.999998    0.00021440
  114      -16.4193765914      -0.0000011900     0.999998    0.00021306
  115      -16.4193777587      -0.0000011673     0.999998    0.00021173
  116      -16.4193789038      -0.0000011451     0.999998    0.00021040
  117      -16.4193800271      -0.0000011234     0.999998    0.00020907
  118      -16.4193811293      -0.0000011022     0.999998    0.00020775
  119      -16.4193822107      -0.0000010814     0.999998    0.00020643
  120      -16.4193832718      -0.0000010611     0.999998    0.00020511
  121      -16.4193843131      -0.0000010413     0.999998    0.00020381
  122      -16.4193853350      -0.0000010219     0.999999    0.00020250
  123      -16.4193863379      -0.0000010029     0.999999    0.00020121
  124      -16.4193873222      -0.0000009843     0.999999    0.00019991
  125      -16.4193882884      -0.0000009662     0.999999    0.00019863
  126      -16.4193892368      -0.0000009484     0.999999    0.00019735
  127      -16.4193901679      -0.0000009310     0.999999    0.00019607
  128      -16.4193910819      -0.0000009140     0.999999    0.00019480
  129      -16.4193919793      -0.0000008974     0.999999    0.00019354
  130      -16.4193928604      -0.0000008811     0.999999    0.00019229
  131      -16.4193937256      -0.0000008652     0.999999    0.00019104
  132      -16.4193945752      -0.0000008496     0.999999    0.00018979
  133      -16.4193954095      -0.0000008343     0.999999    0.00018856
  134      -16.4193962289      -0.0000008194     0.999999    0.00018733
  135      -16.4193970337      -0.0000008048     0.999999    0.00018611
  136      -16.4193978241      -0.0000007905     0.999999    0.00018489
  137      -16.4193986006      -0.0000007764     0.999999    0.00018368
  138      -16.4193993633      -0.0000007627     0.999999    0.00018248
  139      -16.4194001126      -0.0000007493     0.999999    0.00018128
  140      -16.4194008487      -0.0000007361     0.999999    0.00018010
  141      -16.4194015719      -0.0000007232     0.999999    0.00017892
  142      -16.4194022825      -0.0000007106     0.999999    0.00017774
  143      -16.4194029808      -0.0000006983     0.999999    0.00017658
  144      -16.4194036670      -0.0000006862     0.999999    0.00017542
  145      -16.4194043413      -0.0000006743     0.999999    0.00017427
  146      -16.4194050039      -0.0000006627     0.999999    0.00017312
  147      -16.4194056552      -0.0000006513     0.999999    0.00017199
  148      -16.4194062954      -0.0000006401     0.999999    0.00017086
  149      -16.4194069246      -0.0000006292     0.999999    0.00016973
  150      -16.4194075431      -0.0000006185     0.999999    0.00016862
  151      -16.4194081511      -0.0000006080     0.999999    0.00016751
  152      -16.4194087489      -0.0000005977     0.999999    0.00016641
  153      -16.4194093365      -0.0000005877     0.999999    0.00016532
  154      -16.4194099143      -0.0000005778     0.999999    0.00016423
  155      -16.4194104824      -0.0000005681     0.999999    0.00016315
  156      -16.4194110410      -0.0000005586     0.999999    0.00016208
  157      -16.4194115903      -0.0000005493     0.999999    0.00016102
  158      -16.4194121305      -0.0000005402     0.999999    0.00015996
  159      -16.4194126618      -0.0000005312     0.999999    0.00015891
  160      -16.4194131843      -0.0000005225     0.999999    0.00015787
  161      -16.4194136981      -0.0000005139     0.999999    0.00015684
  162      -16.4194142036      -0.0000005054     0.999999    0.00015581
  163      -16.4194147008      -0.0000004972     0.999999    0.00015479
  164      -16.4194151898      -0.0000004891     0.999999    0.00015378
  165      -16.4194156710      -0.0000004811     0.999999    0.00015277
  166      -16.4194161443      -0.0000004733     0.999999    0.00015177
  167      -16.4194166099      -0.0000004657     0.999999    0.00015078
  168      -16.4194170681      -0.0000004582     0.999999    0.00014980
  169      -16.4194175189      -0.0000004508     0.999999    0.00014882
  170      -16.4194179624      -0.0000004436     0.999999    0.00014785
  171      -16.4194183989      -0.0000004365     0.999999    0.00014689
  172      -16.4194188284      -0.0000004295     0.999999    0.00014593
  173      -16.4194192511      -0.0000004227     0.999999    0.00014498
  174      -16.4194196671      -0.0000004160     0.999999    0.00014404
  175      -16.4194200765      -0.0000004094     0.999999    0.00014310
  176      -16.4194204795      -0.0000004030     0.999999    0.00014217
  177      -16.4194208761      -0.0000003966     0.999999    0.00014125
  178      -16.4194212665      -0.0000003904     0.999999    0.00014034
  179      -16.4194216508      -0.0000003843     0.999999    0.00013943
  180      -16.4194220291      -0.0000003783     0.999999    0.00013853
  181      -16.4194224016      -0.0000003724     0.999999    0.00013763
  182      -16.4194227682      -0.0000003667     0.999999    0.00013674
  183      -16.4194231292      -0.0000003610     0.999999    0.00013586
  184      -16.4194234847      -0.0000003554     0.999999    0.00013498
  185      -16.4194238346      -0.0000003500     0.999999    0.00013411
  186      -16.4194241792      -0.0000003446     0.999999    0.00013325
  187      -16.4194245185      -0.0000003393     0.999999    0.00013240
  188      -16.4194248527      -0.0000003341     0.999999    0.00013154
  189      -16.4194251817      -0.0000003291     0.999999    0.00013070
  190      -16.4194255058      -0.0000003241     0.999999    0.00012986
  191      -16.4194258250      -0.0000003192     0.999999    0.00012903
  192      -16.4194261393      -0.0000003143     0.999999    0.00012821
  193      -16.4194264489      -0.0000003096     0.999999    0.00012739
  194      -16.4194267539      -0.0000003050     0.999999    0.00012657
  195      -16.4194270543      -0.0000003004     0.999999    0.00012577
  196      -16.4194273502      -0.0000002959     0.999999    0.00012497
  197      -16.4194276416      -0.0000002915     0.999999    0.00012417
  198      -16.4194279288      -0.0000002872     0.999999    0.00012338
  199      -16.4194282117      -0.0000002829     0.999999    0.00012260
  200      -16.4194284904      -0.0000002787     0.999999    0.00012182
  201      -16.4194287650      -0.0000002746     0.999999    0.00012105
  202      -16.4194290356      -0.0000002706     0.999999    0.00012028
  203      -16.4194293021      -0.0000002666     0.999999    0.00011952
  204      -16.4194295648      -0.0000002627     0.999999    0.00011877
  205      -16.4194298236      -0.0000002588     0.999999    0.00011802
  206      -16.4194300787      -0.0000002551     0.999999    0.00011727
  207      -16.4194303301      -0.0000002514     0.999999    0.00011654
  208      -16.4194305778      -0.0000002477     0.999999    0.00011580
  209      -16.4194308219      -0.0000002441     0.999999    0.00011508
  210      -16.4194310625      -0.0000002406     0.999999    0.00011435
  211      -16.4194312996      -0.0000002371     0.999999    0.00011364
  212      -16.4194315333      -0.0000002337     0.999999    0.00011293
  213      -16.4194317637      -0.0000002304     0.999999    0.00011222
  214      -16.4194319908      -0.0000002271     0.999999    0.00011152
  215      -16.4194322146      -0.0000002238     0.999999    0.00011082
  216      -16.4194324353      -0.0000002206     0.999999    0.00011013
  217      -16.4194326528      -0.0000002175     0.999999    0.00010945
  218      -16.4194328672      -0.0000002144     0.999999    0.00010877
  219      -16.4194330786      -0.0000002114     0.999999    0.00010809
  220      -16.4194332870      -0.0000002084     0.999999    0.00010742
  221      -16.4194334925      -0.0000002055     0.999999    0.00010675
  222      -16.4194336951      -0.0000002026     0.999999    0.00010609
  223      -16.4194338948      -0.0000001998     0.999999    0.00010544
  224      -16.4194340918      -0.0000001970     0.999999    0.00010479
  225      -16.4194342860      -0.0000001942     0.999999    0.00010414
  226      -16.4194344775      -0.0000001915     0.999999    0.00010350
  227      -16.4194346663      -0.0000001888     0.999999    0.00010286
  228      -16.4194348526      -0.0000001862     0.999999    0.00010223
  229      -16.4194350362      -0.0000001837     0.999999    0.00010160
  230      -16.4194352173      -0.0000001811     0.999999    0.00010098
  231      -16.4194353960      -0.0000001786     0.999999    0.00010036
  232      -16.4194355721      -0.0000001762     0.999999    0.00009975
  233      -16.4194357459      -0.0000001737     0.999999    0.00009914
  234      -16.4194359172      -0.0000001714     0.999999    0.00009853
  235      -16.4194360863      -0.0000001690     0.999999    0.00009793
  236      -16.4194362530      -0.0000001667     0.999999    0.00009734
  237      -16.4194364175      -0.0000001645     0.999999    0.00009675
  238      -16.4194365797      -0.0000001622     0.999999    0.00009616
  239      -16.4194367397      -0.0000001600     0.999999    0.00009557
  240      -16.4194368976      -0.0000001579     0.999999    0.00009499
  241      -16.4194370533      -0.0000001557     0.999999    0.00009442
  242      -16.4194372069      -0.0000001536     0.999999    0.00009385
  243      -16.4194373585      -0.0000001516     0.999999    0.00009328
  244      -16.4194375081      -0.0000001495     0.999999    0.00009272
  245      -16.4194376556      -0.0000001475     0.999999    0.00009216
  246      -16.4194378012      -0.0000001456     0.999999    0.00009161
  247      -16.4194379448      -0.0000001436     0.999999    0.00009106
  248      -16.4194380865      -0.0000001417     0.999999    0.00009051
  249      -16.4194382263      -0.0000001398     0.999999    0.00008997
  250      -16.4194383643      -0.0000001380     0.999999    0.00008943
  251      -16.4194385005      -0.0000001362     0.999999    0.00008889
  252      -16.4194386348      -0.0000001344     0.999999    0.00008836
  253      -16.4194387674      -0.0000001326     0.999999    0.00008783
  254      -16.4194388982      -0.0000001308     0.999999    0.00008731
  255      -16.4194390274      -0.0000001291     0.999999    0.00008679
  256      -16.4194391548      -0.0000001274     0.999999    0.00008627
  257      -16.4194392806      -0.0000001258     0.999999    0.00008576
  258      -16.4194394047      -0.0000001241     0.999999    0.00008525
  259      -16.4194395272      -0.0000001225     0.999999    0.00008474
  260      -16.4194396481      -0.0000001209     0.999999    0.00008424
  261      -16.4194397674      -0.0000001193     0.999999    0.00008374
  262      -16.4194398852      -0.0000001178     0.999999    0.00008325
  263      -16.4194400015      -0.0000001163     0.999999    0.00008276
  264      -16.4194401163      -0.0000001148     0.999999    0.00008227
  265      -16.4194402296      -0.0000001133     0.999999    0.00008178
  266      -16.4194403414      -0.0000001118     0.999999    0.00008130
  267      -16.4194404518      -0.0000001104     0.999999    0.00008082
  268      -16.4194405607      -0.0000001090     0.999999    0.00008035
  269      -16.4194406683      -0.0000001076     0.999999    0.00007988
  270      -16.4194407745      -0.0000001062     0.999999    0.00007941
  271      -16.4194408794      -0.0000001049     0.999999    0.00007895
  272      -16.4194409829      -0.0000001035     0.999999    0.00007848
  273      -16.4194410851      -0.0000001022     1.000000    0.00007803
  274      -16.4194411860      -0.0000001009     1.000000    0.00007757
  275      -16.4194412856      -0.0000000996     1.000000    0.00007712
  276      -16.4194413840      -0.0000000984     1.000000    0.00007667
  277      -16.4194414811      -0.0000000971     1.000000    0.00007622
  278      -16.4194415770      -0.0000000959     1.000000    0.00007578
  279      -16.4194416717      -0.0000000947     1.000000    0.00007534
  280      -16.4194417652      -0.0000000935     1.000000    0.00007490
  281      -16.4194418575      -0.0000000923     1.000000    0.00007447
  282      -16.4194419487      -0.0000000912     1.000000    0.00007404
  283      -16.4194420387      -0.0000000900     1.000000    0.00007361
  284      -16.4194421276      -0.0000000889     1.000000    0.00007319
  285      -16.4194422154      -0.0000000878     1.000000    0.00007276
  286      -16.4194423021      -0.0000000867     1.000000    0.00007235
  287      -16.4194423878      -0.0000000856     1.000000    0.00007193
  288      -16.4194424723      -0.0000000846     1.000000    0.00007152
  289      -16.4194425558      -0.0000000835     1.000000    0.00007110
  290      -16.4194426383      -0.0000000825     1.000000    0.00007070
  291      -16.4194427198      -0.0000000815     1.000000    0.00007029
  292      -16.4194428003      -0.0000000805     1.000000    0.00006989
  293      -16.4194428797      -0.0000000795     1.000000    0.00006949
  294      -16.4194429582      -0.0000000785     1.000000    0.00006909
  295      -16.4194430357      -0.0000000775     1.000000    0.00006870
  296      -16.4194431123      -0.0000000766     1.000000    0.00006831
  297      -16.4194431880      -0.0000000756     1.000000    0.00006792
  298      -16.4194432627      -0.0000000747     1.000000    0.00006753
  299      -16.4194433365      -0.0000000738     1.000000    0.00006715
  300      -16.4194434094      -0.0000000729     1.000000    0.00006676
  301      -16.4194434814      -0.0000000720     1.000000    0.00006638
  302      -16.4194435526      -0.0000000711     1.000000    0.00006601
  303      -16.4194436228      -0.0000000703     1.000000    0.00006563
  304      -16.4194436923      -0.0000000694     1.000000    0.00006526
  305      -16.4194437609      -0.0000000686     1.000000    0.00006489
  306      -16.4194438286      -0.0000000678     1.000000    0.00006453
  307      -16.4194438956      -0.0000000669     1.000000    0.00006416
  308      -16.4194439617      -0.0000000661     1.000000    0.00006380
  309      -16.4194440271      -0.0000000653     1.000000    0.00006344
  310      -16.4194440916      -0.0000000646     1.000000    0.00006309
  311      -16.4194441554      -0.0000000638     1.000000    0.00006273
  312      -16.4194442184      -0.0000000630     1.000000    0.00006238
  313      -16.4194442807      -0.0000000623     1.000000    0.00006203
  314      -16.4194443422      -0.0000000615     1.000000    0.00006168
  315      -16.4194444030      -0.0000000608     1.000000    0.00006134
  316      -16.4194444631      -0.0000000601     1.000000    0.00006099
  317      -16.4194445224      -0.0000000593     1.000000    0.00006065
  318      -16.4194445810      -0.0000000586     1.000000    0.00006031
  319      -16.4194446390      -0.0000000579     1.000000    0.00005998
  320      -16.4194446963      -0.0000000573     1.000000    0.00005964
  321      -16.4194447528      -0.0000000566     1.000000    0.00005931
  322      -16.4194448088      -0.0000000559     1.000000    0.00005898
  323      -16.4194448640      -0.0000000553     1.000000    0.00005865
  324      -16.4194449186      -0.0000000546     1.000000    0.00005832
  325      -16.4194449726      -0.0000000540     1.000000    0.00005800
  326      -16.4194450259      -0.0000000533     1.000000    0.00005768
  327      -16.4194450786      -0.0000000527     1.000000    0.00005736
  328      -16.4194451307      -0.0000000521     1.000000    0.00005704
  329      -16.4194451822      -0.0000000515     1.000000    0.00005673
  330      -16.4194452330      -0.0000000509     1.000000    0.00005641
  331      -16.4194452833      -0.0000000503     1.000000    0.00005610
  332      -16.4194453330      -0.0000000497     1.000000    0.00005579
  333      -16.4194453821      -0.0000000491     1.000000    0.00005548
  334      -16.4194454306      -0.0000000485     1.000000    0.00005518
  335      -16.4194454786      -0.0000000480     1.000000    0.00005488
  336      -16.4194455260      -0.0000000474     1.000000    0.00005457
  337      -16.4194455729      -0.0000000469     1.000000    0.00005427
  338      -16.4194456192      -0.0000000463     1.000000    0.00005398
  339      -16.4194456650      -0.0000000458     1.000000    0.00005368
  340      -16.4194457103      -0.0000000453     1.000000    0.00005339
  341      -16.4194457550      -0.0000000447     1.000000    0.00005309
  342      -16.4194457992      -0.0000000442     1.000000    0.00005280
  343      -16.4194458429      -0.0000000437     1.000000    0.00005251
  344      -16.4194458861      -0.0000000432     1.000000    0.00005223
  345      -16.4194459288      -0.0000000427     1.000000    0.00005194
  346      -16.4194459711      -0.0000000422     1.000000    0.00005166
  347      -16.4194460128      -0.0000000417     1.000000    0.00005138
  348      -16.4194460540      -0.0000000413     1.000000    0.00005110
  349      -16.4194460948      -0.0000000408     1.000000    0.00005082
  350      -16.4194461352      -0.0000000403     1.000000    0.00005054
  351      -16.4194461750      -0.0000000399     1.000000    0.00005027
  352      -16.4194462144      -0.0000000394     1.000000    0.00005000
  353      -16.4194462534      -0.0000000390     1.000000    0.00004972
  354      -16.4194462919      -0.0000000385     1.000000    0.00004946
  355      -16.4194463300      -0.0000000381     1.000000    0.00004919
  356      -16.4194463676      -0.0000000376     1.000000    0.00004892
  357      -16.4194464048      -0.0000000372     1.000000    0.00004866
  358      -16.4194464416      -0.0000000368     1.000000    0.00004839
  359      -16.4194464780      -0.0000000364     1.000000    0.00004813
  360      -16.4194465140      -0.0000000360     1.000000    0.00004787
  361      -16.4194465495      -0.0000000356     1.000000    0.00004761
  362      -16.4194465847      -0.0000000352     1.000000    0.00004736
  363      -16.4194466194      -0.0000000348     1.000000    0.00004710
  364      -16.4194466538      -0.0000000344     1.000000    0.00004685
  365      -16.4194466878      -0.0000000340     1.000000    0.00004660
  366      -16.4194467214      -0.0000000336     1.000000    0.00004635
  367      -16.4194467546      -0.0000000332     1.000000    0.00004610
  368      -16.4194467875      -0.0000000329     1.000000    0.00004585
  369      -16.4194468200      -0.0000000325     1.000000    0.00004561
  370      -16.4194468521      -0.0000000321     1.000000    0.00004536
  371      -16.4194468839      -0.0000000318     1.000000    0.00004512
  372      -16.4194469153      -0.0000000314     1.000000    0.00004488
  373      -16.4194469463      -0.0000000311     1.000000    0.00004464
  374      -16.4194469770      -0.0000000307     1.000000    0.00004440
  375      -16.4194470074      -0.0000000304     1.000000    0.00004416
  376      -16.4194470374      -0.0000000300     1.000000    0.00004393
  377      -16.4194470671      -0.0000000297     1.000000    0.00004369
  378      -16.4194470965      -0.0000000294     1.000000    0.00004346
  379      -16.4194471256      -0.0000000290     1.000000    0.00004323
  380      -16.4194471543      -0.0000000287     1.000000    0.00004300
  381      -16.4194471827      -0.0000000284     1.000000    0.00004277
  382      -16.4194472108      -0.0000000281     1.000000    0.00004254
  383      -16.4194472385      -0.0000000278     1.000000    0.00004232
  384      -16.4194472660      -0.0000000275     1.000000    0.00004209
  385      -16.4194472932      -0.0000000272     1.000000    0.00004187
  386      -16.4194473201      -0.0000000269     1.000000    0.00004165
  387      -16.4194473466      -0.0000000266     1.000000    0.00004143
  388      -16.4194473729      -0.0000000263     1.000000    0.00004121
  389      -16.4194473989      -0.0000000260     1.000000    0.00004099
  390      -16.4194474246      -0.0000000257     1.000000    0.00004077
  391      -16.4194474500      -0.0000000254     1.000000    0.00004056
  392      -16.4194474752      -0.0000000251     1.000000    0.00004035
  393      -16.4194475001      -0.0000000249     1.000000    0.00004013
  394      -16.4194475247      -0.0000000246     1.000000    0.00003992
  395      -16.4194475490      -0.0000000243     1.000000    0.00003971
  396      -16.4194475731      -0.0000000241     1.000000    0.00003950
  397      -16.4194475969      -0.0000000238     1.000000    0.00003929
  398      -16.4194476204      -0.0000000235     1.000000    0.00003909
  399      -16.4194476437      -0.0000000233     1.000000    0.00003888
  400      -16.4194476667      -0.0000000230     1.000000    0.00003868
  401      -16.4194476895      -0.0000000228     1.000000    0.00003848
  402      -16.4194477120      -0.0000000225     1.000000    0.00003827
  403      -16.4194477343      -0.0000000223     1.000000    0.00003807
  404      -16.4194477564      -0.0000000220     1.000000    0.00003787
  405      -16.4194477782      -0.0000000218     1.000000    0.00003768
  406      -16.4194477998      -0.0000000216     1.000000    0.00003748
  407      -16.4194478211      -0.0000000213     1.000000    0.00003728
  408      -16.4194478422      -0.0000000211     1.000000    0.00003709
  409      -16.4194478631      -0.0000000209     1.000000    0.00003689
  410      -16.4194478837      -0.0000000207     1.000000    0.00003670
  411      -16.4194479042      -0.0000000204     1.000000    0.00003651
  412      -16.4194479244      -0.0000000202     1.000000    0.00003632
  413      -16.4194479444      -0.0000000200     1.000000    0.00003613
  414      -16.4194479642      -0.0000000198     1.000000    0.00003594
  415      -16.4194479837      -0.0000000196     1.000000    0.00003576
  416      -16.4194480031      -0.0000000194     1.000000    0.00003557
  417      -16.4194480222      -0.0000000191     1.000000    0.00003539
  418      -16.4194480412      -0.0000000189     1.000000    0.00003520
  419      -16.4194480599      -0.0000000187     1.000000    0.00003502
  420      -16.4194480785      -0.0000000185     1.000000    0.00003484
  421      -16.4194480968      -0.0000000183     1.000000    0.00003466
  422      -16.4194481149      -0.0000000181     1.000000    0.00003448
  423      -16.4194481329      -0.0000000180     1.000000    0.00003430
  424      -16.4194481507      -0.0000000178     1.000000    0.00003412
  425      -16.4194481682      -0.0000000176     1.000000    0.00003394
  426      -16.4194481856      -0.0000000174     1.000000    0.00003377
  427      -16.4194482028      -0.0000000172     1.000000    0.00003359
  428      -16.4194482198      -0.0000000170     1.000000    0.00003342
  429      -16.4194482367      -0.0000000168     1.000000    0.00003325
  430      -16.4194482533      -0.0000000167     1.000000    0.00003308
  431      -16.4194482698      -0.0000000165     1.000000    0.00003291
  432      -16.4194482861      -0.0000000163     1.000000    0.00003274
  433      -16.4194483022      -0.0000000161     1.000000    0.00003257
  434      -16.4194483182      -0.0000000160     1.000000    0.00003240
  435      -16.4194483340      -0.0000000158     1.000000    0.00003223
  436      -16.4194483496      -0.0000000156     1.000000    0.00003207
  437      -16.4194483650      -0.0000000155     1.000000    0.00003190
  438      -16.4194483803      -0.0000000153     1.000000    0.00003174
  439      -16.4194483955      -0.0000000151     1.000000    0.00003158
  440      -16.4194484104      -0.0000000150     1.000000    0.00003141
  441      -16.4194484253      -0.0000000148     1.000000    0.00003125
  442      -16.4194484399      -0.0000000147     1.000000    0.00003109
  443      -16.4194484544      -0.0000000145     1.000000    0.00003093
  444      -16.4194484688      -0.0000000144     1.000000    0.00003078
  445      -16.4194484830      -0.0000000142     1.000000    0.00003062
  446      -16.4194484970      -0.0000000141     1.000000    0.00003046
  447      -16.4194485109      -0.0000000139     1.000000    0.00003031
  448      -16.4194485247      -0.0000000138     1.000000    0.00003015
  449      -16.4194485383      -0.0000000136     1.000000    0.00003000
  450      -16.4194485518      -0.0000000135     1.000000    0.00002984
  451      -16.4194485651      -0.0000000133     1.000000    0.00002969
  452      -16.4194485783      -0.0000000132     1.000000    0.00002954
  453      -16.4194485913      -0.0000000131     1.000000    0.00002939
  454      -16.4194486042      -0.0000000129     1.000000    0.00002924
  455      -16.4194486170      -0.0000000128     1.000000    0.00002909
  456      -16.4194486297      -0.0000000126     1.000000    0.00002894
  457      -16.4194486422      -0.0000000125     1.000000    0.00002879
  458      -16.4194486546      -0.0000000124     1.000000    0.00002865
  459      -16.4194486668      -0.0000000123     1.000000    0.00002850
  460      -16.4194486789      -0.0000000121     1.000000    0.00002836
  461      -16.4194486909      -0.0000000120     1.000000    0.00002821
  462      -16.4194487028      -0.0000000119     1.000000    0.00002807
  463      -16.4194487146      -0.0000000118     1.000000    0.00002793
  464      -16.4194487262      -0.0000000116     1.000000    0.00002779
  465      -16.4194487377      -0.0000000115     1.000000    0.00002764
  466      -16.4194487491      -0.0000000114     1.000000    0.00002750
  467      -16.4194487604      -0.0000000113     1.000000    0.00002737
  468      -16.4194487715      -0.0000000112     1.000000    0.00002723
  469      -16.4194487826      -0.0000000110     1.000000    0.00002709
  470      -16.4194487935      -0.0000000109     1.000000    0.00002695
  471      -16.4194488043      -0.0000000108     1.000000    0.00002682
  472      -16.4194488150      -0.0000000107     1.000000    0.00002668
  473      -16.4194488256      -0.0000000106     1.000000    0.00002655
  474      -16.4194488361      -0.0000000105     1.000000    0.00002641
  475      -16.4194488464      -0.0000000104     1.000000    0.00002628
  476      -16.4194488567      -0.0000000103     1.000000    0.00002615
  477      -16.4194488669      -0.0000000102     1.000000    0.00002601
  478      -16.4194488769      -0.0000000101     1.000000    0.00002588
  479      -16.4194488869      -0.0000000099     1.000000    0.00002575
  480      -16.4194488967      -0.0000000098     1.000000    0.00002562
  481      -16.4194489065      -0.0000000097     1.000000    0.00002549
  482      -16.4194489161      -0.0000000096     1.000000    0.00002536
  483      -16.4194489256      -0.0000000095     1.000000    0.00002524
  484      -16.4194489351      -0.0000000094     1.000000    0.00002511
  485      -16.4194489444      -0.0000000094     1.000000    0.00002498
  486      -16.4194489537      -0.0000000093     1.000000    0.00002486
  487      -16.4194489629      -0.0000000092     1.000000    0.00002473
  488      -16.4194489719      -0.0000000091     1.000000    0.00002461
  489      -16.4194489809      -0.0000000090     1.000000    0.00002449
  490      -16.4194489898      -0.0000000089     1.000000    0.00002436
  491      -16.4194489986      -0.0000000088     1.000000    0.00002424
  492      -16.4194490073      -0.0000000087     1.000000    0.00002412
  493      -16.4194490159      -0.0000000086     1.000000    0.00002400
  494      -16.4194490244      -0.0000000085     1.000000    0.00002388
  495      -16.4194490328      -0.0000000084     1.000000    0.00002376
  496      -16.4194490412      -0.0000000083     1.000000    0.00002364
  497      -16.4194490494      -0.0000000083     1.000000    0.00002352
  498      -16.4194490576      -0.0000000082     1.000000    0.00002340
  499      -16.4194490657      -0.0000000081     1.000000    0.00002329
  500      -16.4194490737      -0.0000000080     1.000000    0.00002317
  501      -16.4194490817      -0.0000000079     1.000000    0.00002305
  502      -16.4194490895      -0.0000000079     1.000000    0.00002294
  503      -16.4194490973      -0.0000000078     1.000000    0.00002282
  504      -16.4194491050      -0.0000000077     1.000000    0.00002271
  505      -16.4194491126      -0.0000000076     1.000000    0.00002260
  506      -16.4194491201      -0.0000000075     1.000000    0.00002248
  507      -16.4194491276      -0.0000000075     1.000000    0.00002237
  508      -16.4194491350      -0.0000000074     1.000000    0.00002226
  509      -16.4194491423      -0.0000000073     1.000000    0.00002215
  510      -16.4194491495      -0.0000000072     1.000000    0.00002204
  511      -16.4194491567      -0.0000000072     1.000000    0.00002193
  512      -16.4194491638      -0.0000000071     1.000000    0.00002182
  513      -16.4194491708      -0.0000000070     1.000000    0.00002171
  514      -16.4194491777      -0.0000000069     1.000000    0.00002160
  515      -16.4194491846      -0.0000000069     1.000000    0.00002150
  516      -16.4194491914      -0.0000000068     1.000000    0.00002139
  517      -16.4194491982      -0.0000000067     1.000000    0.00002128
  518      -16.4194492048      -0.0000000067     1.000000    0.00002118
  519      -16.4194492114      -0.0000000066     1.000000    0.00002107
  520      -16.4194492180      -0.0000000065     1.000000    0.00002097
  521      -16.4194492244      -0.0000000065     1.000000    0.00002086
  522      -16.4194492308      -0.0000000064     1.000000    0.00002076
  523      -16.4194492372      -0.0000000063     1.000000    0.00002066
  524      -16.4194492435      -0.0000000063     1.000000    0.00002056
  525      -16.4194492497      -0.0000000062     1.000000    0.00002045
  526      -16.4194492558      -0.0000000062     1.000000    0.00002035
  527      -16.4194492619      -0.0000000061     1.000000    0.00002025
  528      -16.4194492679      -0.0000000060     1.000000    0.00002015
  529      -16.4194492739      -0.0000000060     1.000000    0.00002005
  530      -16.4194492798      -0.0000000059     1.000000    0.00001995
  531      -16.4194492857      -0.0000000058     1.000000    0.00001985
  532      -16.4194492914      -0.0000000058     1.000000    0.00001976
  533      -16.4194492972      -0.0000000057     1.000000    0.00001966
  534      -16.4194493028      -0.0000000057     1.000000    0.00001956
  535      -16.4194493085      -0.0000000056     1.000000    0.00001946
  536      -16.4194493140      -0.0000000056     1.000000    0.00001937
  537      -16.4194493195      -0.0000000055     1.000000    0.00001927
  538      -16.4194493250      -0.0000000054     1.000000    0.00001918
  539      -16.4194493304      -0.0000000054     1.000000    0.00001908
  540      -16.4194493357      -0.0000000053     1.000000    0.00001899
  541      -16.4194493410      -0.0000000053     1.000000    0.00001890
  542      -16.4194493462      -0.0000000052     1.000000    0.00001880
  543      -16.4194493514      -0.0000000052     1.000000    0.00001871
  544      -16.4194493565      -0.0000000051     1.000000    0.00001862
  545      -16.4194493616      -0.0000000051     1.000000    0.00001853
  546      -16.4194493666      -0.0000000050     1.000000    0.00001843
  547      -16.4194493716      -0.0000000050     1.000000    0.00001834
  548      -16.4194493765      -0.0000000049     1.000000    0.00001825
  549      -16.4194493814      -0.0000000049     1.000000    0.00001816
  550      -16.4194493863      -0.0000000048     1.000000    0.00001807
  551      -16.4194493910      -0.0000000048     1.000000    0.00001799
  552      -16.4194493958      -0.0000000047     1.000000    0.00001790
  553      -16.4194494005      -0.0000000047     1.000000    0.00001781
  554      -16.4194494051      -0.0000000046     1.000000    0.00001772
  555      -16.4194494097      -0.0000000046     1.000000    0.00001763
  556      -16.4194494142      -0.0000000045     1.000000    0.00001755
  557      -16.4194494187      -0.0000000045     1.000000    0.00001746
  558      -16.4194494232      -0.0000000045     1.000000    0.00001738
  559      -16.4194494276      -0.0000000044     1.000000    0.00001729
  560      -16.4194494320      -0.0000000044     1.000000    0.00001721
  561      -16.4194494363      -0.0000000043     1.000000    0.00001712
  562      -16.4194494406      -0.0000000043     1.000000    0.00001704
  563      -16.4194494448      -0.0000000042     1.000000    0.00001695
  564      -16.4194494490      -0.0000000042     1.000000    0.00001687
  565      -16.4194494532      -0.0000000042     1.000000    0.00001679
  566      -16.4194494573      -0.0000000041     1.000000    0.00001671
  567      -16.4194494614      -0.0000000041     1.000000    0.00001663
  568      -16.4194494654      -0.0000000040     1.000000    0.00001654
  569      -16.4194494694      -0.0000000040     1.000000    0.00001646
  570      -16.4194494734      -0.0000000040     1.000000    0.00001638
  571      -16.4194494773      -0.0000000039     1.000000    0.00001630
  572      -16.4194494812      -0.0000000039     1.000000    0.00001622
  573      -16.4194494850      -0.0000000038     1.000000    0.00001614
  574      -16.4194494888      -0.0000000038     1.000000    0.00001606
  575      -16.4194494926      -0.0000000038     1.000000    0.00001599
  576      -16.4194494963      -0.0000000037     1.000000    0.00001591
  577      -16.4194495000      -0.0000000037     1.000000    0.00001583
  578      -16.4194495036      -0.0000000037     1.000000    0.00001575
  579      -16.4194495072      -0.0000000036     1.000000    0.00001568
  580      -16.4194495108      -0.0000000036     1.000000    0.00001560
  581      -16.4194495144      -0.0000000035     1.000000    0.00001552
  582      -16.4194495179      -0.0000000035     1.000000    0.00001545
  583      -16.4194495214      -0.0000000035     1.000000    0.00001537
  584      -16.4194495248      -0.0000000034     1.000000    0.00001530
  585      -16.4194495282      -0.0000000034     1.000000    0.00001522
  586      -16.4194495316      -0.0000000034     1.000000    0.00001515
  587      -16.4194495349      -0.0000000033     1.000000    0.00001508
  588      -16.4194495382      -0.0000000033     1.000000    0.00001500
  589      -16.4194495415      -0.0000000033     1.000000    0.00001493
  590      -16.4194495447      -0.0000000032     1.000000    0.00001486
  591      -16.4194495480      -0.0000000032     1.000000    0.00001478
  592      -16.4194495511      -0.0000000032     1.000000    0.00001471
  593      -16.4194495543      -0.0000000031     1.000000    0.00001464
  594      -16.4194495574      -0.0000000031     1.000000    0.00001457
  595      -16.4194495605      -0.0000000031     1.000000    0.00001450
  596      -16.4194495636      -0.0000000031     1.000000    0.00001443
  597      -16.4194495666      -0.0000000030     1.000000    0.00001436
  598      -16.4194495696      -0.0000000030     1.000000    0.00001429
  599      -16.4194495725      -0.0000000030     1.000000    0.00001422
  600      -16.4194495755      -0.0000000029     1.000000    0.00001415
  601      -16.4194495784      -0.0000000029     1.000000    0.00001408
  602      -16.4194495813      -0.0000000029     1.000000    0.00001401
  603      -16.4194495841      -0.0000000029     1.000000    0.00001395
  604      -16.4194495870      -0.0000000028     1.000000    0.00001388
  605      -16.4194495897      -0.0000000028     1.000000    0.00001381
  606      -16.4194495925      -0.0000000028     1.000000    0.00001374
  607      -16.4194495953      -0.0000000027     1.000000    0.00001368
  608      -16.4194495980      -0.0000000027     1.000000    0.00001361
  609      -16.4194496007      -0.0000000027     1.000000    0.00001355
  610      -16.4194496033      -0.0000000027     1.000000    0.00001348
  611      -16.4194496060      -0.0000000026     1.000000    0.00001341
  612      -16.4194496086      -0.0000000026     1.000000    0.00001335
  613      -16.4194496112      -0.0000000026     1.000000    0.00001328
  614      -16.4194496137      -0.0000000026     1.000000    0.00001322
  615      -16.4194496163      -0.0000000025     1.000000    0.00001316
  616      -16.4194496188      -0.0000000025     1.000000    0.00001309
  617      -16.4194496213      -0.0000000025     1.000000    0.00001303
  618      -16.4194496237      -0.0000000025     1.000000    0.00001297
  619      -16.4194496262      -0.0000000024     1.000000    0.00001290
  620      -16.4194496286      -0.0000000024     1.000000    0.00001284
  621      -16.4194496310      -0.0000000024     1.000000    0.00001278
  622      -16.4194496333      -0.0000000024     1.000000    0.00001272
  623      -16.4194496357      -0.0000000023     1.000000    0.00001266
  624      -16.4194496380      -0.0000000023     1.000000    0.00001260
  625      -16.4194496403      -0.0000000023     1.000000    0.00001253
  626      -16.4194496426      -0.0000000023     1.000000    0.00001247
  627      -16.4194496448      -0.0000000023     1.000000    0.00001241
  628      -16.4194496471      -0.0000000022     1.000000    0.00001235
  629      -16.4194496493      -0.0000000022     1.000000    0.00001229
  630      -16.4194496515      -0.0000000022     1.000000    0.00001224
  631      -16.4194496536      -0.0000000022     1.000000    0.00001218
  632      -16.4194496558      -0.0000000021     1.000000    0.00001212
  633      -16.4194496579      -0.0000000021     1.000000    0.00001206
  634      -16.4194496600      -0.0000000021     1.000000    0.00001200
  635      -16.4194496621      -0.0000000021     1.000000    0.00001194
  636      -16.4194496642      -0.0000000021     1.000000    0.00001189
  637      -16.4194496662      -0.0000000020     1.000000    0.00001183
  638      -16.4194496682      -0.0000000020     1.000000    0.00001177
  639      -16.4194496702      -0.0000000020     1.000000    0.00001171
  640      -16.4194496722      -0.0000000020     1.000000    0.00001166
  641      -16.4194496742      -0.0000000020     1.000000    0.00001160
  642      -16.4194496761      -0.0000000019     1.000000    0.00001155
  643      -16.4194496781      -0.0000000019     1.000000    0.00001149
  644      -16.4194496800      -0.0000000019     1.000000    0.00001144
  645      -16.4194496819      -0.0000000019     1.000000    0.00001138
  646      -16.4194496837      -0.0000000019     1.000000    0.00001133
  647      -16.4194496856      -0.0000000019     1.000000    0.00001127
  648      -16.4194496874      -0.0000000018     1.000000    0.00001122
  649      -16.4194496892      -0.0000000018     1.000000    0.00001116
  650      -16.4194496910      -0.0000000018     1.000000    0.00001111
  651      -16.4194496928      -0.0000000018     1.000000    0.00001106
  652      -16.4194496946      -0.0000000018     1.000000    0.00001100
  653      -16.4194496963      -0.0000000017     1.000000    0.00001095
  654      -16.4194496981      -0.0000000017     1.000000    0.00001090
  655      -16.4194496998      -0.0000000017     1.000000    0.00001085
  656      -16.4194497015      -0.0000000017     1.000000    0.00001079
  657      -16.4194497032      -0.0000000017     1.000000    0.00001074
  658      -16.4194497048      -0.0000000017     1.000000    0.00001069
  659      -16.4194497065      -0.0000000017     1.000000    0.00001064
  660      -16.4194497081      -0.0000000016     1.000000    0.00001059
  661      -16.4194497097      -0.0000000016     1.000000    0.00001054
  662      -16.4194497113      -0.0000000016     1.000000    0.00001049
  663      -16.4194497129      -0.0000000016     1.000000    0.00001044
  664      -16.4194497145      -0.0000000016     1.000000    0.00001039
  665      -16.4194497161      -0.0000000016     1.000000    0.00001034
  666      -16.4194497176      -0.0000000015     1.000000    0.00001029
  667      -16.4194497191      -0.0000000015     1.000000    0.00001024
  668      -16.4194497206      -0.0000000015     1.000000    0.00001019
  669      -16.4194497221      -0.0000000015     1.000000    0.00001014
  670      -16.4194497236      -0.0000000015     1.000000    0.00001009
  671      -16.4194497251      -0.0000000015     1.000000    0.00001004
  672      -16.4194497265      -0.0000000015     1.000000    0.00001000
  673      -16.4194497280      -0.0000000014     1.000000    0.00000995
  674      -16.4194497294      -0.0000000014     1.000000    0.00000990
  675      -16.4194497308      -0.0000000014     1.000000    0.00000985
  676      -16.4194497322      -0.0000000014     1.000000    0.00000981
  677      -16.4194497336      -0.0000000014     1.000000    0.00000976
  678      -16.4194497350      -0.0000000014     1.000000    0.00000971
  679      -16.4194497363      -0.0000000014     1.000000    0.00000967
  680      -16.4194497377      -0.0000000013     1.000000    0.00000962
  681      -16.4194497390      -0.0000000013     1.000000    0.00000957
  682      -16.4194497403      -0.0000000013     1.000000    0.00000953
  683      -16.4194497417      -0.0000000013     1.000000    0.00000948
  684      -16.4194497429      -0.0000000013     1.000000    0.00000944
  685      -16.4194497442      -0.0000000013     1.000000    0.00000939
  686      -16.4194497455      -0.0000000013     1.000000    0.00000935
  687      -16.4194497468      -0.0000000013     1.000000    0.00000930
  688      -16.4194497480      -0.0000000012     1.000000    0.00000926
  689      -16.4194497492      -0.0000000012     1.000000    0.00000921
  690      -16.4194497505      -0.0000000012     1.000000    0.00000917
  691      -16.4194497517      -0.0000000012     1.000000    0.00000913
  692      -16.4194497529      -0.0000000012     1.000000    0.00000908
  693      -16.4194497541      -0.0000000012     1.000000    0.00000904
  694      -16.4194497552      -0.0000000012     1.000000    0.00000900
  695      -16.4194497564      -0.0000000012     1.000000    0.00000895
  696      -16.4194497576      -0.0000000012     1.000000    0.00000891
  697      -16.4194497587      -0.0000000011     1.000000    0.00000887
  698      -16.4194497598      -0.0000000011     1.000000    0.00000883
  699      -16.4194497610      -0.0000000011     1.000000    0.00000878
  700      -16.4194497621      -0.0000000011     1.000000    0.00000874
  701      -16.4194497632      -0.0000000011     1.000000    0.00000870
  702      -16.4194497643      -0.0000000011     1.000000    0.00000866
  703      -16.4194497653      -0.0000000011     1.000000    0.00000862
  704      -16.4194497664      -0.0000000011     1.000000    0.00000858
  705      -16.4194497675      -0.0000000011     1.000000    0.00000854
  706      -16.4194497685      -0.0000000010     1.000000    0.00000849
  707      -16.4194497695      -0.0000000010     1.000000    0.00000845
  708      -16.4194497706      -0.0000000010     1.000000    0.00000841
  709      -16.4194497716      -0.0000000010     1.000000    0.00000837
  710      -16.4194497726      -0.0000000010     1.000000    0.00000833
  711      -16.4194497736      -0.0000000010     1.000000    0.00000829
  712      -16.4194497746      -0.0000000010     1.000000    0.00000825
  713      -16.4194497756      -0.0000000010     1.000000    0.00000822
  714      -16.4194497765      -0.0000000010     1.000000    0.00000818
  715      -16.4194497775      -0.0000000010     1.000000    0.00000814
  716      -16.4194497784      -0.0000000010     1.000000    0.00000810
  717      -16.4194497794      -0.0000000009     1.000000    0.00000806
  718      -16.4194497803      -0.0000000009     1.000000    0.00000802
  719      -16.4194497812      -0.0000000009     1.000000    0.00000798
  720      -16.4194497822      -0.0000000009     1.000000    0.00000795
  721      -16.4194497831      -0.0000000009     1.000000    0.00000791
  722      -16.4194497840      -0.0000000009     1.000000    0.00000787
  723      -16.4194497849      -0.0000000009     1.000000    0.00000783
  724      -16.4194497857      -0.0000000009     1.000000    0.00000780
  725      -16.4194497866      -0.0000000009     1.000000    0.00000776
  726      -16.4194497875      -0.0000000009     1.000000    0.00000772
  727      -16.4194497883      -0.0000000009     1.000000    0.00000769
  728      -16.4194497892      -0.0000000008     1.000000    0.00000765
  729      -16.4194497900      -0.0000000008     1.000000    0.00000761
  730      -16.4194497909      -0.0000000008     1.000000    0.00000758
  731      -16.4194497917      -0.0000000008     1.000000    0.00000754
  732      -16.4194497925      -0.0000000008     1.000000    0.00000750
  733      -16.4194497933      -0.0000000008     1.000000    0.00000747
  734      -16.4194497941      -0.0000000008     1.000000    0.00000743
  735      -16.4194497949      -0.0000000008     1.000000    0.00000740
  736      -16.4194497957      -0.0000000008     1.000000    0.00000736
  737      -16.4194497965      -0.0000000008     1.000000    0.00000733
  738      -16.4194497972      -0.0000000008     1.000000    0.00000729
  739      -16.4194497980      -0.0000000008     1.000000    0.00000726
  740      -16.4194497988      -0.0000000008     1.000000    0.00000722
  741      -16.4194497995      -0.0000000007     1.000000    0.00000719
  742      -16.4194498002      -0.0000000007     1.000000    0.00000716
  743      -16.4194498010      -0.0000000007     1.000000    0.00000712
  744      -16.4194498017      -0.0000000007     1.000000    0.00000709
  745      -16.4194498024      -0.0000000007     1.000000    0.00000706
  746      -16.4194498031      -0.0000000007     1.000000    0.00000702
  747      -16.4194498039      -0.0000000007     1.000000    0.00000699
  748      -16.4194498046      -0.0000000007     1.000000    0.00000696
  749      -16.4194498052      -0.0000000007     1.000000    0.00000692
  750      -16.4194498059      -0.0000000007     1.000000    0.00000689
  751      -16.4194498066      -0.0000000007     1.000000    0.00000686
  752      -16.4194498073      -0.0000000007     1.000000    0.00000682
  753      -16.4194498080      -0.0000000007     1.000000    0.00000679
  754      -16.4194498086      -0.0000000007     1.000000    0.00000676
  755      -16.4194498093      -0.0000000007     1.000000    0.00000673
  756      -16.4194498099      -0.0000000006     1.000000    0.00000670
  757      -16.4194498106      -0.0000000006     1.000000    0.00000666
  758      -16.4194498112      -0.0000000006     1.000000    0.00000663
  759      -16.4194498118      -0.0000000006     1.000000    0.00000660
  760      -16.4194498125      -0.0000000006     1.000000    0.00000657
  761      -16.4194498131      -0.0000000006     1.000000    0.00000654
  762      -16.4194498137      -0.0000000006     1.000000    0.00000651
  763      -16.4194498143      -0.0000000006     1.000000    0.00000648
  764      -16.4194498149      -0.0000000006     1.000000    0.00000645
  765      -16.4194498155      -0.0000000006     1.000000    0.00000642
  766      -16.4194498161      -0.0000000006     1.000000    0.00000639
  767      -16.4194498167      -0.0000000006     1.000000    0.00000636
  768      -16.4194498172      -0.0000000006     1.000000    0.00000633
  769      -16.4194498178      -0.0000000006     1.000000    0.00000630
  770      -16.4194498184      -0.0000000006     1.000000    0.00000627
  771      -16.4194498190      -0.0000000006     1.000000    0.00000624
  772      -16.4194498195      -0.0000000006     1.000000    0.00000621
  773      -16.4194498201      -0.0000000006     1.000000    0.00000618
  774      -16.4194498206      -0.0000000005     1.000000    0.00000615
  775      -16.4194498211      -0.0000000005     1.000000    0.00000612
  776      -16.4194498217      -0.0000000005     1.000000    0.00000609
  777      -16.4194498222      -0.0000000005     1.000000    0.00000606
  778      -16.4194498227      -0.0000000005     1.000000    0.00000603
  779      -16.4194498233      -0.0000000005     1.000000    0.00000600
  780      -16.4194498238      -0.0000000005     1.000000    0.00000598
  781      -16.4194498243      -0.0000000005     1.000000    0.00000595
  782      -16.4194498248      -0.0000000005     1.000000    0.00000592
  783      -16.4194498253      -0.0000000005     1.000000    0.00000589
  784      -16.4194498258      -0.0000000005     1.000000    0.00000586
  785      -16.4194498263      -0.0000000005     1.000000    0.00000584
  786      -16.4194498268      -0.0000000005     1.000000    0.00000581
  787      -16.4194498273      -0.0000000005     1.000000    0.00000578
  788      -16.4194498277      -0.0000000005     1.000000    0.00000575
  789      -16.4194498282      -0.0000000005     1.000000    0.00000573
  790      -16.4194498287      -0.0000000005     1.000000    0.00000570
  791      -16.4194498291      -0.0000000005     1.000000    0.00000567
  792      -16.4194498296      -0.0000000005     1.000000    0.00000565
  793      -16.4194498301      -0.0000000005     1.000000    0.00000562
  794      -16.4194498305      -0.0000000005     1.000000    0.00000559
  795      -16.4194498310      -0.0000000004     1.000000    0.00000557
  796      -16.4194498314      -0.0000000004     1.000000    0.00000554
  797      -16.4194498318      -0.0000000004     1.000000    0.00000551
  798      -16.4194498323      -0.0000000004     1.000000    0.00000549
  799      -16.4194498327      -0.0000000004     1.000000    0.00000546
  800      -16.4194498331      -0.0000000004     1.000000    0.00000544
  801      -16.4194498336      -0.0000000004     1.000000    0.00000541
  802      -16.4194498340      -0.0000000004     1.000000    0.00000539
  803      -16.4194498344      -0.0000000004     1.000000    0.00000536
  804      -16.4194498348      -0.0000000004     1.000000    0.00000534
  805      -16.4194498352      -0.0000000004     1.000000    0.00000531
  806      -16.4194498356      -0.0000000004     1.000000    0.00000529
  807      -16.4194498360      -0.0000000004     1.000000    0.00000526
  808      -16.4194498364      -0.0000000004     1.000000    0.00000524
  809      -16.4194498368      -0.0000000004     1.000000    0.00000521
  810      -16.4194498372      -0.0000000004     1.000000    0.00000519
  811      -16.4194498376      -0.0000000004     1.000000    0.00000516
  812      -16.4194498380      -0.0000000004     1.000000    0.00000514
  813      -16.4194498383      -0.0000000004     1.000000    0.00000511
  814      -16.4194498387      -0.0000000004     1.000000    0.00000509
  815      -16.4194498391      -0.0000000004     1.000000    0.00000507
  816      -16.4194498394      -0.0000000004     1.000000    0.00000504
  817      -16.4194498398      -0.0000000004     1.000000    0.00000502
  818      -16.4194498402      -0.0000000004     1.000000    0.00000499
  819      -16.4194498405      -0.0000000004     1.000000    0.00000497
  820      -16.4194498409      -0.0000000004     1.000000    0.00000495
  821      -16.4194498412      -0.0000000003     1.000000    0.00000492
  822      -16.4194498416      -0.0000000003     1.000000    0.00000490
  823      -16.4194498419      -0.0000000003     1.000000    0.00000488
  824      -16.4194498423      -0.0000000003     1.000000    0.00000485
  825      -16.4194498426      -0.0000000003     1.000000    0.00000483
  826      -16.4194498429      -0.0000000003     1.000000    0.00000481
  827      -16.4194498433      -0.0000000003     1.000000    0.00000479
  828      -16.4194498436      -0.0000000003     1.000000    0.00000476
  829      -16.4194498439      -0.0000000003     1.000000    0.00000474
  830      -16.4194498442      -0.0000000003     1.000000    0.00000472
  831      -16.4194498446      -0.0000000003     1.000000    0.00000470
  832      -16.4194498449      -0.0000000003     1.000000    0.00000468
  833      -16.4194498452      -0.0000000003     1.000000    0.00000465
  834      -16.4194498455      -0.0000000003     1.000000    0.00000463
  835      -16.4194498458      -0.0000000003     1.000000    0.00000461
  836      -16.4194498461      -0.0000000003     1.000000    0.00000459
  837      -16.4194498464      -0.0000000003     1.000000    0.00000457
  838      -16.4194498467      -0.0000000003     1.000000    0.00000454
  839      -16.4194498470      -0.0000000003     1.000000    0.00000452
  840      -16.4194498473      -0.0000000003     1.000000    0.00000450
  841      -16.4194498476      -0.0000000003     1.000000    0.00000448
  842      -16.4194498479      -0.0000000003     1.000000    0.00000446
  843      -16.4194498481      -0.0000000003     1.000000    0.00000444
  844      -16.4194498484      -0.0000000003     1.000000    0.00000442
  845      -16.4194498487      -0.0000000003     1.000000    0.00000440
  846      -16.4194498490      -0.0000000003     1.000000    0.00000438
  847      -16.4194498493      -0.0000000003     1.000000    0.00000436
  848      -16.4194498495      -0.0000000003     1.000000    0.00000434
  849      -16.4194498498      -0.0000000003     1.000000    0.00000432
  850      -16.4194498501      -0.0000000003     1.000000    0.00000430
  851      -16.4194498503      -0.0000000003     1.000000    0.00000427
  852      -16.4194498506      -0.0000000003     1.000000    0.00000425
  853      -16.4194498508      -0.0000000003     1.000000    0.00000423
  854      -16.4194498511      -0.0000000003     1.000000    0.00000422
  855      -16.4194498514      -0.0000000003     1.000000    0.00000420
  856      -16.4194498516      -0.0000000003     1.000000    0.00000418
  857      -16.4194498519      -0.0000000002     1.000000    0.00000416
  858      -16.4194498521      -0.0000000002     1.000000    0.00000414
  859      -16.4194498523      -0.0000000002     1.000000    0.00000412
  860      -16.4194498526      -0.0000000002     1.000000    0.00000410
  861      -16.4194498528      -0.0000000002     1.000000    0.00000408
  862      -16.4194498531      -0.0000000002     1.000000    0.00000406
  863      -16.4194498533      -0.0000000002     1.000000    0.00000404
  864      -16.4194498535      -0.0000000002     1.000000    0.00000402
  865      -16.4194498538      -0.0000000002     1.000000    0.00000400
  866      -16.4194498540      -0.0000000002     1.000000    0.00000398
  867      -16.4194498542      -0.0000000002     1.000000    0.00000397
  868      -16.4194498544      -0.0000000002     1.000000    0.00000395
  869      -16.4194498547      -0.0000000002     1.000000    0.00000393
  870      -16.4194498549      -0.0000000002     1.000000    0.00000391
  871      -16.4194498551      -0.0000000002     1.000000    0.00000389
  872      -16.4194498553      -0.0000000002     1.000000    0.00000387
  873      -16.4194498555      -0.0000000002     1.000000    0.00000385
  874      -16.4194498557      -0.0000000002     1.000000    0.00000384
  875      -16.4194498560      -0.0000000002     1.000000    0.00000382
  876      -16.4194498562      -0.0000000002     1.000000    0.00000380
  877      -16.4194498564      -0.0000000002     1.000000    0.00000378
  878      -16.4194498566      -0.0000000002     1.000000    0.00000377
  879      -16.4194498568      -0.0000000002     1.000000    0.00000375
  880      -16.4194498570      -0.0000000002     1.000000    0.00000373
  881      -16.4194498572      -0.0000000002     1.000000    0.00000371
  882      -16.4194498574      -0.0000000002     1.000000    0.00000370
  883      -16.4194498576      -0.0000000002     1.000000    0.00000368
  884      -16.4194498578      -0.0000000002     1.000000    0.00000366
  885      -16.4194498579      -0.0000000002     1.000000    0.00000364
  886      -16.4194498581      -0.0000000002     1.000000    0.00000363
  887      -16.4194498583      -0.0000000002     1.000000    0.00000361
  888      -16.4194498585      -0.0000000002     1.000000    0.00000359
  889      -16.4194498587      -0.0000000002     1.000000    0.00000358
  890      -16.4194498589      -0.0000000002     1.000000    0.00000356
  891      -16.4194498591      -0.0000000002     1.000000    0.00000354
  892      -16.4194498592      -0.0000000002     1.000000    0.00000353
  893      -16.4194498594      -0.0000000002     1.000000    0.00000351
  894      -16.4194498596      -0.0000000002     1.000000    0.00000349
  895      -16.4194498598      -0.0000000002     1.000000    0.00000348
  896      -16.4194498599      -0.0000000002     1.000000    0.00000346
  897      -16.4194498601      -0.0000000002     1.000000    0.00000344
  898      -16.4194498603      -0.0000000002     1.000000    0.00000343
  899      -16.4194498604      -0.0000000002     1.000000    0.00000341
  900      -16.4194498606      -0.0000000002     1.000000    0.00000340
  901      -16.4194498608      -0.0000000002     1.000000    0.00000338
  902      -16.4194498609      -0.0000000002     1.000000    0.00000336
  903      -16.4194498611      -0.0000000002     1.000000    0.00000335
  904      -16.4194498613      -0.0000000002     1.000000    0.00000333
  905      -16.4194498614      -0.0000000002     1.000000    0.00000332
  906      -16.4194498616      -0.0000000002     1.000000    0.00000330
  907      -16.4194498617      -0.0000000002     1.000000    0.00000329
  908      -16.4194498619      -0.0000000002     1.000000    0.00000327
  909      -16.4194498620      -0.0000000002     1.000000    0.00000326
  910      -16.4194498622      -0.0000000002     1.000000    0.00000324
  911      -16.4194498623      -0.0000000001     1.000000    0.00000322
  912      -16.4194498625      -0.0000000001     1.000000    0.00000321
  913      -16.4194498626      -0.0000000001     1.000000    0.00000319
  914      -16.4194498628      -0.0000000001     1.000000    0.00000318
  915      -16.4194498629      -0.0000000001     1.000000    0.00000317
  916      -16.4194498631      -0.0000000001     1.000000    0.00000315
  917      -16.4194498632      -0.0000000001     1.000000    0.00000314
  918      -16.4194498633      -0.0000000001     1.000000    0.00000312
  919      -16.4194498635      -0.0000000001     1.000000    0.00000311
  920      -16.4194498636      -0.0000000001     1.000000    0.00000309
  921      -16.4194498638      -0.0000000001     1.000000    0.00000308
  922      -16.4194498639      -0.0000000001     1.000000    0.00000306
  923      -16.4194498640      -0.0000000001     1.000000    0.00000305
  924      -16.4194498642      -0.0000000001     1.000000    0.00000303
  925      -16.4194498643      -0.0000000001     1.000000    0.00000302
  926      -16.4194498644      -0.0000000001     1.000000    0.00000301
  927      -16.4194498645      -0.0000000001     1.000000    0.00000299
  928      -16.4194498647      -0.0000000001     1.000000    0.00000298
  929      -16.4194498648      -0.0000000001     1.000000    0.00000296
  930      -16.4194498649      -0.0000000001     1.000000    0.00000295
  931      -16.4194498651      -0.0000000001     1.000000    0.00000294
  932      -16.4194498652      -0.0000000001     1.000000    0.00000292
  933      -16.4194498653      -0.0000000001     1.000000    0.00000291
  934      -16.4194498654      -0.0000000001     1.000000    0.00000290
  935      -16.4194498655      -0.0000000001     1.000000    0.00000288
  936      -16.4194498657      -0.0000000001     1.000000    0.00000287
  937      -16.4194498658      -0.0000000001     1.000000    0.00000286
  938      -16.4194498659      -0.0000000001     1.000000    0.00000284
  939      -16.4194498660      -0.0000000001     1.000000    0.00000283
  940      -16.4194498661      -0.0000000001     1.000000    0.00000282
  941      -16.4194498662      -0.0000000001     1.000000    0.00000280
  942      -16.4194498663      -0.0000000001     1.000000    0.00000279
  943      -16.4194498665      -0.0000000001     1.000000    0.00000278
  944      -16.4194498666      -0.0000000001     1.000000    0.00000276
  945      -16.4194498667      -0.0000000001     1.000000    0.00000275
  946      -16.4194498668      -0.0000000001     1.000000    0.00000274
  947      -16.4194498669      -0.0000000001     1.000000    0.00000272
  948      -16.4194498670      -0.0000000001     1.000000    0.00000271
  949      -16.4194498671      -0.0000000001     1.000000    0.00000270
  950      -16.4194498672      -0.0000000001     1.000000    0.00000269
  951      -16.4194498673      -0.0000000001     1.000000    0.00000267
  952      -16.4194498674      -0.0000000001     1.000000    0.00000266
  953      -16.4194498675      -0.0000000001     1.000000    0.00000265
  954      -16.4194498676      -0.0000000001     1.000000    0.00000264
  955      -16.4194498677      -0.0000000001     1.000000    0.00000262
  956      -16.4194498678      -0.0000000001     1.000000    0.00000261
  957      -16.4194498679      -0.0000000001     1.000000    0.00000260
  958      -16.4194498680      -0.0000000001     1.000000    0.00000259
  959      -16.4194498681      -0.0000000001     1.000000    0.00000258
  960      -16.4194498682      -0.0000000001     1.000000    0.00000256
  961      -16.4194498683      -0.0000000001     1.000000    0.00000255
  962      -16.4194498684      -0.0000000001     1.000000    0.00000254
  963      -16.4194498685      -0.0000000001     1.000000    0.00000253
  964      -16.4194498686      -0.0000000001     1.000000    0.00000252
  965      -16.4194498686      -0.0000000001     1.000000    0.00000250
  966      -16.4194498687      -0.0000000001     1.000000    0.00000249
  967      -16.4194498688      -0.0000000001     1.000000    0.00000248
  968      -16.4194498689      -0.0000000001     1.000000    0.00000247
  969      -16.4194498690      -0.0000000001     1.000000    0.00000246
  970      -16.4194498691      -0.0000000001     1.000000    0.00000245
  971      -16.4194498692      -0.0000000001     1.000000    0.00000243
  972      -16.4194498693      -0.0000000001     1.000000    0.00000242
  973      -16.4194498693      -0.0000000001     1.000000    0.00000241
  974      -16.4194498694      -0.0000000001     1.000000    0.00000240
  975      -16.4194498695      -0.0000000001     1.000000    0.00000239
  976      -16.4194498696      -0.0000000001     1.000000    0.00000238
  977      -16.4194498697      -0.0000000001     1.000000    0.00000237
  978      -16.4194498697      -0.0000000001     1.000000    0.00000236
  979      -16.4194498698      -0.0000000001     1.000000    0.00000235
  980      -16.4194498699      -0.0000000001     1.000000    0.00000233
  981      -16.4194498700      -0.0000000001     1.000000    0.00000232
  982      -16.4194498701      -0.0000000001     1.000000    0.00000231
  983      -16.4194498701      -0.0000000001     1.000000    0.00000230
  984      -16.4194498702      -0.0000000001     1.000000    0.00000229
  985      -16.4194498703      -0.0000000001     1.000000    0.00000228
  986      -16.4194498704      -0.0000000001     1.000000    0.00000227
  987      -16.4194498704      -0.0000000001     1.000000    0.00000226
  988      -16.4194498705      -0.0000000001     1.000000    0.00000225
  989      -16.4194498706      -0.0000000001     1.000000    0.00000224
  990      -16.4194498706      -0.0000000001     1.000000    0.00000223
  991      -16.4194498707      -0.0000000001     1.000000    0.00000222
  992      -16.4194498708      -0.0000000001     1.000000    0.00000221
  993      -16.4194498709      -0.0000000001     1.000000    0.00000220
  994      -16.4194498709      -0.0000000001     1.000000    0.00000219
  995      -16.4194498710      -0.0000000001     1.000000    0.00000218
  996      -16.4194498711      -0.0000000001     1.000000    0.00000217
  997      -16.4194498711      -0.0000000001     1.000000    0.00000216
  998      -16.4194498712      -0.0000000001     1.000000    0.00000215
  999      -16.4194498713      -0.0000000001     1.000000    0.00000214
 1000      -16.4194498713      -0.0000000001     1.000000    0.00000213

Total Energy:                      -16.4194498713 H         -446.7960 eV
Extrapolated to 0:                 -16.3782097200 H         -445.6738 eV

----------------------------------------------------------------------------------
 Solving CP-REKS equation for  1 state vector...
----------------------------------------------------------------------------------
  CG solver: Constructing Y initial guess
  CG solver: Iteration    1    eps =    0.051286250630
  CG solver: Iteration    2    eps =    0.031793325531
  CG solver: Iteration    3    eps =    0.045878738621
  CG solver: Iteration    4    eps =    0.136878857170
  CG solver: Iteration    5    eps =    0.277561474992
  CG solver: Iteration    6    eps =    0.040639809644
  CG solver: Iteration    7    eps =    0.016712670218
  CG solver: Iteration    8    eps =    0.008534823908
  CG solver: Iteration    9    eps =    0.001590873818
  CG solver: Iteration   10    eps =    0.000206847019
  CG solver: Iteration   11    eps =    0.000060486747
  CG solver: Iteration   12    eps =    0.000007844273
  CG solver: Iteration   13    eps =    0.000001389330
  CG solver: Iteration   14    eps =    0.000000441220
  CG solver: Iteration   15    eps =    0.000000067673
  CG solver: Iteration   16    eps =    0.000000005410
  Convergence reached in CG solver after   16 iterations
  CG solver: Calculating converged R, Z, Q2 matrix
----------------------------------------------------------------------------------

----------------------------------------------------------------------------------
 Solving CP-REKS equation for SI between  1 and  2 state vectors...
----------------------------------------------------------------------------------
  CG solver: Constructing Y initial guess
  CG solver: Iteration    1    eps =    0.038063998886
  CG solver: Iteration    2    eps =    0.001711750635
  CG solver: Iteration    3    eps =    0.000656132053
  CG solver: Iteration    4    eps =    0.002667459749
  CG solver: Iteration    5    eps =    0.002273025119
  CG solver: Iteration    6    eps =    0.004429651799
  CG solver: Iteration    7    eps =    0.001772311415
  CG solver: Iteration    8    eps =    0.000340680142
  CG solver: Iteration    9    eps =    0.000037679954
  CG solver: Iteration   10    eps =    0.000015968240
  CG solver: Iteration   11    eps =    0.000004021483
  CG solver: Iteration   12    eps =    0.000001702729
  CG solver: Iteration   13    eps =    0.000000264685
  CG solver: Iteration   14    eps =    0.000000041658
  CG solver: Iteration   15    eps =    0.000000002788
  Convergence reached in CG solver after   15 iterations
  CG solver: Calculating converged R, Z, Q2 matrix
----------------------------------------------------------------------------------

--------------------------------------------------
 Gradient Information
--------------------------------------------------
           1 st state (SSR)
     0.00000000     0.00000000     0.00000000
     0.00000000     0.00000000     0.00000000
     0.00000000     0.00000000     0.00000000
     0.00000000     0.00000000     0.00000000
     0.00000000     0.00000000     0.00000000
     0.00000000     0.00000000     0.00000000
     0.00000000     0.00000000     0.00000000
     0.00000000     0.00000000     0.00000000
     0.00000000     0.00000000     0.00000000
     0.00000000     0.00000000     0.00000000
     0.00000000     0.00000000     0.00000000
     0.00000000     0.00000000     0.00000000
     0.00000000     0.00000000     0.00000000
     0.00000000     0.00000000     0.00000000

           2 st state (SSR)
     0.00000000     0.00000000     0.00000000
     0.00000000     0.00000000     0.00000000
     0.00000000     0.00000000     0.00000000
     0.00000000     0.00000000     0.00000000
     0.00000000     0.00000000     0.00000000
     0.00000000     0.00000000     0.00000000
     0.00000000     0.00000000     0.00000000
     0.00000000     0.00000000     0.00000000
     0.00000000     0.00000000     0.00000000
     0.00000000     0.00000000     0.00000000
     0.00000000     0.00000000     0.00000000
     0.00000000     0.00000000     0.00000000
     0.00000000     0.00000000     0.00000000
     0.00000000     0.00000000     0.00000000
--------------------------------------------------
 Coupling Information
--------------------------------------------------
 between  1 and  2 states
--------------------------------------------------
 g vector - difference gradient
     0.33759605     0.89753806    -1.10091897
    -0.44296355    -1.04341731     1.43219396
     0.00930129     0.00129409    -0.07942712
     0.10149033     0.06262621     0.06913307
    -0.10275949    -0.24200243    -0.23734556
    -0.33050483     0.06310595    -0.07309092
    -0.08503895    -0.03274978    -0.56424862
    -0.04330095     0.06587380     0.02330710
     0.01666482    -0.01309768    -0.11317554
     0.66624787     0.02709581     0.70931751
    -0.00480801     0.04778009     0.00313852
    -0.25214809     0.02491799    -0.23191229
     0.10729189     0.07093463     0.06063371
     0.02293163     0.07010057     0.10239515

 h vector - derivative coupling
     0.09000939     0.17579131    -0.19108851
    -0.07187599    -0.17159687     0.26275526
    -0.00749276    -0.00930011    -0.02881180
     0.01562645     0.01060486     0.00535972
    -0.01736817    -0.03504159    -0.03418454
    -0.12886884    -0.01126474    -0.04074502
     0.03641594     0.02174280    -0.03644514
    -0.00414338     0.01814234    -0.00473872
     0.01195753     0.01547133    -0.01790133
     0.10386854    -0.05907138     0.11187849
    -0.00131926    -0.00220874     0.00670518
    -0.02781315     0.04062619    -0.02853961
     0.00834266     0.00255140    -0.00415433
    -0.00733896     0.00355319    -0.00008963

 G vector - GDV
     0.00000000     0.00000000     0.00000000
     0.00000000     0.00000000     0.00000000
     0.00000000     0.00000000     0.00000000
     0.00000000     0.00000000     0.00000000
     0.00000000     0.00000000     0.00000000
     0.00000000     0.00000000     0.00000000
     0.00000000     0.00000000     0.00000000
     0.00000000     0.00000000     0.00000000
     0.00000000     0.00000000     0.00000000
     0.00000000     0.00000000     0.00000000
     0.00000000     0.00000000     0.00000000
     0.00000000     0.00000000     0.00000000
     0.00000000     0.00000000     0.00000000
     0.00000000     0.00000000     0.00000000

 H vector - DCV - non-adiabatic coupling
     0.00000000     0.00000000     0.00000000
     0.00000000     0.00000000     0.00000000
     0.00000000     0.00000000     0.00000000
     0.00000000     0.00000000     0.00000000
     0.00000000     0.00000000     0.00000000
     0.00000000     0.00000000     0.00000000
     0.00000000     0.00000000     0.00000000
     0.00000000     0.00000000     0.00000000
     0.00000000     0.00000000     0.00000000
     0.00000000     0.00000000     0.00000000
     0.00000000     0.00000000     0.00000000
     0.00000000     0.00000000     0.00000000
     0.00000000     0.00000000     0.00000000
     0.00000000     0.00000000     0.00000000
--------------------------------------------------

WARNING!
-> SCC is NOT converged, maximal SCC iterations exceeded

--------------------------------------------------------------------------------
DFTB+ running times                          cpu [s]             wall clock [s]
--------------------------------------------------------------------------------
SCC                                    +     1.12  ( 74.5%)      1.12  ( 74.4%)
      Sparse to dense                        0.06  (  3.9%)      0.07  (  4.9%)
      Dense to sparse                        0.20  ( 13.6%)      0.23  ( 15.3%)
      Range separated Hamiltonian            0.10  (  6.5%)      0.09  (  5.8%)
  Density matrix creation                    0.12  (  8.2%)      0.12  (  8.1%)
  Force calculation                          0.38  ( 25.4%)      0.38  ( 25.4%)
--------------------------------------------------------------------------------
Missing                                +     0.38  ( 25.5%)      0.39  ( 25.6%)
Total                                  =     1.50  (100.0%)      1.51  (100.0%)
--------------------------------------------------------------------------------
