|===============================================================================
|
|  DFTB+ release 20.1
|
|  Copyright (C) 2006 - 2020  DFTB+ developers group
|
|===============================================================================
|
|  When publishing results obtained with DFTB+, please cite the following
|  reference:
|
|  * DFTB+, a software package for efficient approximate density functional
|    theory based atomistic simulations, J. Chem. Phys. 152, 124101 (2020).
|    [doi: 10.1063/1.5143190]
|
|  You should also cite additional publications crediting the parametrization
|  data you use. Please consult the documentation of the SK-files for the
|  references.
|
|===============================================================================

Reading input file 'dftb_in.hsd'
Parser version: 8

--------------------------------------------------------------------------------
Reading SK-files:
Done.


Processed input in HSD format written to 'dftb_pin.hsd'

Starting initialization...
--------------------------------------------------------------------------------
OpenMP threads:              1
Chosen random seed:          508926747
Mode:                        Static calculation
Self consistent charges:     Yes
SCC-tolerance:                 0.100000E-05
Max. scc iterations:                   1000
Shell resolved Hubbard:      No
Spin polarisation:           No
Nr. of up electrons:             6.000000
Nr. of down electrons:           6.000000
Periodic boundaries:         No
Electronic solver:           Relatively robust
Maximal SCC-cycles:                    1000
Initial charges:             Set automatically (system chrg:   0.100E+01)
Included shells:             C:  s, p
                             N:  s, p
                             H:  s
Spin coupling constants:     C   1(s)-1(s):  -0.455900E-01
                             C   1(s)-2(p):  -0.293000E-01
                             C   2(p)-1(s):  -0.293000E-01
                             C   2(p)-2(p):  -0.275500E-01
                             N   1(s)-1(s):  -0.468700E-01
                             N   1(s)-2(p):  -0.317000E-01
                             N   2(p)-1(s):  -0.317000E-01
                             N   2(p)-2(p):  -0.307200E-01
                             H   1(s)-1(s):  -0.792500E-01
Range separated hybrid:      Yes
  Screening parameter omega:   0.300000E+00
  Range separated algorithm:   MatrixBased
Extra options:
                             Mulliken analysis
                             Force calculation
Force type                   original
                             Eigenvector printing


REKS Calcuation:             Yes
SSR(2,2) Calcuation:         Yes
Energy Functional:           (PPS+OSS)/2
Number of Core Orbitals:                  5
Number of Active Orbitals:                2
Number of Basis:                         12
Number of States:                         2
State-Averaging Weight:          0.500000
                                 0.500000
State of Interest:                        1
Initial Guess:               Diagonalize H0 matrix
Newton-Raphson for FON opt:  Yes
NR max. Iterations:                      50
Level Shifting:              Yes
Shift Value:                     0.300000
W Scale Factor:              C  =    3.000000
                             N  =    3.000000
                             H  =    3.000000
Transition Dipole:           No
Gradient of Microstate:      No
CP-REKS Solver:              Preconditioned Conjugate-Gradient
CG max. Iterations:                     100
CG Tolerance:                  0.100000E-07
Memory for A and Hxc:        Direct Updating Without Saving
Non-Adiabatic Coupling:      Yes

--------------------------------------------------------------------------------

***  Geometry step: 0

  iSCC       reks energy        Diff energy         x_a       SCC error   
    1       -6.2668662541       0.0000000000     0.999815    1.19799213
    2       -6.2764518887      -0.0095856347     0.999908    0.06229884
    3       -6.2797162727      -0.0032643840     0.999943    0.02180201
    4       -6.2813260291      -0.0016097564     0.999959    0.00969877
    5       -6.2821665727      -0.0008405436     0.999966    0.00833164
    6       -6.2826095342      -0.0004429615     0.999970    0.00671086
    7       -6.2828423472      -0.0002328131     0.999972    0.00518757
    8       -6.2829641533      -0.0001218061     0.999974    0.00390258
    9       -6.2830276744      -0.0000635211     0.999974    0.00288290
   10       -6.2830607636      -0.0000330892     0.999975    0.00210358
   11       -6.2830780196      -0.0000172560     0.999975    0.00152214
   12       -6.2830870476      -0.0000090281     0.999975    0.00109512
   13       -6.2830917954      -0.0000047477     0.999975    0.00078481
   14       -6.2830943095      -0.0000025141     0.999975    0.00056093
   15       -6.2830956520      -0.0000013426     0.999975    0.00043218
   16       -6.2830963761      -0.0000007240     0.999975    0.00033497
   17       -6.2830967708      -0.0000003947     0.999975    0.00026013
   18       -6.2830969884      -0.0000002177     0.999975    0.00020235
   19       -6.2830971099      -0.0000001215     0.999975    0.00015764
   20       -6.2830971786      -0.0000000686     0.999975    0.00012297
   21       -6.2830972178      -0.0000000392     0.999975    0.00009604
   22       -6.2830972405      -0.0000000227     0.999975    0.00007508
   23       -6.2830972537      -0.0000000132     0.999975    0.00005875
   24       -6.2830972615      -0.0000000078     0.999975    0.00004601
   25       -6.2830972661      -0.0000000046     0.999975    0.00003606
   26       -6.2830972689      -0.0000000028     0.999975    0.00002828
   27       -6.2830972706      -0.0000000017     0.999975    0.00002219
   28       -6.2830972716      -0.0000000010     0.999975    0.00001742
   29       -6.2830972722      -0.0000000006     0.999975    0.00001377
   30       -6.2830972726      -0.0000000004     0.999975    0.00001089
   31       -6.2830972728      -0.0000000002     0.999975    0.00000862
   32       -6.2830972729      -0.0000000001     0.999975    0.00000681
   33       -6.2830972730      -0.0000000001     0.999975    0.00000539
   34       -6.2830972731      -0.0000000001     0.999975    0.00000426
   35       -6.2830972731      -0.0000000000     0.999975    0.00000336
   36       -6.2830972731      -0.0000000000     0.999975    0.00000266
   37       -6.2830972732      -0.0000000000     0.999975    0.00000210
   38       -6.2830972732      -0.0000000000     0.999975    0.00000166
   39       -6.2830972732      -0.0000000000     0.999975    0.00000131
   40       -6.2830972732      -0.0000000000     0.999975    0.00000103
   41       -6.2830972732      -0.0000000000     0.999975    0.00000081
  
--------------------------------------------------
 Final SA-REKS(2,2) energy:      -6.28309727
  
 State     Energy      FON(1)    FON(2)   Spin
  PPS   -6.41358580   1.999950  0.000050  0.00
  OSS   -6.15260874   1.000000  1.000000  0.00
 Trip   -6.22992543   1.000000  1.000000  1.00
--------------------------------------------------

 Lagrangian Wab:  -0.00189317 -0.00189311

--------------------------------------------------
 SSR: 2SI-2SA-REKS(2,2) Hamiltonian matrix
               PPS           OSS
   PPS    -6.41358580   -0.00266399
   OSS    -0.00266399   -6.15260874
--------------------------------------------------

----------------------------------------------------------------
 SSR: 2SI-2SA-REKS(2,2) states
                    E_n       C_{PPS}    C_{OSS}
 SSR state  1   -6.41361299  -0.999948  -0.010206
 SSR state  2   -6.15258155   0.010206  -0.999948
----------------------------------------------------------------

 unrelaxed SSR FONs for S0:  1.999846  0.000154

Total Energy:                       -6.4136129939 H         -174.5233 eV
Extrapolated to 0:                  -6.4136129939 H         -174.5233 eV

----------------------------------------------------------------------------------
 Solving CP-REKS equation for  1 state vector...
----------------------------------------------------------------------------------
  CG solver: Constructing Y initial guess
  CG solver: Iteration    1    eps =    0.000034281881
  CG solver: Iteration    2    eps =    0.000004239119
  CG solver: Iteration    3    eps =    0.000000299666
  CG solver: Iteration    4    eps =    0.000000014336
  CG solver: Iteration    5    eps =    0.000000004176
  Convergence reached in CG solver after    5 iterations
  CG solver: Calculating converged R, Z, Q2 matrix
----------------------------------------------------------------------------------

----------------------------------------------------------------------------------
 Solving CP-REKS equation for SI between  1 and  2 state vectors...
----------------------------------------------------------------------------------
  CG solver: Constructing Y initial guess
  CG solver: Iteration    1    eps =    0.000533825899
  CG solver: Iteration    2    eps =    0.000247241483
  CG solver: Iteration    3    eps =    0.000082304256
  CG solver: Iteration    4    eps =    0.000001260097
  CG solver: Iteration    5    eps =    0.000000171381
  CG solver: Iteration    6    eps =    0.000000010502
  CG solver: Iteration    7    eps =    0.000000000199
  Convergence reached in CG solver after    7 iterations
  CG solver: Calculating converged R, Z, Q2 matrix
----------------------------------------------------------------------------------

--------------------------------------------------
 Gradient Information
--------------------------------------------------
           1 st state (SSR)
     0.00610505    -0.01594392     0.03385121
    -0.02641588     0.00162651    -0.04790001
    -0.00487699     0.00255181     0.00289881
     0.00475280     0.00411825     0.00836410
     0.01604783     0.00249386     0.00884138
     0.00438720     0.00515349    -0.00605549

           2 st state (SSR)
    -0.00897739    -0.00536762     0.14239479
     0.01123234    -0.00148756    -0.17414129
     0.00338952    -0.01819999     0.01874549
     0.00089769     0.01062383    -0.00299667
    -0.00647684     0.00114664     0.00070206
    -0.00006532     0.01328471     0.01529562
--------------------------------------------------
 Coupling Information
--------------------------------------------------
 between  1 and  2 states
--------------------------------------------------
 g vector - difference gradient
     0.00756905    -0.00536625    -0.05431276
    -0.01882856     0.00169550     0.06314829
    -0.00428011     0.01042853    -0.00792103
     0.00179617    -0.00326894     0.00571138
     0.01139913     0.00058357     0.00405081
     0.00234431    -0.00407241    -0.01067669

 h vector - derivative coupling
    -0.00128654     0.00377135     0.00145279
     0.00002584    -0.00676632    -0.00070994
     0.00715088    -0.00247211    -0.00019406
     0.00645530     0.00075803    -0.00146022
    -0.00658558     0.00441725     0.00096479
    -0.00575991     0.00029179    -0.00005336

 G vector - GDV
     0.00754122    -0.00528815    -0.05427179
    -0.01882411     0.00155704     0.06312064
    -0.00413326     0.01037590    -0.00792334
     0.00192755    -0.00325279     0.00568038
     0.01126233     0.00067361     0.00406966
     0.00222626    -0.00406561    -0.01067556

 H vector - DCV - non-adiabatic coupling
    -0.00551950     0.01486448     0.00981137
     0.00157128    -0.02604865    -0.00765703
     0.02772368    -0.01028402    -0.00012390
     0.02458437     0.00315900    -0.00603947
    -0.02611515     0.01687315     0.00337856
    -0.02224468     0.00143604     0.00063048
--------------------------------------------------


--------------------------------------------------------------------------------
DFTB+ running times                          cpu [s]             wall clock [s]
--------------------------------------------------------------------------------
SCC                                    +     0.02  ( 63.7%)      0.02  ( 57.1%)
Post-SCC processing                    +     0.01  ( 31.8%)      0.01  ( 28.6%)
--------------------------------------------------------------------------------
Missing                                +     0.00  (  4.4%)      0.01  ( 14.3%)
Total                                  =     0.03  (100.0%)      0.04  (100.0%)
--------------------------------------------------------------------------------
