     6
  Step:   300            Position(A)                                  Velocity(au)
C        -0.05196588    -0.00281068     0.02385510     0.00005839    -0.00007754     0.00013029
N        -0.04453738    -0.04969767     1.29190443    -0.00021840     0.00004012    -0.00013243
H         0.14873082     0.98272479    -0.39131390    -0.00131120     0.00021544     0.00002691
H         0.10503054    -0.89590383     1.83971116    -0.00012902     0.00044760     0.00051289
H         0.06598908     0.82616926     1.82005279     0.00255816    -0.00043941     0.00040354
H        -0.29455286    -0.85867769    -0.61343537     0.00122113     0.00014279    -0.00065556
