 Fermi distribution function

Calculation with static geometry


********************************************************************************
 iSCC Total electronic   Diff electronic      SCC error    
   14   -0.52522438E+01   -0.39301895E-11    0.29920145E-07
********************************************************************************

 Total charge:     1.00000000

 Atomic gross charges (e)
 Atom           Charge
    1       0.30871676
    2      -0.18989471
    3       0.18835050
    4       0.26068008
    5       0.25305717
    6       0.17909020

Nr. of electrons (up):     12.00000000
Atom populations (up)
 Atom       Population
    1       3.69128324
    2       5.18989471
    3       0.81164950
    4       0.73931992
    5       0.74694283
    6       0.82090980

l-shell populations (up)
 Atom Sh.   l       Population
    1   1   0       1.42386143
    1   2   1       2.26742181
    2   1   0       1.54327586
    2   2   1       3.64661885
    3   1   0       0.81164950
    4   1   0       0.73931992
    5   1   0       0.74694283
    6   1   0       0.82090980

Orbital populations (up)
 Atom Sh.   l   m       Population  Label
    1   1   0   0       1.42386143  s
    1   2   1  -1       0.37842179  p_y
    1   2   1   0       0.87903335  p_z
    1   2   1   1       1.00996667  p_x
    2   1   0   0       1.54327586  s
    2   2   1  -1       1.35628383  p_y
    2   2   1   0       1.10455474  p_z
    2   2   1   1       1.18578029  p_x
    3   1   0   0       0.81164950  s
    4   1   0   0       0.73931992  s
    5   1   0   0       0.74694283  s
    6   1   0   0       0.82090980  s

Fermi level:                        -0.5222926902 H          -14.2123 eV
Band energy:                        -8.6460619319 H         -235.2713 eV
TS:                                  0.0000000000 H            0.0000 eV
Band free energy (E-TS):            -8.6460619319 H         -235.2713 eV
Extrapolated E(0K):                 -8.6460619319 H         -235.2713 eV
Input / Output electrons (q):     12.0000000000     12.0000000000

Energy H0:                          -5.3897954401 H         -146.6638 eV
Energy SCC:                          0.1375516829 H            3.7430 eV
Total Electronic energy:            -5.2522437571 H         -142.9208 eV
Repulsive energy:                    0.1299439476 H            3.5360 eV
Total energy:                       -5.1222998096 H         -139.3849 eV
Extrapolated to 0:                  -5.1222998096 H         -139.3849 eV
Total Mermin free energy:           -5.1222998096 H         -139.3849 eV
Force related energy:               -5.1222998096 H         -139.3849 eV

SCC converged

Excitation Energy:                   0.0969213483 H            2.6374 eV

Total Forces
    1      0.005317464092     -0.001637776006      0.017811932032
    2      0.001901075333     -0.016244192518     -0.030387837775
    3     -0.003333291322      0.008937606277     -0.000101213370
    4     -0.005271213984      0.002163074233      0.001353707757
    5     -0.001540265288      0.010790207615      0.009613920337
    6      0.002926231169     -0.004008919600      0.001709491019

Maximal derivative component:        0.303878E-01 au


