     6
  Step:     0            Position(A)                                  Velocity(au)
C        -0.04006817     0.01888853     0.00811738    -0.00000357    -0.00006354    -0.00020973
N        -0.04888676    -0.05697544     1.31803661    -0.00019806    -0.00008989     0.00013410
H         0.94329970    -0.00716767    -0.52741876     0.00033308     0.00063550    -0.00047139
H         0.92141949    -0.11876749     1.81807828     0.00153407     0.00030703     0.00072802
H        -0.91583330    -0.02011492     1.79236977     0.00058195     0.00078274    -0.00038590
H        -1.00502096     0.04294600    -0.60361637     0.00034574     0.00028103     0.00076497
     6
  Step:     1            Position(A)                                  Velocity(au)
C        -0.04009053     0.01854744     0.00688955    -0.00000396    -0.00006126    -0.00023826
N        -0.04989829    -0.05747656     1.31882512    -0.00017017    -0.00009348     0.00015346
H         0.94506070    -0.00368090    -0.53013536     0.00030777     0.00063978    -0.00051972
H         0.92917892    -0.11705545     1.82190156     0.00129132     0.00031964     0.00066374
H        -0.91310598    -0.01580249     1.79073840     0.00040459     0.00079577    -0.00020384
H        -1.00294577     0.04446303    -0.59941786     0.00040823     0.00027374     0.00076646
     6
  Step:     2            Position(A)                                  Velocity(au)
C        -0.04011145     0.01821847     0.00551112    -0.00000305    -0.00005912    -0.00026473
N        -0.05074818    -0.05799793     1.31971528    -0.00013942    -0.00009729     0.00017129
H         0.94666620    -0.00016939    -0.53310373     0.00027654     0.00064464    -0.00056359
H         0.93554461    -0.11527114     1.82533856     0.00102733     0.00033329     0.00058833
H        -0.91140775    -0.01141043     1.79014009     0.00020942     0.00081198    -0.00001048
H        -1.00055554     0.04594025    -0.59523249     0.00046052     0.00026655     0.00076004
     6
  Step:     3            Position(A)                                  Velocity(au)
C        -0.04012393     0.01790083     0.00399408    -0.00000088    -0.00005715    -0.00028900
N        -0.05142319    -0.05854068     1.32069857    -0.00010673    -0.00010132     0.00018765
H         0.94808538     0.00336983    -0.53629957     0.00024006     0.00065023    -0.00060327
H         0.94041524    -0.11341006     1.82833636     0.00074746     0.00034770     0.00050471
H        -0.91081548    -0.00692147     1.79062374     0.00000433     0.00083150     0.00018933
H        -0.99790886     0.04737840    -0.59110500     0.00050181     0.00025960     0.00074543
     6
  Step:     4            Position(A)                                  Velocity(au)
C        -0.04012110     0.01759357     0.00235098     0.00000253    -0.00005536    -0.00031096
N        -0.05191524    -0.05910586     1.32176713    -0.00007300    -0.00010553     0.00020266
H         0.94929117     0.00694059    -0.53970024     0.00019896     0.00065658    -0.00063901
H         0.94371778    -0.11146918     1.83085734     0.00045632     0.00036256     0.00041539
H        -0.91136035    -0.00231828     1.79221037    -0.00020227     0.00085410     0.00039050
H        -0.99506844     0.04877892    -0.58708146     0.00053134     0.00025297     0.00072230
     6
  Step:     5            Position(A)                                  Velocity(au)
C        -0.04009632     0.01729570     0.00059500     0.00000713    -0.00005375    -0.00033043
N        -0.05222119    -0.05969428     1.32291387    -0.00003910    -0.00010986     0.00021645
H         0.95026022     0.01054696    -0.54328461     0.00015388     0.00066362    -0.00067097
H         0.94540334    -0.10944691     1.83287700     0.00015805     0.00037756     0.00032259
H        -0.91302649     0.00241477     1.79489233    -0.00040184     0.00087923     0.00058776
H        -0.99210081     0.05014364    -0.58320954     0.00054837     0.00024667     0.00069023
     6
  Step:     6            Position(A)                                  Velocity(au)
C        -0.04004324     0.01700625    -0.00125990     0.00001285    -0.00005229    -0.00034721
N        -0.05234255    -0.06030638     1.32413245    -0.00000587    -0.00011420     0.00022909
H         0.95097273     0.01419257    -0.54703254     0.00010547     0.00067113    -0.00069920
H         0.94544493    -0.10734330     1.83438259    -0.00014333     0.00039233     0.00022840
H        -0.91575159     0.00728977     1.79863338    -0.00058603     0.00090597     0.00077585
H        -0.98907596     0.05147449    -0.57953872     0.00055225     0.00024067     0.00064884
     6
  Step:     7            Position(A)                                  Velocity(au)
C        -0.03995591     0.01672434    -0.00319870     0.00001962    -0.00005098    -0.00036104
N        -0.05228527    -0.06094205     1.32541698     0.00002590    -0.00011843     0.00024060
H         0.95141256     0.01787984    -0.55092422     0.00005442     0.00067875    -0.00072360
H         0.94383724    -0.10516028     1.83537252    -0.00044354     0.00040645     0.00013489
H        -0.91942954     0.01231358     1.80336943    -0.00074707     0.00093314     0.00094963
H        -0.98606686     0.05277321    -0.57612017     0.00054243     0.00023488     0.00059782
     6
  Step:     8            Position(A)                                  Velocity(au)
C        -0.03982889     0.01644920    -0.00520506     0.00002730    -0.00004977    -0.00037162
N        -0.05205948    -0.06160047     1.32676156     0.00005544    -0.00012240     0.00025091
H         0.95156740     0.02160935    -0.55493942     0.00000152     0.00068603    -0.00074396
H         0.94059837    -0.10290196     1.83585657    -0.00073767     0.00041945     0.00004431
H        -0.92391493     0.01748631     1.80901007    -0.00087819     0.00095932     0.00110429
H        -0.98314876     0.05404104    -0.57300632     0.00051859     0.00022919     0.00053701
     6
  Step:     9            Position(A)                                  Velocity(au)
C        -0.03965743     0.01618025    -0.00726107     0.00003576    -0.00004864    -0.00037863
N        -0.05167927    -0.06228003     1.32815973     0.00008200    -0.00012593     0.00025982
H         0.95142914     0.02537914    -0.55905680    -0.00005238     0.00069243    -0.00075998
H         0.93577346    -0.10057506     1.83585691    -0.00102005     0.00043080    -0.00004086
H        -0.92902936     0.02280029     1.81544086    -0.00097392     0.00098294     0.00123555
H        -0.98039799     0.05527855    -0.57024985     0.00048072     0.00022344     0.00046659
     6
  Step:    10            Position(A)                                  Velocity(au)
C        -0.03943772     0.01591711    -0.00934718     0.00004477    -0.00004754    -0.00038176
N        -0.05116241    -0.06297816     1.32960391     0.00010492    -0.00012886     0.00026707
H         0.95099442     0.02918437    -0.56325341    -0.00010628     0.00069736    -0.00077130
H         0.92943927    -0.09818909     1.83540956    -0.00128411     0.00043995    -0.00011785
H        -0.93456935     0.02823942     1.82252662    -0.00103044     0.00100241     0.00133985
H        -0.97788985     0.05648541    -0.56790195     0.00042933     0.00021747     0.00038711
     6
  Step:    11            Position(A)                                  Velocity(au)
C        -0.03916708     0.01565962    -0.01144231     0.00005410    -0.00004643    -0.00038078
N        -0.05053016    -0.06369141     1.33108484     0.00012357    -0.00013102     0.00027233
H         0.95026514     0.03301698    -0.56750443    -0.00015912     0.00070024    -0.00077759
H         0.92170931    -0.09575649     1.83456619    -0.00152249     0.00044638    -0.00018359
H        -0.94031522     0.03377917     1.83011548    -0.00104577     0.00101624     0.00141457
H        -0.97569575     0.05766033    -0.56601002     0.00036555     0.00021109     0.00029964
     6
  Step:    12            Position(A)                                  Velocity(au)
C        -0.03884428     0.01540782    -0.01352415     0.00006345    -0.00004528    -0.00037553
N        -0.04980690    -0.06441541     1.33259124     0.00013744    -0.00013226     0.00027520
H         0.94924896     0.03686573    -0.57178323    -0.00020977     0.00070054    -0.00077858
H         0.91273821    -0.09329251     1.83339568    -0.00172737     0.00044961    -0.00023486
H        -0.94604104     0.03938719     1.83804392    -0.00101991     0.00102316     0.00145822
H        -0.97387994     0.05880097    -0.56461496     0.00029113     0.00020413     0.00020577
     6
  Step:    13            Position(A)                                  Velocity(au)
C        -0.03846973     0.01516196    -0.01556972     0.00007251    -0.00004406    -0.00036601
N        -0.04901961    -0.06514504     1.33410957     0.00014612    -0.00013247     0.00027532
H         0.94795952     0.04071655    -0.57606176    -0.00025713     0.00069784    -0.00077417
H         0.90272385    -0.09081482     1.83198490    -0.00189104     0.00044932    -0.00026846
H        -0.95152504     0.04502466     1.84614275    -0.00095482     0.00102224     0.00147054
H        -0.97249592     0.05990394    -0.56374843     0.00020850     0.00019644     0.00010755
     6
  Step:    14            Position(A)                                  Velocity(au)
C        -0.03804557     0.01492244    -0.01755608     0.00008095    -0.00004275    -0.00035237
N        -0.04819730    -0.06587464     1.33562415     0.00014937    -0.00013159     0.00027237
H         0.94641641     0.04455311    -0.58031141    -0.00030015     0.00069189    -0.00076445
H         0.89190668    -0.08834280     1.83043839    -0.00200653     0.00044532    -0.00028149
H        -0.95655929     0.05064807     1.85424334    -0.00085418     0.00101300     0.00145254
H        -0.97158309     0.06096494    -0.56343021     0.00012059     0.00018790     0.00000742
     6
  Step:    15            Position(A)                                  Velocity(au)
C        -0.03757576     0.01468979    -0.01946122     0.00008848    -0.00004135    -0.00033496
N        -0.04737006    -0.06659829     1.33711752     0.00014712    -0.00012964     0.00026614
H         0.94464478     0.04835761    -0.58450406    -0.00033797     0.00068268    -0.00074976
H         0.88056437    -0.08589682     1.82887625    -0.00206838     0.00043767    -0.00027160
H        -0.96095835     0.05621187     1.86218415    -0.00072319     0.00099548     0.00140651
H        -0.97116412     0.06197909    -0.56366653     0.00003070     0.00017845    -0.00009198
     6
  Step:    16            Position(A)                                  Velocity(au)
C        -0.03706582     0.01446458    -0.02126512     0.00009486    -0.00003985    -0.00031430
N        -0.04656822    -0.06731015     1.33857106     0.00013952    -0.00012669     0.00025657
H         0.94267408     0.05211237    -0.58861342    -0.00037003     0.00067045    -0.00073072
H         0.86900362    -0.08349653     1.82743102    -0.00207333     0.00042668    -0.00023727
H        -0.96456713     0.06167102     1.86981757    -0.00056809     0.00097028     0.00133590
H        -0.97124316     0.06294086    -0.56444875    -0.00005780     0.00016803    -0.00018801
     6
  Step:    17            Position(A)                                  Velocity(au)
C        -0.03652261     0.01424737    -0.02295063     0.00009992    -0.00003828    -0.00029105
N        -0.04582107    -0.06800484     1.33996596     0.00012692    -0.00012289     0.00024379
H         0.94053667     0.05580098    -0.59261657    -0.00039609     0.00065571    -0.00070823
H         0.85754614    -0.08115975     1.82624212    -0.00202104     0.00041292    -0.00017810
H        -0.96726530     0.06698403     1.87701544    -0.00039556     0.00093852     0.00124503
H        -0.97180586     0.06384461    -0.56575384    -0.00014176     0.00015671    -0.00027831
     6
  Step:    18            Position(A)                                  Velocity(au)
C        -0.03595380     0.01403861    -0.02450427     0.00010311    -0.00003467    -0.00029416
N        -0.04515568    -0.06867783     1.34128426     0.00010988    -0.00012050     0.00024811
H         0.93826595     0.05940984    -0.59649538    -0.00043660     0.00071613    -0.00064918
H         0.84651131    -0.07890110     1.82544894    -0.00192361     0.00031957    -0.00009229
H        -0.96896940     0.07211588     1.88367359    -0.00019673     0.00098702     0.00113621
H        -0.97282086     0.06468494    -0.56754605    -0.00019876     0.00006494    -0.00033735
     6
  Step:    19            Position(A)                                  Velocity(au)
C        -0.03537260     0.01386072    -0.02623132     0.00010504    -0.00002859    -0.00033868
N        -0.04459558    -0.06934877     1.34273312     0.00008881    -0.00011998     0.00028273
H         0.93566734     0.06378775    -0.59985669    -0.00049788     0.00082171    -0.00054934
H         0.83609262    -0.07759563     1.82521278    -0.00179335     0.00017922     0.00000605
H        -0.96945942     0.07799206     1.88968728     0.00002779     0.00108191     0.00100470
H        -0.97402263     0.06456881    -0.56951623    -0.00022233    -0.00007481    -0.00035448
     6
  Step:    20            Position(A)                                  Velocity(au)
C        -0.03478015     0.01371916    -0.02828850     0.00010627    -0.00002210    -0.00039685
N        -0.04416340    -0.07001846     1.34444327     0.00006434    -0.00011933     0.00032824
H         0.93270293     0.06859112    -0.60263336    -0.00055836     0.00088813    -0.00044507
H         0.82647350    -0.07689863     1.82551651    -0.00162665     0.00007779     0.00010967
H        -0.96865894     0.08420449     1.89489952     0.00025685     0.00113020     0.00085619
H        -0.97530504     0.06384907    -0.57150678    -0.00023225    -0.00017450    -0.00035327
     6
  Step:    21            Position(A)                                  Velocity(au)
C        -0.03418337     0.01361335    -0.03067246     0.00010627    -0.00001584    -0.00045276
N        -0.04387553    -0.07068417     1.34640649     0.00003750    -0.00011825     0.00037092
H         0.92941871     0.07372681    -0.60483752    -0.00060942     0.00094090    -0.00034503
H         0.81788868    -0.07672508     1.82644012    -0.00142226    -0.00001062     0.00022671
H        -0.96658499     0.09064019     1.89926898     0.00047913     0.00116222     0.00070409
H        -0.97662174     0.06261602    -0.57346972    -0.00023490    -0.00026047    -0.00034510
     6
  Step:    22            Position(A)                                  Velocity(au)
C        -0.03358946     0.01354171    -0.03336161     0.00010505    -0.00000991    -0.00050431
N        -0.04374317    -0.07134348     1.34859940     0.00000921    -0.00011686     0.00040909
H         0.92587441     0.07913378    -0.60649943    -0.00064939     0.00098460    -0.00025180
H         0.81053717    -0.07701764     1.82805683    -0.00118786    -0.00008970     0.00035504
H        -0.96329027     0.09722703     1.90278883     0.00068942     0.00118391     0.00055370
H        -0.97793712     0.06093047    -0.57537363    -0.00023200    -0.00033674    -0.00033240
     6
  Step:    23            Position(A)                                  Velocity(au)
C        -0.03300531     0.01350217    -0.03632790     0.00010270    -0.00000440    -0.00055084
N        -0.04377222    -0.07199465     1.35099413    -0.00001961    -0.00011528     0.00044239
H         0.92213635     0.08476826    -0.60766128    -0.00067752     0.00102212    -0.00016705
H         0.80456777    -0.07773100     1.83042164    -0.00093283    -0.00016142     0.00049111
H        -0.95885368     0.10391684     1.90547823     0.00088398     0.00119922     0.00040900
H        -0.97922345     0.05883974    -0.57719728    -0.00022488    -0.00040549    -0.00031681
     6
  Step:    24            Position(A)                                  Velocity(au)
C        -0.03243735     0.01349231    -0.03954118     0.00009930     0.00000066    -0.00059226
N        -0.04396318    -0.07263671     1.35356234    -0.00004807    -0.00011365     0.00047099
H         0.91827376     0.09060026    -0.60837347    -0.00069352     0.00105578    -0.00009185
H         0.80007236    -0.07882848     1.83356625    -0.00066708    -0.00022725     0.00063073
H        -0.95337350     0.11068038     1.90737720     0.00106006     0.00121133     0.00027316
H        -0.98045994     0.05638149    -0.57892777    -0.00021471    -0.00046840    -0.00029969
     6
  Step:    25            Position(A)                                  Velocity(au)
C        -0.03189142     0.01350954    -0.04297157     0.00009493     0.00000525    -0.00062871
N        -0.04431146    -0.07326950     1.35627748    -0.00007532    -0.00011209     0.00049528
H         0.91435671     0.09661156    -0.60869163    -0.00069727     0.00108744    -0.00002685
H         0.79708471    -0.08028019     1.83749690    -0.00040033    -0.00028844     0.00076949
H        -0.94696234     0.11750499     1.90854242     0.00121551     0.00122292     0.00014863
H        -0.98163201     0.05358543    -0.58055906    -0.00020251    -0.00052681    -0.00028208
     6
  Step:    26            Position(A)                                  Velocity(au)
C        -0.03137291     0.01355123    -0.04659064     0.00008965     0.00000939    -0.00066040
N        -0.04480768    -0.07389359     1.35911570    -0.00010054    -0.00011072     0.00051569
H         0.91045548     0.10279334    -0.60867456    -0.00068867     0.00111843     0.00002761
H         0.79558359    -0.08206271     1.84219428    -0.00014165    -0.00034606     0.00090288
H        -0.93974441     0.12439253     1.90904372     0.00134831     0.00123618     0.00003740
H        -0.98273058     0.05047450    -0.58209062    -0.00018911    -0.00058181    -0.00026480
     6
  Step:    27            Position(A)                                  Velocity(au)
C        -0.03088686     0.01361474    -0.05037143     0.00008349     0.00001306    -0.00068743
N        -0.04543807    -0.07451014     1.36205590    -0.00012299    -0.00010960     0.00053258
H         0.90664009     0.10914375    -0.60838225    -0.00066757     0.00114962     0.00007142
H         0.79549751    -0.08415786     1.84761380     0.00010074    -0.00040082     0.00102641
H        -0.93185427     0.13135658     1.90896153     0.00145635     0.00125278    -0.00005881
H        -0.98375098     0.04706620    -0.58352614    -0.00017519    -0.00063413    -0.00024845
     6
  Step:    28            Position(A)                                  Velocity(au)
C        -0.03043810     0.01369748    -0.05428780     0.00007645     0.00001627    -0.00070973
N        -0.04618486    -0.07512082     1.36507899    -0.00014196    -0.00010880     0.00054609
H         0.90298063     0.11566568    -0.60787483    -0.00063387     0.00118137     0.00010462
H         0.79671159    -0.08655076     1.85368707     0.00031962    -0.00045311     0.00113578
H        -0.92343761     0.13841992     1.90838520     0.00153721     0.00127387    -0.00013846
H        -0.98469218     0.04337416    -0.58487248    -0.00016129    -0.00068418    -0.00023346
     6
  Step:    29            Position(A)                                  Velocity(au)
C        -0.03003133     0.01379684    -0.05831349     0.00006856     0.00001902    -0.00072706
N        -0.04702662    -0.07572759     1.36816684    -0.00015679    -0.00010833     0.00055623
H         0.89954688     0.12236364    -0.60721152    -0.00058758     0.00121358     0.00012737
H         0.79907412    -0.08922833     1.86032358     0.00050884    -0.00050303     0.00122703
H        -0.91465234     0.14561166     1.90741208     0.00158834     0.00130023    -0.00020009
H        -0.98555587     0.03941002    -0.58613862    -0.00014783    -0.00073203    -0.00022013
     6
  Step:    30            Position(A)                                  Velocity(au)
C        -0.02967109     0.01391023    -0.06242120     0.00005987     0.00002129    -0.00073912
N        -0.04793880    -0.07633266     1.37130133    -0.00016696    -0.00010822     0.00056286
H         0.89640752     0.12924167    -0.60644998    -0.00052909     0.00124580     0.00014002
H         0.80240387    -0.09217797     1.86741345     0.00066356    -0.00055036     0.00129679
H        -0.90566941     0.15296523     1.90614683     0.00160735     0.00133226    -0.00024243
H        -0.98634592     0.03518516    -0.58733499    -0.00013516    -0.00077748    -0.00020867
     6
  Step:    31            Position(A)                                  Velocity(au)
C        -0.02936157     0.01403501    -0.06658213     0.00005045     0.00002308    -0.00074563
N        -0.04889436    -0.07693828     1.37446363    -0.00017210    -0.00010849     0.00056584
H         0.89362792     0.13630054    -0.60564512    -0.00045925     0.00127735     0.00014313
H         0.80649746    -0.09538523     1.87483093     0.00078041    -0.00059467     0.00134263
H        -0.89667074     0.16051572     1.90470001     0.00159268     0.00137008    -0.00026461
H        -0.98706790     0.03071223    -0.58847300    -0.00012356    -0.00082018    -0.00019923
     6
  Step:    32            Position(A)                                  Velocity(au)
C        -0.02910641     0.01416853    -0.07076608     0.00004046     0.00002439    -0.00074644
N        -0.04986485    -0.07754682     1.37763401    -0.00017207    -0.00010914     0.00056505
H         0.89126768     0.14353741    -0.60484811    -0.00037953     0.00130761     0.00013753
H         0.81113805    -0.09883336     1.88243979     0.00085782    -0.00063551     0.00136331
H        -0.88784460     0.16829874     1.90318537     0.00154397     0.00141373    -0.00026642
H        -0.98772874     0.02600590    -0.58956468    -0.00011327    -0.00085977    -0.00019192
     6
  Step:    33            Position(A)                                  Velocity(au)
C        -0.02890837     0.01430815    -0.07494227     0.00003009     0.00002523    -0.00074165
N        -0.05082157    -0.07816066     1.38079221    -0.00016700    -0.00011020     0.00056055
H         0.88937720     0.15094574    -0.60410480    -0.00029197     0.00133609     0.00012434
H         0.81610508    -0.10250298     1.89009993     0.00089611    -0.00067249     0.00135893
H        -0.87937830     0.17634947     1.90171610     0.00146254     0.00146314    -0.00024848
H        -0.98833652     0.02108285    -0.59062250    -0.00010449    -0.00089599    -0.00018683
     6
  Step:    34            Position(A)                                  Velocity(au)
C        -0.02876911     0.01445135    -0.07908060     0.00001955     0.00002563    -0.00073162
N        -0.05173707    -0.07878223     1.38391825    -0.00015727    -0.00011167     0.00055255
H         0.88799447     0.15851602    -0.60345419    -0.00019913     0.00136252     0.00010494
H         0.82118411    -0.10637251     1.89767447     0.00089736    -0.00070537     0.00133092
H        -0.87144844     0.18470163     1.90039976     0.00135153     0.00151809    -0.00021237
H        -0.98890013     0.01596117    -0.59165916    -0.00009734    -0.00092878    -0.00018399
     6
  Step:    35            Position(A)                                  Velocity(au)
C        -0.02868892     0.01459577    -0.08315297     0.00000911     0.00002563    -0.00071690
N        -0.05258652    -0.07941393     1.38699336    -0.00014348    -0.00011356     0.00054144
H         0.88714247     0.16623693    -0.60292706    -0.00010386     0.00138687     0.00008092
H         0.82617584    -0.11041913     1.90503639     0.00086513    -0.00073413     0.00128173
H        -0.86421048     0.19338653     1.89933269     0.00121581     0.00157822    -0.00016065
H        -0.98942893     0.01065940    -0.59268738    -0.00009189    -0.00095831    -0.00018342
     6
  Step:    36            Position(A)                                  Velocity(au)
C        -0.02866673     0.01473933    -0.08713450    -0.00000099     0.00002530    -0.00069824
N        -0.05334892    -0.08005802     1.39000097    -0.00012641    -0.00011584     0.00052773
H         0.88682772     0.17409661    -0.60254507    -0.00000911     0.00140927     0.00005394
H         0.83090329    -0.11461995     1.91207390     0.00080403    -0.00075894     0.00121460
H        -0.85778959     0.20243189     1.89859491     0.00106156     0.00164291    -0.00009665
H        -0.98993241     0.00519520    -0.59371973    -0.00008811    -0.00098491    -0.00018506
     6
  Step:    37            Position(A)                                  Velocity(au)
C        -0.02870005     0.01488027    -0.09100443    -0.00001052     0.00002470    -0.00067645
N        -0.05400791    -0.08071654     1.39292744    -0.00010694    -0.00011847     0.00051200
H         0.88704006     0.18208368    -0.60232053     0.00008229     0.00142998     0.00002563
H         0.83521686    -0.11895317     1.91869407     0.00071924    -0.00078017     0.00113311
H        -0.85227366     0.21186044     1.89824591     0.00089582     0.00171125    -0.00002425
H        -0.99041969    -0.00041559    -0.59476833    -0.00008591    -0.00100908    -0.00018884
     6
  Step:    38            Position(A)                                  Velocity(au)
C        -0.02878516     0.01501723    -0.09474642    -0.00001929     0.00002389    -0.00065230
N        -0.05455225    -0.08139111     1.39576242    -0.00008597    -0.00012135     0.00049486
H         0.88775367     0.19018785    -0.60225669     0.00016775     0.00144924    -0.00000249
H         0.83899670    -0.12339902     1.92482445     0.00061604    -0.00079825     0.00104087
H        -0.84770917     0.22168817     1.89832200     0.00072596     0.00178194     0.00005235
H        -0.99089912    -0.00615975    -0.59584470    -0.00008511    -0.00103133    -0.00019462
     6
  Step:    39            Position(A)                                  Velocity(au)
C        -0.02891728     0.01514926    -0.09834838    -0.00002714     0.00002296    -0.00062649
N        -0.05497584    -0.08208275     1.39849885    -0.00006440    -0.00012437     0.00047684
H         0.88892873     0.19839996    -0.60234856     0.00024507     0.00146720    -0.00002907
H         0.84215250    -0.12794025     1.93041267     0.00049949    -0.00081365     0.00094127
H        -0.84410047     0.23192245     1.89883525     0.00055916     0.00185332     0.00012895
H        -0.99137789    -0.01202686    -0.59695942    -0.00008547    -0.00105215    -0.00020220
     6
  Step:    40            Position(A)                                  Velocity(au)
C        -0.02909080     0.01527576    -0.10180197    -0.00003393     0.00002195    -0.00059958
N        -0.05527748    -0.08279175     1.40113262    -0.00004301    -0.00012738     0.00045839
H         0.89051366     0.20671153    -0.60258408     0.00031240     0.00148388    -0.00005299
H         0.84462198    -0.13256235     1.93542508     0.00037429    -0.00082681     0.00083737
H        -0.84141183     0.24256032     1.89977423     0.00040207     0.00192338     0.00020159
H        -0.99186168    -0.01800909    -0.59812192    -0.00008668    -0.00107191    -0.00021137
     6
  Step:    41            Position(A)                                  Velocity(au)
C        -0.02929949     0.01539650    -0.10510193    -0.00003959     0.00002093    -0.00057201
N        -0.05546035    -0.08351752     1.40366214    -0.00002254    -0.00013021     0.00043988
H         0.89244751     0.21511415    -0.60294541     0.00036829     0.00149916    -0.00007335
H         0.84636843    -0.13725331     1.93984465     0.00024467    -0.00083813     0.00073184
H        -0.83957162     0.25358714     1.90110596     0.00026044     0.00198994     0.00026675
H        -0.99235430    -0.02410072    -0.59934029    -0.00008841    -0.00109089    -0.00022186
     6
  Step:    42            Position(A)                                  Velocity(au)
C        -0.02953674     0.01551155    -0.10824536    -0.00004406     0.00001995    -0.00054412
N        -0.05553141    -0.08425853     1.40608765    -0.00000359    -0.00013270     0.00042156
H         0.89466229     0.22359873    -0.60341033     0.00041173     0.00151281    -0.00008949
H         0.84737803    -0.14200340     1.94366881     0.00011441    -0.00084794     0.00062700
H        -0.83847815     0.26497592     1.90277904     0.00013896     0.00205075     0.00032150
H        -0.99285755    -0.03029742    -0.60062106    -0.00009026    -0.00110925    -0.00023337
     6
  Step:    43            Position(A)                                  Velocity(au)
C        -0.02979578     0.01562121    -0.11123106    -0.00004732     0.00001904    -0.00051613
N        -0.05550075    -0.08501231     1.40841070     0.00001336    -0.00013468     0.00040358
H         0.89708537     0.23215501    -0.60395351     0.00044206     0.00152455    -0.00010098
H         0.84765721    -0.14680483     1.94690745    -0.00001312    -0.00085655     0.00052489
H        -0.83800632     0.27668753     1.90472741     0.00004114     0.00210370     0.00036360
H        -0.99337100    -0.03659571    -0.60196907    -0.00009183    -0.00112704    -0.00024559
     6
  Step:    44            Position(A)                                  Velocity(au)
C        -0.03006980     0.01572600    -0.11405905    -0.00004940     0.00001823    -0.00048823
N        -0.05538091    -0.08577553     1.41063360     0.00002793    -0.00013600     0.00038605
H         0.89964160     0.24077128    -0.60454782     0.00045902     0.00153411    -0.00010760
H         0.84723025    -0.15165155     1.94958122    -0.00013497    -0.00086423     0.00042727
H        -0.83801476     0.28867193     1.90687461    -0.00003078     0.00214698     0.00039160
H        -0.99389194    -0.04299240    -0.60338738    -0.00009272    -0.00114428    -0.00025820
     6