|===============================================================================
|
|  DFTB+ release 20.1
|
|  Copyright (C) 2006 - 2020  DFTB+ developers group
|
|===============================================================================
|
|  When publishing results obtained with DFTB+, please cite the following
|  reference:
|
|  * DFTB+, a software package for efficient approximate density functional
|    theory based atomistic simulations, J. Chem. Phys. 152, 124101 (2020).
|    [doi: 10.1063/1.5143190]
|
|  You should also cite additional publications crediting the parametrization
|  data you use. Please consult the documentation of the SK-files for the
|  references.
|
|===============================================================================

Reading input file 'dftb_in.hsd'
Parser version: 8

--------------------------------------------------------------------------------
Reading SK-files:
Done.


Processed input in HSD format written to 'dftb_pin.hsd'

Starting initialization...
--------------------------------------------------------------------------------
OpenMP threads:              1
Chosen random seed:          500528434
Mode:                        Static calculation
Self consistent charges:     Yes
SCC-tolerance:                 0.100000E-05
Max. scc iterations:                   1000
Shell resolved Hubbard:      No
Spin polarisation:           No
Nr. of up electrons:            16.000000
Nr. of down electrons:          16.000000
Periodic boundaries:         No
Electronic solver:           Relatively robust
Maximal SCC-cycles:                    1000
Initial charges:             Set automatically (system chrg:   0.100E+01)
Included shells:             C:  s, p
                             H:  s
                             N:  s, p
Spin coupling constants:     C   1(s)-1(s):  -0.455900E-01
                             C   1(s)-2(p):  -0.293000E-01
                             C   2(p)-1(s):  -0.293000E-01
                             C   2(p)-2(p):  -0.275500E-01
                             H   1(s)-1(s):  -0.792500E-01
                             N   1(s)-1(s):  -0.468700E-01
                             N   1(s)-2(p):  -0.317000E-01
                             N   2(p)-1(s):  -0.317000E-01
                             N   2(p)-2(p):  -0.307200E-01
Range separated hybrid:      Yes
  Screening parameter omega:   0.300000E+00
  Range separated algorithm:   MatrixBased
Extra options:
                             Mulliken analysis
                             Force calculation
Force type                   original
                             Eigenvector printing


REKS Calcuation:             Yes
SSR(2,2) Calcuation:         Yes
Energy Functional:           (PPS+OSS)/2
Number of Core Orbitals:                 15
Number of Active Orbitals:                2
Number of Basis:                         32
Number of States:                         2
State-Averaging Weight:          0.500000
                                 0.500000
State of Interest:                        1
Initial Guess:               Diagonalize H0 matrix
Newton-Raphson for FON opt:  Yes
NR max. Iterations:                      50
Level Shifting:              Yes
Shift Value:                     0.300000
W Scale Factor:              C  =    3.200000
                             H  =    3.200000
                             N  =    3.200000
Transition Dipole:           No
Gradient of Microstate:      No
CP-REKS Solver:              Preconditioned Conjugate-Gradient
CG max. Iterations:                     100
CG Tolerance:                  0.100000E-07
Memory for A and Hxc:        Direct Updating Without Saving
Non-Adiabatic Coupling:      Yes

--------------------------------------------------------------------------------

***  Geometry step: 0

  iSCC       reks energy        Diff energy         x_a       SCC error   
    1      -16.3887116668       0.0000000000     0.994067    1.17907693
    2      -16.4061822915      -0.0174706248     0.999320    0.04303788
    3      -16.4103095734      -0.0041272819     0.999792    0.02792378
    4      -16.4117270213      -0.0014174479     0.999894    0.01791160
    5      -16.4123398438      -0.0006128224     0.999930    0.01210428
    6      -16.4126413919      -0.0003015481     0.999947    0.00857006
    7      -16.4128039413      -0.0001625494     0.999956    0.00626145
    8      -16.4128986873      -0.0000947460     0.999961    0.00468252
    9      -16.4129582643      -0.0000595771     0.999964    0.00357222
   10      -16.4129986916      -0.0000404273     0.999965    0.00277626
   11      -16.4130282152      -0.0000295235     0.999967    0.00219663
   12      -16.4130512374      -0.0000230223     0.999967    0.00176859
   13      -16.4130701850      -0.0000189476     0.999968    0.00144828
   14      -16.4130864377      -0.0000162527     0.999968    0.00120549
   15      -16.4131008060      -0.0000143683     0.999968    0.00101913
   16      -16.4131137828      -0.0000129767     0.999968    0.00087428
   17      -16.4131256792      -0.0000118965     0.999968    0.00076030
   18      -16.4131367000      -0.0000110208     0.999968    0.00066948
   19      -16.4131469852      -0.0000102852     0.999968    0.00059624
   20      -16.4131566351      -0.0000096499     0.999968    0.00053646
   21      -16.4131657242      -0.0000090891     0.999968    0.00048709
   22      -16.4131743104      -0.0000085862     0.999968    0.00044586
   23      -16.4131824399      -0.0000081295     0.999968    0.00042936
   24      -16.4131901510      -0.0000077111     0.999968    0.00042193
   25      -16.4131974760      -0.0000073250     0.999968    0.00041434
   26      -16.4132044430      -0.0000069670     0.999968    0.00040662
   27      -16.4132110766      -0.0000066336     0.999968    0.00039884
   28      -16.4132173987      -0.0000063222     0.999968    0.00039103
   29      -16.4132234293      -0.0000060306     0.999968    0.00038324
   30      -16.4132291862      -0.0000057569     0.999968    0.00037549
   31      -16.4132346859      -0.0000054997     0.999967    0.00036783
   32      -16.4132399435      -0.0000052576     0.999967    0.00036027
   33      -16.4132449729      -0.0000050294     0.999967    0.00035283
   34      -16.4132497871      -0.0000048142     0.999967    0.00034553
   35      -16.4132543980      -0.0000046109     0.999967    0.00033838
   36      -16.4132588168      -0.0000044188     0.999967    0.00033138
   37      -16.4132630539      -0.0000042370     0.999967    0.00032455
   38      -16.4132671188      -0.0000040650     0.999967    0.00031789
   39      -16.4132710209      -0.0000039020     0.999967    0.00031139
   40      -16.4132747684      -0.0000037475     0.999967    0.00030507
   41      -16.4132783694      -0.0000036010     0.999967    0.00029891
   42      -16.4132818313      -0.0000034619     0.999967    0.00029293
   43      -16.4132851612      -0.0000033299     0.999967    0.00028711
   44      -16.4132883656      -0.0000032044     0.999967    0.00028145
   45      -16.4132914506      -0.0000030850     0.999967    0.00027595
   46      -16.4132944221      -0.0000029715     0.999967    0.00027061
   47      -16.4132972857      -0.0000028635     0.999967    0.00026542
   48      -16.4133000463      -0.0000027607     0.999967    0.00026038
   49      -16.4133027090      -0.0000026627     0.999968    0.00025548
   50      -16.4133052783      -0.0000025693     0.999968    0.00025072
   51      -16.4133077584      -0.0000024802     0.999968    0.00024610
   52      -16.4133101536      -0.0000023952     0.999968    0.00024161
   53      -16.4133124677      -0.0000023140     0.999968    0.00023725
   54      -16.4133147042      -0.0000022366     0.999968    0.00023301
   55      -16.4133168667      -0.0000021625     0.999968    0.00022889
   56      -16.4133189585      -0.0000020918     0.999968    0.00022489
   57      -16.4133209826      -0.0000020241     0.999968    0.00022099
   58      -16.4133229420      -0.0000019594     0.999968    0.00021721
   59      -16.4133248394      -0.0000018974     0.999968    0.00021353
   60      -16.4133266775      -0.0000018381     0.999968    0.00020995
   61      -16.4133284587      -0.0000017812     0.999968    0.00020646
   62      -16.4133301855      -0.0000017268     0.999968    0.00020307
   63      -16.4133318601      -0.0000016746     0.999968    0.00019978
   64      -16.4133334846      -0.0000016245     0.999968    0.00019656
   65      -16.4133350611      -0.0000015765     0.999968    0.00019344
   66      -16.4133365914      -0.0000015304     0.999968    0.00019039
   67      -16.4133380775      -0.0000014861     0.999968    0.00018743
   68      -16.4133395211      -0.0000014436     0.999968    0.00018454
   69      -16.4133409238      -0.0000014027     0.999968    0.00018173
   70      -16.4133422872      -0.0000013634     0.999968    0.00017898
   71      -16.4133436129      -0.0000013257     0.999968    0.00017631
   72      -16.4133449022      -0.0000012893     0.999968    0.00017370
   73      -16.4133461566      -0.0000012544     0.999968    0.00017116
   74      -16.4133473774      -0.0000012207     0.999969    0.00016868
   75      -16.4133485657      -0.0000011883     0.999969    0.00016626
   76      -16.4133497229      -0.0000011571     0.999969    0.00016391
   77      -16.4133508499      -0.0000011271     0.999969    0.00016160
   78      -16.4133519481      -0.0000010981     0.999969    0.00015936
   79      -16.4133530182      -0.0000010702     0.999969    0.00015716
   80      -16.4133540614      -0.0000010432     0.999969    0.00015502
   81      -16.4133550787      -0.0000010172     0.999969    0.00015293
   82      -16.4133560708      -0.0000009922     0.999969    0.00015088
   83      -16.4133570388      -0.0000009679     0.999969    0.00014889
   84      -16.4133579833      -0.0000009446     0.999969    0.00014694
   85      -16.4133589053      -0.0000009220     0.999969    0.00014503
   86      -16.4133598055      -0.0000009002     0.999969    0.00014317
   87      -16.4133606846      -0.0000008791     0.999969    0.00014135
   88      -16.4133615433      -0.0000008587     0.999969    0.00013957
   89      -16.4133623822      -0.0000008390     0.999969    0.00013783
   90      -16.4133632022      -0.0000008199     0.999969    0.00013612
   91      -16.4133640037      -0.0000008015     0.999969    0.00013446
   92      -16.4133647873      -0.0000007836     0.999969    0.00013283
   93      -16.4133655537      -0.0000007664     0.999969    0.00013123
   94      -16.4133663033      -0.0000007496     0.999970    0.00012967
   95      -16.4133670367      -0.0000007334     0.999970    0.00012814
   96      -16.4133677545      -0.0000007177     0.999970    0.00012665
   97      -16.4133684570      -0.0000007025     0.999970    0.00012518
   98      -16.4133691448      -0.0000006878     0.999970    0.00012375
   99      -16.4133698184      -0.0000006735     0.999970    0.00012234
  100      -16.4133704780      -0.0000006597     0.999970    0.00012097
  101      -16.4133711243      -0.0000006462     0.999970    0.00011962
  102      -16.4133717575      -0.0000006332     0.999970    0.00011830
  103      -16.4133723780      -0.0000006206     0.999970    0.00011701
  104      -16.4133729863      -0.0000006083     0.999970    0.00011574
  105      -16.4133735827      -0.0000005964     0.999970    0.00011450
  106      -16.4133741675      -0.0000005848     0.999970    0.00011328
  107      -16.4133747411      -0.0000005736     0.999970    0.00011209
  108      -16.4133753037      -0.0000005627     0.999970    0.00011092
  109      -16.4133758558      -0.0000005521     0.999970    0.00010977
  110      -16.4133763975      -0.0000005417     0.999970    0.00010864
  111      -16.4133769292      -0.0000005317     0.999970    0.00010754
  112      -16.4133774512      -0.0000005220     0.999970    0.00010645
  113      -16.4133779638      -0.0000005125     0.999970    0.00010539
  114      -16.4133784671      -0.0000005033     0.999971    0.00010435
  115      -16.4133789615      -0.0000004944     0.999971    0.00010332
  116      -16.4133794471      -0.0000004857     0.999971    0.00010232
  117      -16.4133799243      -0.0000004772     0.999971    0.00010133
  118      -16.4133803932      -0.0000004689     0.999971    0.00010037
  119      -16.4133808541      -0.0000004609     0.999971    0.00009942
  120      -16.4133813072      -0.0000004531     0.999971    0.00009848
  121      -16.4133817526      -0.0000004454     0.999971    0.00009757
  122      -16.4133821906      -0.0000004380     0.999971    0.00009667
  123      -16.4133826214      -0.0000004308     0.999971    0.00009578
  124      -16.4133830452      -0.0000004238     0.999971    0.00009492
  125      -16.4133834621      -0.0000004169     0.999971    0.00009406
  126      -16.4133838723      -0.0000004102     0.999971    0.00009323
  127      -16.4133842760      -0.0000004037     0.999971    0.00009240
  128      -16.4133846733      -0.0000003973     0.999971    0.00009159
  129      -16.4133850644      -0.0000003911     0.999971    0.00009080
  130      -16.4133854495      -0.0000003851     0.999971    0.00009002
  131      -16.4133858287      -0.0000003792     0.999971    0.00008925
  132      -16.4133862021      -0.0000003734     0.999971    0.00008850
  133      -16.4133865699      -0.0000003678     0.999971    0.00008782
  134      -16.4133869322      -0.0000003623     0.999971    0.00008728
  135      -16.4133872892      -0.0000003570     0.999972    0.00008674
  136      -16.4133876410      -0.0000003518     0.999972    0.00008622
  137      -16.4133879877      -0.0000003467     0.999972    0.00008570
  138      -16.4133883294      -0.0000003417     0.999972    0.00008519
  139      -16.4133886662      -0.0000003368     0.999972    0.00008468
  140      -16.4133889983      -0.0000003321     0.999972    0.00008419
  141      -16.4133893257      -0.0000003274     0.999972    0.00008370
  142      -16.4133896486      -0.0000003229     0.999972    0.00008322
  143      -16.4133899671      -0.0000003185     0.999972    0.00008274
  144      -16.4133902813      -0.0000003142     0.999972    0.00008227
  145      -16.4133905912      -0.0000003099     0.999972    0.00008181
  146      -16.4133908970      -0.0000003058     0.999972    0.00008135
  147      -16.4133911988      -0.0000003018     0.999972    0.00008090
  148      -16.4133914966      -0.0000002978     0.999972    0.00008046
  149      -16.4133917905      -0.0000002939     0.999972    0.00008002
  150      -16.4133920807      -0.0000002902     0.999972    0.00007959
  151      -16.4133923671      -0.0000002865     0.999972    0.00007917
  152      -16.4133926500      -0.0000002828     0.999972    0.00007875
  153      -16.4133929293      -0.0000002793     0.999972    0.00007834
  154      -16.4133932051      -0.0000002758     0.999972    0.00007793
  155      -16.4133934776      -0.0000002725     0.999972    0.00007753
  156      -16.4133937467      -0.0000002691     0.999972    0.00007714
  157      -16.4133940126      -0.0000002659     0.999972    0.00007675
  158      -16.4133942753      -0.0000002627     0.999973    0.00007636
  159      -16.4133945349      -0.0000002596     0.999973    0.00007598
  160      -16.4133947915      -0.0000002566     0.999973    0.00007561
  161      -16.4133950451      -0.0000002536     0.999973    0.00007524
  162      -16.4133952957      -0.0000002507     0.999973    0.00007488
  163      -16.4133955435      -0.0000002478     0.999973    0.00007452
  164      -16.4133957885      -0.0000002450     0.999973    0.00007416
  165      -16.4133960307      -0.0000002422     0.999973    0.00007381
  166      -16.4133962703      -0.0000002396     0.999973    0.00007347
  167      -16.4133965072      -0.0000002369     0.999973    0.00007313
  168      -16.4133967415      -0.0000002343     0.999973    0.00007279
  169      -16.4133969733      -0.0000002318     0.999973    0.00007246
  170      -16.4133972026      -0.0000002293     0.999973    0.00007214
  171      -16.4133974295      -0.0000002269     0.999973    0.00007182
  172      -16.4133976540      -0.0000002245     0.999973    0.00007150
  173      -16.4133978762      -0.0000002222     0.999973    0.00007119
  174      -16.4133980961      -0.0000002199     0.999973    0.00007088
  175      -16.4133983137      -0.0000002176     0.999973    0.00007057
  176      -16.4133985291      -0.0000002154     0.999973    0.00007027
  177      -16.4133987424      -0.0000002133     0.999973    0.00006998
  178      -16.4133989535      -0.0000002111     0.999973    0.00006969
  179      -16.4133991626      -0.0000002091     0.999973    0.00006940
  180      -16.4133993696      -0.0000002070     0.999973    0.00006911
  181      -16.4133995746      -0.0000002050     0.999973    0.00006883
  182      -16.4133997776      -0.0000002030     0.999973    0.00006856
  183      -16.4133999788      -0.0000002011     0.999974    0.00006828
  184      -16.4134001780      -0.0000001992     0.999974    0.00006801
  185      -16.4134003754      -0.0000001974     0.999974    0.00006775
  186      -16.4134005709      -0.0000001956     0.999974    0.00006748
  187      -16.4134007647      -0.0000001938     0.999974    0.00006723
  188      -16.4134009567      -0.0000001920     0.999974    0.00006697
  189      -16.4134011470      -0.0000001903     0.999974    0.00006672
  190      -16.4134013356      -0.0000001886     0.999974    0.00006647
  191      -16.4134015225      -0.0000001869     0.999974    0.00006622
  192      -16.4134017078      -0.0000001853     0.999974    0.00006598
  193      -16.4134018915      -0.0000001837     0.999974    0.00006574
  194      -16.4134020737      -0.0000001821     0.999974    0.00006551
  195      -16.4134022542      -0.0000001806     0.999974    0.00006528
  196      -16.4134024333      -0.0000001791     0.999974    0.00006505
  197      -16.4134026109      -0.0000001776     0.999974    0.00006482
  198      -16.4134027870      -0.0000001761     0.999974    0.00006460
  199      -16.4134029617      -0.0000001747     0.999974    0.00006438
  200      -16.4134031350      -0.0000001733     0.999974    0.00006416
  201      -16.4134033068      -0.0000001719     0.999974    0.00006395
  202      -16.4134034774      -0.0000001705     0.999974    0.00006373
  203      -16.4134036465      -0.0000001692     0.999974    0.00006353
  204      -16.4134038144      -0.0000001679     0.999974    0.00006332
  205      -16.4134039810      -0.0000001666     0.999974    0.00006312
  206      -16.4134041463      -0.0000001653     0.999974    0.00006292
  207      -16.4134043103      -0.0000001641     0.999974    0.00006272
  208      -16.4134044731      -0.0000001628     0.999974    0.00006252
  209      -16.4134046348      -0.0000001616     0.999975    0.00006233
  210      -16.4134047952      -0.0000001604     0.999975    0.00006214
  211      -16.4134049545      -0.0000001593     0.999975    0.00006195
  212      -16.4134051126      -0.0000001581     0.999975    0.00006177
  213      -16.4134052696      -0.0000001570     0.999975    0.00006159
  214      -16.4134054255      -0.0000001559     0.999975    0.00006141
  215      -16.4134055803      -0.0000001548     0.999975    0.00006123
  216      -16.4134057340      -0.0000001537     0.999975    0.00006105
  217      -16.4134058867      -0.0000001527     0.999975    0.00006088
  218      -16.4134060383      -0.0000001516     0.999975    0.00006071
  219      -16.4134061890      -0.0000001506     0.999975    0.00006054
  220      -16.4134063386      -0.0000001496     0.999975    0.00006038
  221      -16.4134064872      -0.0000001486     0.999975    0.00006021
  222      -16.4134066349      -0.0000001477     0.999975    0.00006005
  223      -16.4134067816      -0.0000001467     0.999975    0.00005989
  224      -16.4134069274      -0.0000001458     0.999975    0.00005974
  225      -16.4134070723      -0.0000001449     0.999975    0.00005958
  226      -16.4134072163      -0.0000001440     0.999975    0.00005943
  227      -16.4134073593      -0.0000001431     0.999975    0.00005928
  228      -16.4134075016      -0.0000001422     0.999975    0.00005913
  229      -16.4134076429      -0.0000001413     0.999975    0.00005898
  230      -16.4134077834      -0.0000001405     0.999975    0.00005884
  231      -16.4134079231      -0.0000001397     0.999975    0.00005870
  232      -16.4134080619      -0.0000001388     0.999975    0.00005856
  233      -16.4134081999      -0.0000001380     0.999975    0.00005842
  234      -16.4134083372      -0.0000001372     0.999975    0.00005828
  235      -16.4134084737      -0.0000001365     0.999975    0.00005815
  236      -16.4134086094      -0.0000001357     0.999975    0.00005801
  237      -16.4134087443      -0.0000001349     0.999975    0.00005788
  238      -16.4134088785      -0.0000001342     0.999976    0.00005775
  239      -16.4134090120      -0.0000001335     0.999976    0.00005763
  240      -16.4134091447      -0.0000001328     0.999976    0.00005750
  241      -16.4134092768      -0.0000001320     0.999976    0.00005738
  242      -16.4134094081      -0.0000001314     0.999976    0.00005726
  243      -16.4134095388      -0.0000001307     0.999976    0.00005714
  244      -16.4134096688      -0.0000001300     0.999976    0.00005702
  245      -16.4134097981      -0.0000001293     0.999976    0.00005690
  246      -16.4134099268      -0.0000001287     0.999976    0.00005679
  247      -16.4134100549      -0.0000001280     0.999976    0.00005667
  248      -16.4134101823      -0.0000001274     0.999976    0.00005656
  249      -16.4134103091      -0.0000001268     0.999976    0.00005645
  250      -16.4134104353      -0.0000001262     0.999976    0.00005634
  251      -16.4134105608      -0.0000001256     0.999976    0.00005624
  252      -16.4134106858      -0.0000001250     0.999976    0.00005613
  253      -16.4134108102      -0.0000001244     0.999976    0.00005603
  254      -16.4134109341      -0.0000001238     0.999976    0.00005593
  255      -16.4134110574      -0.0000001233     0.999976    0.00005583
  256      -16.4134111801      -0.0000001227     0.999976    0.00005573
  257      -16.4134113023      -0.0000001222     0.999976    0.00005563
  258      -16.4134114239      -0.0000001216     0.999976    0.00005553
  259      -16.4134115450      -0.0000001211     0.999976    0.00005544
  260      -16.4134116656      -0.0000001206     0.999976    0.00005535
  261      -16.4134117857      -0.0000001201     0.999976    0.00005526
  262      -16.4134119053      -0.0000001196     0.999976    0.00005517
  263      -16.4134120244      -0.0000001191     0.999976    0.00005508
  264      -16.4134121430      -0.0000001186     0.999976    0.00005499
  265      -16.4134122611      -0.0000001181     0.999976    0.00005490
  266      -16.4134123788      -0.0000001177     0.999976    0.00005482
  267      -16.4134124960      -0.0000001172     0.999977    0.00005474
  268      -16.4134126127      -0.0000001167     0.999977    0.00005466
  269      -16.4134127290      -0.0000001163     0.999977    0.00005458
  270      -16.4134128449      -0.0000001159     0.999977    0.00005450
  271      -16.4134129603      -0.0000001154     0.999977    0.00005442
  272      -16.4134130753      -0.0000001150     0.999977    0.00005434
  273      -16.4134131899      -0.0000001146     0.999977    0.00005427
  274      -16.4134133041      -0.0000001142     0.999977    0.00005419
  275      -16.4134134178      -0.0000001138     0.999977    0.00005412
  276      -16.4134135312      -0.0000001134     0.999977    0.00005405
  277      -16.4134136442      -0.0000001130     0.999977    0.00005398
  278      -16.4134137568      -0.0000001126     0.999977    0.00005391
  279      -16.4134138690      -0.0000001122     0.999977    0.00005384
  280      -16.4134139809      -0.0000001118     0.999977    0.00005378
  281      -16.4134140923      -0.0000001115     0.999977    0.00005371
  282      -16.4134142035      -0.0000001111     0.999977    0.00005365
  283      -16.4134143142      -0.0000001108     0.999977    0.00005359
  284      -16.4134144247      -0.0000001104     0.999977    0.00005353
  285      -16.4134145347      -0.0000001101     0.999977    0.00005347
  286      -16.4134146445      -0.0000001097     0.999977    0.00005341
  287      -16.4134147539      -0.0000001094     0.999977    0.00005335
  288      -16.4134148630      -0.0000001091     0.999977    0.00005329
  289      -16.4134149718      -0.0000001088     0.999977    0.00005324
  290      -16.4134150803      -0.0000001085     0.999977    0.00005318
  291      -16.4134151884      -0.0000001082     0.999977    0.00005313
  292      -16.4134152963      -0.0000001079     0.999977    0.00005308
  293      -16.4134154038      -0.0000001076     0.999977    0.00005302
  294      -16.4134155111      -0.0000001073     0.999977    0.00005297
  295      -16.4134156181      -0.0000001070     0.999977    0.00005292
  296      -16.4134157248      -0.0000001067     0.999977    0.00005288
  297      -16.4134158313      -0.0000001064     0.999977    0.00005283
  298      -16.4134159374      -0.0000001062     0.999978    0.00005278
  299      -16.4134160433      -0.0000001059     0.999978    0.00005274
  300      -16.4134161490      -0.0000001056     0.999978    0.00005269
  301      -16.4134162544      -0.0000001054     0.999978    0.00005265
  302      -16.4134163595      -0.0000001051     0.999978    0.00005261
  303      -16.4134164644      -0.0000001049     0.999978    0.00005257
  304      -16.4134165690      -0.0000001047     0.999978    0.00005253
  305      -16.4134166734      -0.0000001044     0.999978    0.00005249
  306      -16.4134167776      -0.0000001042     0.999978    0.00005245
  307      -16.4134168816      -0.0000001040     0.999978    0.00005242
  308      -16.4134169853      -0.0000001037     0.999978    0.00005238
  309      -16.4134170888      -0.0000001035     0.999978    0.00005234
  310      -16.4134171921      -0.0000001033     0.999978    0.00005231
  311      -16.4134172952      -0.0000001031     0.999978    0.00005228
  312      -16.4134173981      -0.0000001029     0.999978    0.00005224
  313      -16.4134175008      -0.0000001027     0.999978    0.00005221
  314      -16.4134176033      -0.0000001025     0.999978    0.00005218
  315      -16.4134177056      -0.0000001023     0.999978    0.00005215
  316      -16.4134178077      -0.0000001021     0.999978    0.00005212
  317      -16.4134179097      -0.0000001019     0.999978    0.00005210
  318      -16.4134180114      -0.0000001017     0.999978    0.00005207
  319      -16.4134181130      -0.0000001016     0.999978    0.00005204
  320      -16.4134182144      -0.0000001014     0.999978    0.00005202
  321      -16.4134183156      -0.0000001012     0.999978    0.00005199
  322      -16.4134184167      -0.0000001011     0.999978    0.00005197
  323      -16.4134185176      -0.0000001009     0.999978    0.00005195
  324      -16.4134186183      -0.0000001007     0.999978    0.00005193
  325      -16.4134187189      -0.0000001006     0.999978    0.00005191
  326      -16.4134188194      -0.0000001004     0.999978    0.00005189
  327      -16.4134189197      -0.0000001003     0.999978    0.00005187
  328      -16.4134190198      -0.0000001002     0.999978    0.00005185
  329      -16.4134191198      -0.0000001000     0.999978    0.00005183
  330      -16.4134192197      -0.0000000999     0.999979    0.00005181
  331      -16.4134193195      -0.0000000998     0.999979    0.00005180
  332      -16.4134194191      -0.0000000996     0.999979    0.00005178
  333      -16.4134195186      -0.0000000995     0.999979    0.00005177
  334      -16.4134196180      -0.0000000994     0.999979    0.00005176
  335      -16.4134197172      -0.0000000993     0.999979    0.00005174
  336      -16.4134198164      -0.0000000991     0.999979    0.00005173
  337      -16.4134199154      -0.0000000990     0.999979    0.00005172
  338      -16.4134200143      -0.0000000989     0.999979    0.00005171
  339      -16.4134201131      -0.0000000988     0.999979    0.00005170
  340      -16.4134202119      -0.0000000987     0.999979    0.00005169
  341      -16.4134203105      -0.0000000986     0.999979    0.00005168
  342      -16.4134204090      -0.0000000985     0.999979    0.00005168
  343      -16.4134205074      -0.0000000984     0.999979    0.00005167
  344      -16.4134206058      -0.0000000983     0.999979    0.00005166
  345      -16.4134207040      -0.0000000983     0.999979    0.00005166
  346      -16.4134208022      -0.0000000982     0.999979    0.00005165
  347      -16.4134209003      -0.0000000981     0.999979    0.00005165
  348      -16.4134209983      -0.0000000980     0.999979    0.00005165
  349      -16.4134210962      -0.0000000979     0.999979    0.00005164
  350      -16.4134211941      -0.0000000979     0.999979    0.00005164
  351      -16.4134212919      -0.0000000978     0.999979    0.00005164
  352      -16.4134213896      -0.0000000977     0.999979    0.00005164
  353      -16.4134214873      -0.0000000977     0.999979    0.00005164
  354      -16.4134215849      -0.0000000976     0.999979    0.00005164
  355      -16.4134216824      -0.0000000975     0.999979    0.00005164
  356      -16.4134217799      -0.0000000975     0.999979    0.00005165
  357      -16.4134218773      -0.0000000974     0.999979    0.00005165
  358      -16.4134219747      -0.0000000974     0.999979    0.00005165
  359      -16.4134220721      -0.0000000973     0.999979    0.00005166
  360      -16.4134221694      -0.0000000973     0.999979    0.00005166
  361      -16.4134222666      -0.0000000973     0.999979    0.00005167
  362      -16.4134223638      -0.0000000972     0.999980    0.00005167
  363      -16.4134224610      -0.0000000972     0.999980    0.00005168
  364      -16.4134225582      -0.0000000971     0.999980    0.00005169
  365      -16.4134226553      -0.0000000971     0.999980    0.00005170
  366      -16.4134227523      -0.0000000971     0.999980    0.00005171
  367      -16.4134228494      -0.0000000971     0.999980    0.00005171
  368      -16.4134229464      -0.0000000970     0.999980    0.00005172
  369      -16.4134230434      -0.0000000970     0.999980    0.00005174
  370      -16.4134231404      -0.0000000970     0.999980    0.00005175
  371      -16.4134232374      -0.0000000970     0.999980    0.00005176
  372      -16.4134233344      -0.0000000970     0.999980    0.00005177
  373      -16.4134234313      -0.0000000969     0.999980    0.00005178
  374      -16.4134235283      -0.0000000969     0.999980    0.00005180
  375      -16.4134236252      -0.0000000969     0.999980    0.00005181
  376      -16.4134237221      -0.0000000969     0.999980    0.00005183
  377      -16.4134238190      -0.0000000969     0.999980    0.00005184
  378      -16.4134239159      -0.0000000969     0.999980    0.00005186
  379      -16.4134240129      -0.0000000969     0.999980    0.00005187
  380      -16.4134241098      -0.0000000969     0.999980    0.00005189
  381      -16.4134242067      -0.0000000969     0.999980    0.00005191
  382      -16.4134243037      -0.0000000969     0.999980    0.00005193
  383      -16.4134244006      -0.0000000969     0.999980    0.00005194
  384      -16.4134244976      -0.0000000970     0.999980    0.00005196
  385      -16.4134245945      -0.0000000970     0.999980    0.00005198
  386      -16.4134246915      -0.0000000970     0.999980    0.00005200
  387      -16.4134247885      -0.0000000970     0.999980    0.00005202
  388      -16.4134248856      -0.0000000970     0.999980    0.00005205
  389      -16.4134249826      -0.0000000971     0.999980    0.00005207
  390      -16.4134250797      -0.0000000971     0.999980    0.00005209
  391      -16.4134251768      -0.0000000971     0.999980    0.00005211
  392      -16.4134252739      -0.0000000971     0.999980    0.00005214
  393      -16.4134253711      -0.0000000972     0.999980    0.00005216
  394      -16.4134254683      -0.0000000972     0.999981    0.00005218
  395      -16.4134255655      -0.0000000972     0.999981    0.00005221
  396      -16.4134256628      -0.0000000973     0.999981    0.00005223
  397      -16.4134257601      -0.0000000973     0.999981    0.00005226
  398      -16.4134258574      -0.0000000973     0.999981    0.00005229
  399      -16.4134259548      -0.0000000974     0.999981    0.00005231
  400      -16.4134260522      -0.0000000974     0.999981    0.00005234
  401      -16.4134261497      -0.0000000975     0.999981    0.00005237
  402      -16.4134262472      -0.0000000975     0.999981    0.00005240
  403      -16.4134263448      -0.0000000976     0.999981    0.00005242
  404      -16.4134264424      -0.0000000976     0.999981    0.00005245
  405      -16.4134265401      -0.0000000977     0.999981    0.00005248
  406      -16.4134266378      -0.0000000977     0.999981    0.00005251
  407      -16.4134267356      -0.0000000978     0.999981    0.00005254
  408      -16.4134268335      -0.0000000978     0.999981    0.00005257
  409      -16.4134269314      -0.0000000979     0.999981    0.00005260
  410      -16.4134270293      -0.0000000980     0.999981    0.00005264
  411      -16.4134271273      -0.0000000980     0.999981    0.00005267
  412      -16.4134272254      -0.0000000981     0.999981    0.00005270
  413      -16.4134273236      -0.0000000982     0.999981    0.00005273
  414      -16.4134274218      -0.0000000982     0.999981    0.00005277
  415      -16.4134275201      -0.0000000983     0.999981    0.00005280
  416      -16.4134276184      -0.0000000984     0.999981    0.00005283
  417      -16.4134277169      -0.0000000984     0.999981    0.00005287
  418      -16.4134278154      -0.0000000985     0.999981    0.00005290
  419      -16.4134279140      -0.0000000986     0.999981    0.00005294
  420      -16.4134280126      -0.0000000987     0.999981    0.00005297
  421      -16.4134281114      -0.0000000987     0.999981    0.00005301
  422      -16.4134282102      -0.0000000988     0.999981    0.00005304
  423      -16.4134283091      -0.0000000989     0.999981    0.00005308
  424      -16.4134284080      -0.0000000990     0.999981    0.00005312
  425      -16.4134285071      -0.0000000991     0.999981    0.00005316
  426      -16.4134286063      -0.0000000991     0.999982    0.00005319
  427      -16.4134287055      -0.0000000992     0.999982    0.00005323
  428      -16.4134288048      -0.0000000993     0.999982    0.00005327
  429      -16.4134289042      -0.0000000994     0.999982    0.00005331
  430      -16.4134290037      -0.0000000995     0.999982    0.00005335
  431      -16.4134291033      -0.0000000996     0.999982    0.00005339
  432      -16.4134292030      -0.0000000997     0.999982    0.00005343
  433      -16.4134293028      -0.0000000998     0.999982    0.00005347
  434      -16.4134294027      -0.0000000999     0.999982    0.00005351
  435      -16.4134295026      -0.0000001000     0.999982    0.00005355
  436      -16.4134296027      -0.0000001001     0.999982    0.00005359
  437      -16.4134297029      -0.0000001002     0.999982    0.00005363
  438      -16.4134298031      -0.0000001003     0.999982    0.00005367
  439      -16.4134299035      -0.0000001004     0.999982    0.00005371
  440      -16.4134300040      -0.0000001005     0.999982    0.00005375
  441      -16.4134301046      -0.0000001006     0.999982    0.00005379
  442      -16.4134302052      -0.0000001007     0.999982    0.00005384
  443      -16.4134303060      -0.0000001008     0.999982    0.00005388
  444      -16.4134304069      -0.0000001009     0.999982    0.00005392
  445      -16.4134305079      -0.0000001010     0.999982    0.00005397
  446      -16.4134306090      -0.0000001011     0.999982    0.00005401
  447      -16.4134307103      -0.0000001012     0.999982    0.00005405
  448      -16.4134308116      -0.0000001013     0.999982    0.00005410
  449      -16.4134309130      -0.0000001014     0.999982    0.00005414
  450      -16.4134310146      -0.0000001016     0.999982    0.00005419
  451      -16.4134311163      -0.0000001017     0.999982    0.00005423
  452      -16.4134312180      -0.0000001018     0.999982    0.00005428
  453      -16.4134313199      -0.0000001019     0.999982    0.00005432
  454      -16.4134314220      -0.0000001020     0.999982    0.00005437
  455      -16.4134315241      -0.0000001021     0.999982    0.00005441
  456      -16.4134316263      -0.0000001023     0.999982    0.00005446
  457      -16.4134317287      -0.0000001024     0.999982    0.00005450
  458      -16.4134318312      -0.0000001025     0.999983    0.00005455
  459      -16.4134319338      -0.0000001026     0.999983    0.00005459
  460      -16.4134320366      -0.0000001027     0.999983    0.00005464
  461      -16.4134321394      -0.0000001029     0.999983    0.00005469
  462      -16.4134322424      -0.0000001030     0.999983    0.00005473
  463      -16.4134323455      -0.0000001031     0.999983    0.00005478
  464      -16.4134324487      -0.0000001032     0.999983    0.00005483
  465      -16.4134325521      -0.0000001033     0.999983    0.00005488
  466      -16.4134326555      -0.0000001035     0.999983    0.00005492
  467      -16.4134327591      -0.0000001036     0.999983    0.00005497
  468      -16.4134328629      -0.0000001037     0.999983    0.00005502
  469      -16.4134329667      -0.0000001039     0.999983    0.00005506
  470      -16.4134330707      -0.0000001040     0.999983    0.00005511
  471      -16.4134331748      -0.0000001041     0.999983    0.00005516
  472      -16.4134332790      -0.0000001042     0.999983    0.00005521
  473      -16.4134333834      -0.0000001044     0.999983    0.00005526
  474      -16.4134334879      -0.0000001045     0.999983    0.00005530
  475      -16.4134335925      -0.0000001046     0.999983    0.00005535
  476      -16.4134336973      -0.0000001048     0.999983    0.00005540
  477      -16.4134338022      -0.0000001049     0.999983    0.00005545
  478      -16.4134339072      -0.0000001050     0.999983    0.00005550
  479      -16.4134340123      -0.0000001051     0.999983    0.00005555
  480      -16.4134341176      -0.0000001053     0.999983    0.00005559
  481      -16.4134342230      -0.0000001054     0.999983    0.00005564
  482      -16.4134343286      -0.0000001055     0.999983    0.00005569
  483      -16.4134344342      -0.0000001057     0.999983    0.00005574
  484      -16.4134345400      -0.0000001058     0.999983    0.00005579
  485      -16.4134346460      -0.0000001059     0.999983    0.00005584
  486      -16.4134347521      -0.0000001061     0.999983    0.00005588
  487      -16.4134348583      -0.0000001062     0.999983    0.00005593
  488      -16.4134349646      -0.0000001063     0.999983    0.00005598
  489      -16.4134350711      -0.0000001065     0.999983    0.00005603
  490      -16.4134351777      -0.0000001066     0.999984    0.00005608
  491      -16.4134352844      -0.0000001067     0.999984    0.00005613
  492      -16.4134353913      -0.0000001069     0.999984    0.00005618
  493      -16.4134354983      -0.0000001070     0.999984    0.00005622
  494      -16.4134356054      -0.0000001071     0.999984    0.00005627
  495      -16.4134357127      -0.0000001073     0.999984    0.00005632
  496      -16.4134358201      -0.0000001074     0.999984    0.00005637
  497      -16.4134359276      -0.0000001075     0.999984    0.00005642
  498      -16.4134360353      -0.0000001077     0.999984    0.00005647
  499      -16.4134361431      -0.0000001078     0.999984    0.00005651
  500      -16.4134362510      -0.0000001079     0.999984    0.00005656
  501      -16.4134363591      -0.0000001081     0.999984    0.00005661
  502      -16.4134364673      -0.0000001082     0.999984    0.00005666
  503      -16.4134365756      -0.0000001083     0.999984    0.00005670
  504      -16.4134366840      -0.0000001085     0.999984    0.00005675
  505      -16.4134367926      -0.0000001086     0.999984    0.00005680
  506      -16.4134369013      -0.0000001087     0.999984    0.00005685
  507      -16.4134370102      -0.0000001088     0.999984    0.00005689
  508      -16.4134371192      -0.0000001090     0.999984    0.00005694
  509      -16.4134372283      -0.0000001091     0.999984    0.00005699
  510      -16.4134373375      -0.0000001092     0.999984    0.00005703
  511      -16.4134374469      -0.0000001094     0.999984    0.00005708
  512      -16.4134375563      -0.0000001095     0.999984    0.00005713
  513      -16.4134376660      -0.0000001096     0.999984    0.00005717
  514      -16.4134377757      -0.0000001097     0.999984    0.00005722
  515      -16.4134378856      -0.0000001099     0.999984    0.00005726
  516      -16.4134379956      -0.0000001100     0.999984    0.00005731
  517      -16.4134381057      -0.0000001101     0.999984    0.00005735
  518      -16.4134382159      -0.0000001102     0.999984    0.00005740
  519      -16.4134383263      -0.0000001104     0.999984    0.00005744
  520      -16.4134384367      -0.0000001105     0.999984    0.00005749
  521      -16.4134385473      -0.0000001106     0.999985    0.00005753
  522      -16.4134386581      -0.0000001107     0.999985    0.00005758
  523      -16.4134387689      -0.0000001108     0.999985    0.00005762
  524      -16.4134388799      -0.0000001110     0.999985    0.00005766
  525      -16.4134389909      -0.0000001111     0.999985    0.00005771
  526      -16.4134391021      -0.0000001112     0.999985    0.00005775
  527      -16.4134392134      -0.0000001113     0.999985    0.00005779
  528      -16.4134393249      -0.0000001114     0.999985    0.00005783
  529      -16.4134394364      -0.0000001115     0.999985    0.00005788
  530      -16.4134395480      -0.0000001116     0.999985    0.00005792
  531      -16.4134396598      -0.0000001118     0.999985    0.00005796
  532      -16.4134397716      -0.0000001119     0.999985    0.00005800
  533      -16.4134398836      -0.0000001120     0.999985    0.00005804
  534      -16.4134399957      -0.0000001121     0.999985    0.00005808
  535      -16.4134401079      -0.0000001122     0.999985    0.00005812
  536      -16.4134402202      -0.0000001123     0.999985    0.00005816
  537      -16.4134403326      -0.0000001124     0.999985    0.00005820
  538      -16.4134404451      -0.0000001125     0.999985    0.00005824
  539      -16.4134405577      -0.0000001126     0.999985    0.00005828
  540      -16.4134406703      -0.0000001127     0.999985    0.00005831
  541      -16.4134407831      -0.0000001128     0.999985    0.00005835
  542      -16.4134408960      -0.0000001129     0.999985    0.00005839
  543      -16.4134410090      -0.0000001130     0.999985    0.00005843
  544      -16.4134411221      -0.0000001131     0.999985    0.00005846
  545      -16.4134412352      -0.0000001132     0.999985    0.00005850
  546      -16.4134413485      -0.0000001133     0.999985    0.00005853
  547      -16.4134414618      -0.0000001133     0.999985    0.00005857
  548      -16.4134415753      -0.0000001134     0.999985    0.00005860
  549      -16.4134416888      -0.0000001135     0.999985    0.00005864
  550      -16.4134418024      -0.0000001136     0.999985    0.00005867
  551      -16.4134419160      -0.0000001137     0.999985    0.00005870
  552      -16.4134420298      -0.0000001138     0.999985    0.00005873
  553      -16.4134421436      -0.0000001138     0.999986    0.00005877
  554      -16.4134422575      -0.0000001139     0.999986    0.00005880
  555      -16.4134423715      -0.0000001140     0.999986    0.00005883
  556      -16.4134424855      -0.0000001140     0.999986    0.00005886
  557      -16.4134425997      -0.0000001141     0.999986    0.00005889
  558      -16.4134427138      -0.0000001142     0.999986    0.00005892
  559      -16.4134428281      -0.0000001142     0.999986    0.00005894
  560      -16.4134429424      -0.0000001143     0.999986    0.00005897
  561      -16.4134430568      -0.0000001144     0.999986    0.00005900
  562      -16.4134431712      -0.0000001144     0.999986    0.00005903
  563      -16.4134432857      -0.0000001145     0.999986    0.00005905
  564      -16.4134434002      -0.0000001145     0.999986    0.00005908
  565      -16.4134435148      -0.0000001146     0.999986    0.00005910
  566      -16.4134436295      -0.0000001146     0.999986    0.00005913
  567      -16.4134437441      -0.0000001147     0.999986    0.00005915
  568      -16.4134438589      -0.0000001147     0.999986    0.00005917
  569      -16.4134439736      -0.0000001148     0.999986    0.00005920
  570      -16.4134440885      -0.0000001148     0.999986    0.00005922
  571      -16.4134442033      -0.0000001148     0.999986    0.00005924
  572      -16.4134443182      -0.0000001149     0.999986    0.00005926
  573      -16.4134444331      -0.0000001149     0.999986    0.00005928
  574      -16.4134445480      -0.0000001149     0.999986    0.00005930
  575      -16.4134446630      -0.0000001150     0.999986    0.00005931
  576      -16.4134447780      -0.0000001150     0.999986    0.00005933
  577      -16.4134448930      -0.0000001150     0.999986    0.00005935
  578      -16.4134450081      -0.0000001150     0.999986    0.00005936
  579      -16.4134451231      -0.0000001151     0.999986    0.00005938
  580      -16.4134452382      -0.0000001151     0.999986    0.00005939
  581      -16.4134453533      -0.0000001151     0.999986    0.00005941
  582      -16.4134454683      -0.0000001151     0.999986    0.00005942
  583      -16.4134455834      -0.0000001151     0.999986    0.00005943
  584      -16.4134456985      -0.0000001151     0.999986    0.00005944
  585      -16.4134458136      -0.0000001151     0.999986    0.00005945
  586      -16.4134459287      -0.0000001151     0.999987    0.00005946
  587      -16.4134460438      -0.0000001151     0.999987    0.00005947
  588      -16.4134461588      -0.0000001151     0.999987    0.00005948
  589      -16.4134462739      -0.0000001151     0.999987    0.00005949
  590      -16.4134463889      -0.0000001150     0.999987    0.00005949
  591      -16.4134465039      -0.0000001150     0.999987    0.00005950
  592      -16.4134466189      -0.0000001150     0.999987    0.00005950
  593      -16.4134467339      -0.0000001150     0.999987    0.00005951
  594      -16.4134468488      -0.0000001149     0.999987    0.00005951
  595      -16.4134469637      -0.0000001149     0.999987    0.00005951
  596      -16.4134470786      -0.0000001149     0.999987    0.00005951
  597      -16.4134471934      -0.0000001148     0.999987    0.00005951
  598      -16.4134473082      -0.0000001148     0.999987    0.00005951
  599      -16.4134474230      -0.0000001147     0.999987    0.00005951
  600      -16.4134475377      -0.0000001147     0.999987    0.00005951
  601      -16.4134476523      -0.0000001146     0.999987    0.00005950
  602      -16.4134477669      -0.0000001146     0.999987    0.00005950
  603      -16.4134478814      -0.0000001145     0.999987    0.00005949
  604      -16.4134479959      -0.0000001145     0.999987    0.00005949
  605      -16.4134481103      -0.0000001144     0.999987    0.00005948
  606      -16.4134482246      -0.0000001143     0.999987    0.00005947
  607      -16.4134483389      -0.0000001143     0.999987    0.00005946
  608      -16.4134484531      -0.0000001142     0.999987    0.00005945
  609      -16.4134485672      -0.0000001141     0.999987    0.00005944
  610      -16.4134486812      -0.0000001140     0.999987    0.00005943
  611      -16.4134487952      -0.0000001139     0.999987    0.00005942
  612      -16.4134489090      -0.0000001138     0.999987    0.00005940
  613      -16.4134490227      -0.0000001138     0.999987    0.00005939
  614      -16.4134491364      -0.0000001137     0.999987    0.00005937
  615      -16.4134492500      -0.0000001136     0.999987    0.00005936
  616      -16.4134493634      -0.0000001134     0.999987    0.00005934
  617      -16.4134494767      -0.0000001133     0.999987    0.00005932
  618      -16.4134495900      -0.0000001132     0.999987    0.00005930
  619      -16.4134497031      -0.0000001131     0.999988    0.00005928
  620      -16.4134498161      -0.0000001130     0.999988    0.00005925
  621      -16.4134499289      -0.0000001129     0.999988    0.00005923
  622      -16.4134500417      -0.0000001127     0.999988    0.00005921
  623      -16.4134501543      -0.0000001126     0.999988    0.00005918
  624      -16.4134502667      -0.0000001125     0.999988    0.00005915
  625      -16.4134503791      -0.0000001123     0.999988    0.00005913
  626      -16.4134504913      -0.0000001122     0.999988    0.00005910
  627      -16.4134506033      -0.0000001120     0.999988    0.00005907
  628      -16.4134507152      -0.0000001119     0.999988    0.00005904
  629      -16.4134508269      -0.0000001117     0.999988    0.00005900
  630      -16.4134509385      -0.0000001116     0.999988    0.00005897
  631      -16.4134510499      -0.0000001114     0.999988    0.00005894
  632      -16.4134511612      -0.0000001113     0.999988    0.00005890
  633      -16.4134512723      -0.0000001111     0.999988    0.00005887
  634      -16.4134513832      -0.0000001109     0.999988    0.00005883
  635      -16.4134514939      -0.0000001107     0.999988    0.00005879
  636      -16.4134516045      -0.0000001106     0.999988    0.00005875
  637      -16.4134517148      -0.0000001104     0.999988    0.00005871
  638      -16.4134518250      -0.0000001102     0.999988    0.00005867
  639      -16.4134519350      -0.0000001100     0.999988    0.00005862
  640      -16.4134520448      -0.0000001098     0.999988    0.00005858
  641      -16.4134521544      -0.0000001096     0.999988    0.00005853
  642      -16.4134522637      -0.0000001094     0.999988    0.00005849
  643      -16.4134523729      -0.0000001092     0.999988    0.00005844
  644      -16.4134524819      -0.0000001090     0.999988    0.00005839
  645      -16.4134525906      -0.0000001087     0.999988    0.00005834
  646      -16.4134526991      -0.0000001085     0.999988    0.00005829
  647      -16.4134528074      -0.0000001083     0.999988    0.00005823
  648      -16.4134529155      -0.0000001081     0.999988    0.00005818
  649      -16.4134530234      -0.0000001078     0.999988    0.00005813
  650      -16.4134531310      -0.0000001076     0.999988    0.00005807
  651      -16.4134532383      -0.0000001074     0.999988    0.00005801
  652      -16.4134533454      -0.0000001071     0.999988    0.00005795
  653      -16.4134534523      -0.0000001069     0.999988    0.00005789
  654      -16.4134535589      -0.0000001066     0.999988    0.00005783
  655      -16.4134536653      -0.0000001064     0.999989    0.00005777
  656      -16.4134537714      -0.0000001061     0.999989    0.00005771
  657      -16.4134538773      -0.0000001058     0.999989    0.00005764
  658      -16.4134539828      -0.0000001056     0.999989    0.00005758
  659      -16.4134540881      -0.0000001053     0.999989    0.00005751
  660      -16.4134541932      -0.0000001050     0.999989    0.00005744
  661      -16.4134542979      -0.0000001048     0.999989    0.00005738
  662      -16.4134544024      -0.0000001045     0.999989    0.00005731
  663      -16.4134545066      -0.0000001042     0.999989    0.00005723
  664      -16.4134546105      -0.0000001039     0.999989    0.00005716
  665      -16.4134547141      -0.0000001036     0.999989    0.00005709
  666      -16.4134548174      -0.0000001033     0.999989    0.00005701
  667      -16.4134549204      -0.0000001030     0.999989    0.00005694
  668      -16.4134550231      -0.0000001027     0.999989    0.00005686
  669      -16.4134551255      -0.0000001024     0.999989    0.00005678
  670      -16.4134552276      -0.0000001021     0.999989    0.00005670
  671      -16.4134553294      -0.0000001018     0.999989    0.00005662
  672      -16.4134554309      -0.0000001015     0.999989    0.00005654
  673      -16.4134555320      -0.0000001011     0.999989    0.00005645
  674      -16.4134556328      -0.0000001008     0.999989    0.00005637
  675      -16.4134557333      -0.0000001005     0.999989    0.00005628
  676      -16.4134558335      -0.0000001002     0.999989    0.00005620
  677      -16.4134559333      -0.0000000998     0.999989    0.00005611
  678      -16.4134560328      -0.0000000995     0.999989    0.00005602
  679      -16.4134561319      -0.0000000991     0.999989    0.00005593
  680      -16.4134562307      -0.0000000988     0.999989    0.00005584
  681      -16.4134563291      -0.0000000984     0.999989    0.00005574
  682      -16.4134564272      -0.0000000981     0.999989    0.00005565
  683      -16.4134565250      -0.0000000977     0.999989    0.00005555
  684      -16.4134566223      -0.0000000974     0.999989    0.00005546
  685      -16.4134567194      -0.0000000970     0.999989    0.00005536
  686      -16.4134568160      -0.0000000967     0.999989    0.00005526
  687      -16.4134569123      -0.0000000963     0.999989    0.00005516
  688      -16.4134570082      -0.0000000959     0.999989    0.00005506
  689      -16.4134571037      -0.0000000955     0.999989    0.00005496
  690      -16.4134571989      -0.0000000952     0.999989    0.00005486
  691      -16.4134572937      -0.0000000948     0.999989    0.00005475
  692      -16.4134573881      -0.0000000944     0.999989    0.00005465
  693      -16.4134574821      -0.0000000940     0.999989    0.00005454
  694      -16.4134575757      -0.0000000936     0.999990    0.00005443
  695      -16.4134576690      -0.0000000932     0.999990    0.00005432
  696      -16.4134577618      -0.0000000928     0.999990    0.00005421
  697      -16.4134578543      -0.0000000924     0.999990    0.00005410
  698      -16.4134579463      -0.0000000920     0.999990    0.00005399
  699      -16.4134580380      -0.0000000916     0.999990    0.00005388
  700      -16.4134581292      -0.0000000912     0.999990    0.00005376
  701      -16.4134582200      -0.0000000908     0.999990    0.00005365
  702      -16.4134583105      -0.0000000904     0.999990    0.00005353
  703      -16.4134584005      -0.0000000900     0.999990    0.00005341
  704      -16.4134584901      -0.0000000896     0.999990    0.00005330
  705      -16.4134585793      -0.0000000892     0.999990    0.00005318
  706      -16.4134586680      -0.0000000888     0.999990    0.00005305
  707      -16.4134587564      -0.0000000883     0.999990    0.00005293
  708      -16.4134588443      -0.0000000879     0.999990    0.00005281
  709      -16.4134589318      -0.0000000875     0.999990    0.00005269
  710      -16.4134590188      -0.0000000871     0.999990    0.00005256
  711      -16.4134591055      -0.0000000866     0.999990    0.00005244
  712      -16.4134591917      -0.0000000862     0.999990    0.00005231
  713      -16.4134592774      -0.0000000858     0.999990    0.00005218
  714      -16.4134593627      -0.0000000853     0.999990    0.00005205
  715      -16.4134594476      -0.0000000849     0.999990    0.00005192
  716      -16.4134595321      -0.0000000844     0.999990    0.00005179
  717      -16.4134596161      -0.0000000840     0.999990    0.00005166
  718      -16.4134596997      -0.0000000836     0.999990    0.00005153
  719      -16.4134597828      -0.0000000831     0.999990    0.00005139
  720      -16.4134598654      -0.0000000827     0.999990    0.00005126
  721      -16.4134599477      -0.0000000822     0.999990    0.00005112
  722      -16.4134600294      -0.0000000818     0.999990    0.00005099
  723      -16.4134601108      -0.0000000813     0.999990    0.00005085
  724      -16.4134601916      -0.0000000809     0.999990    0.00005071
  725      -16.4134602720      -0.0000000804     0.999990    0.00005057
  726      -16.4134603520      -0.0000000800     0.999990    0.00005043
  727      -16.4134604315      -0.0000000795     0.999990    0.00005029
  728      -16.4134605105      -0.0000000790     0.999990    0.00005015
  729      -16.4134605891      -0.0000000786     0.999990    0.00005000
  730      -16.4134606672      -0.0000000781     0.999990    0.00004986
  731      -16.4134607449      -0.0000000777     0.999990    0.00004972
  732      -16.4134608221      -0.0000000772     0.999990    0.00004957
  733      -16.4134608988      -0.0000000767     0.999990    0.00004942
  734      -16.4134609751      -0.0000000763     0.999990    0.00004928
  735      -16.4134610509      -0.0000000758     0.999990    0.00004913
  736      -16.4134611262      -0.0000000753     0.999990    0.00004898
  737      -16.4134612010      -0.0000000749     0.999990    0.00004883
  738      -16.4134612754      -0.0000000744     0.999990    0.00004868
  739      -16.4134613494      -0.0000000739     0.999991    0.00004853
  740      -16.4134614228      -0.0000000735     0.999991    0.00004838
  741      -16.4134614958      -0.0000000730     0.999991    0.00004823
  742      -16.4134615683      -0.0000000725     0.999991    0.00004807
  743      -16.4134616403      -0.0000000720     0.999991    0.00004792
  744      -16.4134617119      -0.0000000716     0.999991    0.00004776
  745      -16.4134617830      -0.0000000711     0.999991    0.00004761
  746      -16.4134618536      -0.0000000706     0.999991    0.00004745
  747      -16.4134619238      -0.0000000701     0.999991    0.00004730
  748      -16.4134619934      -0.0000000697     0.999991    0.00004714
  749      -16.4134620626      -0.0000000692     0.999991    0.00004698
  750      -16.4134621313      -0.0000000687     0.999991    0.00004682
  751      -16.4134621996      -0.0000000682     0.999991    0.00004666
  752      -16.4134622674      -0.0000000678     0.999991    0.00004650
  753      -16.4134623347      -0.0000000673     0.999991    0.00004634
  754      -16.4134624015      -0.0000000668     0.999991    0.00004618
  755      -16.4134624678      -0.0000000664     0.999991    0.00004602
  756      -16.4134625337      -0.0000000659     0.999991    0.00004585
  757      -16.4134625991      -0.0000000654     0.999991    0.00004569
  758      -16.4134626640      -0.0000000649     0.999991    0.00004553
  759      -16.4134627285      -0.0000000645     0.999991    0.00004536
  760      -16.4134627925      -0.0000000640     0.999991    0.00004520
  761      -16.4134628560      -0.0000000635     0.999991    0.00004503
  762      -16.4134629190      -0.0000000630     0.999991    0.00004487
  763      -16.4134629816      -0.0000000626     0.999991    0.00004470
  764      -16.4134630437      -0.0000000621     0.999991    0.00004453
  765      -16.4134631053      -0.0000000616     0.999991    0.00004437
  766      -16.4134631665      -0.0000000612     0.999991    0.00004420
  767      -16.4134632272      -0.0000000607     0.999991    0.00004403
  768      -16.4134632874      -0.0000000602     0.999991    0.00004386
  769      -16.4134633471      -0.0000000597     0.999991    0.00004369
  770      -16.4134634064      -0.0000000593     0.999991    0.00004352
  771      -16.4134634652      -0.0000000588     0.999991    0.00004335
  772      -16.4134635236      -0.0000000583     0.999991    0.00004318
  773      -16.4134635814      -0.0000000579     0.999991    0.00004301
  774      -16.4134636389      -0.0000000574     0.999991    0.00004284
  775      -16.4134636958      -0.0000000570     0.999991    0.00004267
  776      -16.4134637523      -0.0000000565     0.999991    0.00004250
  777      -16.4134638083      -0.0000000560     0.999991    0.00004233
  778      -16.4134638639      -0.0000000556     0.999991    0.00004215
  779      -16.4134639190      -0.0000000551     0.999991    0.00004198
  780      -16.4134639737      -0.0000000547     0.999991    0.00004181
  781      -16.4134640279      -0.0000000542     0.999991    0.00004163
  782      -16.4134640816      -0.0000000537     0.999991    0.00004146
  783      -16.4134641349      -0.0000000533     0.999991    0.00004129
  784      -16.4134641878      -0.0000000528     0.999991    0.00004111
  785      -16.4134642402      -0.0000000524     0.999991    0.00004094
  786      -16.4134642921      -0.0000000519     0.999991    0.00004076
  787      -16.4134643436      -0.0000000515     0.999991    0.00004059
  788      -16.4134643946      -0.0000000510     0.999991    0.00004041
  789      -16.4134644452      -0.0000000506     0.999991    0.00004024
  790      -16.4134644954      -0.0000000502     0.999991    0.00004006
  791      -16.4134645451      -0.0000000497     0.999991    0.00003989
  792      -16.4134645944      -0.0000000493     0.999991    0.00003971
  793      -16.4134646432      -0.0000000488     0.999991    0.00003954
  794      -16.4134646916      -0.0000000484     0.999991    0.00003936
  795      -16.4134647396      -0.0000000480     0.999991    0.00003918
  796      -16.4134647871      -0.0000000475     0.999992    0.00003901
  797      -16.4134648342      -0.0000000471     0.999992    0.00003883
  798      -16.4134648809      -0.0000000467     0.999992    0.00003865
  799      -16.4134649271      -0.0000000462     0.999992    0.00003848
  800      -16.4134649729      -0.0000000458     0.999992    0.00003830
  801      -16.4134650183      -0.0000000454     0.999992    0.00003812
  802      -16.4134650633      -0.0000000450     0.999992    0.00003795
  803      -16.4134651078      -0.0000000445     0.999992    0.00003777
  804      -16.4134651520      -0.0000000441     0.999992    0.00003759
  805      -16.4134651957      -0.0000000437     0.999992    0.00003741
  806      -16.4134652390      -0.0000000433     0.999992    0.00003724
  807      -16.4134652819      -0.0000000429     0.999992    0.00003706
  808      -16.4134653243      -0.0000000425     0.999992    0.00003688
  809      -16.4134653664      -0.0000000421     0.999992    0.00003671
  810      -16.4134654081      -0.0000000417     0.999992    0.00003653
  811      -16.4134654493      -0.0000000413     0.999992    0.00003635
  812      -16.4134654902      -0.0000000409     0.999992    0.00003617
  813      -16.4134655306      -0.0000000405     0.999992    0.00003600
  814      -16.4134655707      -0.0000000401     0.999992    0.00003582
  815      -16.4134656103      -0.0000000397     0.999992    0.00003564
  816      -16.4134656496      -0.0000000393     0.999992    0.00003547
  817      -16.4134656885      -0.0000000389     0.999992    0.00003529
  818      -16.4134657270      -0.0000000385     0.999992    0.00003511
  819      -16.4134657651      -0.0000000381     0.999992    0.00003494
  820      -16.4134658028      -0.0000000377     0.999992    0.00003476
  821      -16.4134658401      -0.0000000373     0.999992    0.00003459
  822      -16.4134658771      -0.0000000370     0.999992    0.00003441
  823      -16.4134659136      -0.0000000366     0.999992    0.00003423
  824      -16.4134659498      -0.0000000362     0.999992    0.00003406
  825      -16.4134659857      -0.0000000358     0.999992    0.00003388
  826      -16.4134660211      -0.0000000355     0.999992    0.00003371
  827      -16.4134660562      -0.0000000351     0.999992    0.00003353
  828      -16.4134660909      -0.0000000347     0.999992    0.00003336
  829      -16.4134661253      -0.0000000344     0.999992    0.00003318
  830      -16.4134661593      -0.0000000340     0.999992    0.00003301
  831      -16.4134661929      -0.0000000336     0.999992    0.00003284
  832      -16.4134662262      -0.0000000333     0.999992    0.00003266
  833      -16.4134662591      -0.0000000329     0.999992    0.00003249
  834      -16.4134662917      -0.0000000326     0.999992    0.00003231
  835      -16.4134663239      -0.0000000322     0.999992    0.00003214
  836      -16.4134663558      -0.0000000319     0.999992    0.00003197
  837      -16.4134663874      -0.0000000315     0.999992    0.00003180
  838      -16.4134664186      -0.0000000312     0.999992    0.00003162
  839      -16.4134664494      -0.0000000309     0.999992    0.00003145
  840      -16.4134664799      -0.0000000305     0.999992    0.00003128
  841      -16.4134665101      -0.0000000302     0.999992    0.00003111
  842      -16.4134665400      -0.0000000299     0.999992    0.00003094
  843      -16.4134665695      -0.0000000295     0.999992    0.00003077
  844      -16.4134665987      -0.0000000292     0.999992    0.00003060
  845      -16.4134666276      -0.0000000289     0.999992    0.00003043
  846      -16.4134666561      -0.0000000286     0.999992    0.00003026
  847      -16.4134666844      -0.0000000282     0.999992    0.00003009
  848      -16.4134667123      -0.0000000279     0.999992    0.00002992
  849      -16.4134667399      -0.0000000276     0.999992    0.00002975
  850      -16.4134667672      -0.0000000273     0.999992    0.00002958
  851      -16.4134667942      -0.0000000270     0.999992    0.00002941
  852      -16.4134668208      -0.0000000267     0.999992    0.00002925
  853      -16.4134668472      -0.0000000264     0.999992    0.00002908
  854      -16.4134668733      -0.0000000261     0.999992    0.00002891
  855      -16.4134668991      -0.0000000258     0.999992    0.00002875
  856      -16.4134669245      -0.0000000255     0.999992    0.00002858
  857      -16.4134669497      -0.0000000252     0.999992    0.00002842
  858      -16.4134669746      -0.0000000249     0.999992    0.00002825
  859      -16.4134669992      -0.0000000246     0.999992    0.00002809
  860      -16.4134670235      -0.0000000243     0.999992    0.00002792
  861      -16.4134670475      -0.0000000240     0.999992    0.00002776
  862      -16.4134670713      -0.0000000237     0.999992    0.00002759
  863      -16.4134670947      -0.0000000235     0.999992    0.00002743
  864      -16.4134671179      -0.0000000232     0.999992    0.00002727
  865      -16.4134671408      -0.0000000229     0.999992    0.00002711
  866      -16.4134671635      -0.0000000226     0.999992    0.00002695
  867      -16.4134671859      -0.0000000224     0.999992    0.00002679
  868      -16.4134672080      -0.0000000221     0.999992    0.00002663
  869      -16.4134672298      -0.0000000218     0.999992    0.00002647
  870      -16.4134672514      -0.0000000216     0.999992    0.00002631
  871      -16.4134672727      -0.0000000213     0.999992    0.00002615
  872      -16.4134672938      -0.0000000211     0.999992    0.00002599
  873      -16.4134673146      -0.0000000208     0.999992    0.00002583
  874      -16.4134673351      -0.0000000206     0.999992    0.00002567
  875      -16.4134673554      -0.0000000203     0.999992    0.00002552
  876      -16.4134673755      -0.0000000201     0.999992    0.00002536
  877      -16.4134673953      -0.0000000198     0.999992    0.00002521
  878      -16.4134674149      -0.0000000196     0.999992    0.00002505
  879      -16.4134674342      -0.0000000193     0.999992    0.00002490
  880      -16.4134674533      -0.0000000191     0.999992    0.00002474
  881      -16.4134674721      -0.0000000189     0.999992    0.00002459
  882      -16.4134674907      -0.0000000186     0.999992    0.00002443
  883      -16.4134675091      -0.0000000184     0.999993    0.00002428
  884      -16.4134675273      -0.0000000182     0.999993    0.00002413
  885      -16.4134675452      -0.0000000179     0.999993    0.00002398
  886      -16.4134675629      -0.0000000177     0.999993    0.00002383
  887      -16.4134675804      -0.0000000175     0.999993    0.00002368
  888      -16.4134675977      -0.0000000173     0.999993    0.00002353
  889      -16.4134676147      -0.0000000170     0.999993    0.00002338
  890      -16.4134676315      -0.0000000168     0.999993    0.00002323
  891      -16.4134676481      -0.0000000166     0.999993    0.00002308
  892      -16.4134676645      -0.0000000164     0.999993    0.00002294
  893      -16.4134676807      -0.0000000162     0.999993    0.00002279
  894      -16.4134676967      -0.0000000160     0.999993    0.00002264
  895      -16.4134677125      -0.0000000158     0.999993    0.00002250
  896      -16.4134677281      -0.0000000156     0.999993    0.00002235
  897      -16.4134677435      -0.0000000154     0.999993    0.00002221
  898      -16.4134677586      -0.0000000152     0.999993    0.00002206
  899      -16.4134677736      -0.0000000150     0.999993    0.00002192
  900      -16.4134677884      -0.0000000148     0.999993    0.00002178
  901      -16.4134678030      -0.0000000146     0.999993    0.00002164
  902      -16.4134678174      -0.0000000144     0.999993    0.00002149
  903      -16.4134678316      -0.0000000142     0.999993    0.00002135
  904      -16.4134678457      -0.0000000140     0.999993    0.00002121
  905      -16.4134678595      -0.0000000138     0.999993    0.00002107
  906      -16.4134678732      -0.0000000137     0.999993    0.00002094
  907      -16.4134678867      -0.0000000135     0.999993    0.00002080
  908      -16.4134679000      -0.0000000133     0.999993    0.00002066
  909      -16.4134679131      -0.0000000131     0.999993    0.00002052
  910      -16.4134679261      -0.0000000130     0.999993    0.00002039
  911      -16.4134679389      -0.0000000128     0.999993    0.00002025
  912      -16.4134679515      -0.0000000126     0.999993    0.00002012
  913      -16.4134679639      -0.0000000124     0.999993    0.00001998
  914      -16.4134679762      -0.0000000123     0.999993    0.00001985
  915      -16.4134679883      -0.0000000121     0.999993    0.00001971
  916      -16.4134680003      -0.0000000120     0.999993    0.00001958
  917      -16.4134680121      -0.0000000118     0.999993    0.00001945
  918      -16.4134680237      -0.0000000116     0.999993    0.00001932
  919      -16.4134680352      -0.0000000115     0.999993    0.00001919
  920      -16.4134680465      -0.0000000113     0.999993    0.00001906
  921      -16.4134680577      -0.0000000112     0.999993    0.00001893
  922      -16.4134680687      -0.0000000110     0.999993    0.00001880
  923      -16.4134680796      -0.0000000109     0.999993    0.00001867
  924      -16.4134680903      -0.0000000107     0.999993    0.00001854
  925      -16.4134681009      -0.0000000106     0.999993    0.00001842
  926      -16.4134681113      -0.0000000104     0.999993    0.00001829
  927      -16.4134681216      -0.0000000103     0.999993    0.00001816
  928      -16.4134681317      -0.0000000101     0.999993    0.00001804
  929      -16.4134681417      -0.0000000100     0.999993    0.00001791
  930      -16.4134681516      -0.0000000099     0.999993    0.00001779
  931      -16.4134681613      -0.0000000097     0.999993    0.00001767
  932      -16.4134681709      -0.0000000096     0.999993    0.00001754
  933      -16.4134681804      -0.0000000095     0.999993    0.00001742
  934      -16.4134681897      -0.0000000093     0.999993    0.00001730
  935      -16.4134681990      -0.0000000092     0.999993    0.00001718
  936      -16.4134682080      -0.0000000091     0.999993    0.00001706
  937      -16.4134682170      -0.0000000090     0.999993    0.00001694
  938      -16.4134682258      -0.0000000088     0.999993    0.00001682
  939      -16.4134682345      -0.0000000087     0.999993    0.00001670
  940      -16.4134682431      -0.0000000086     0.999993    0.00001659
  941      -16.4134682515      -0.0000000085     0.999993    0.00001647
  942      -16.4134682599      -0.0000000083     0.999993    0.00001635
  943      -16.4134682681      -0.0000000082     0.999993    0.00001624
  944      -16.4134682762      -0.0000000081     0.999993    0.00001612
  945      -16.4134682842      -0.0000000080     0.999993    0.00001601
  946      -16.4134682921      -0.0000000079     0.999993    0.00001590
  947      -16.4134682999      -0.0000000078     0.999993    0.00001578
  948      -16.4134683075      -0.0000000077     0.999993    0.00001567
  949      -16.4134683151      -0.0000000075     0.999993    0.00001556
  950      -16.4134683225      -0.0000000074     0.999993    0.00001545
  951      -16.4134683299      -0.0000000073     0.999993    0.00001534
  952      -16.4134683371      -0.0000000072     0.999993    0.00001523
  953      -16.4134683442      -0.0000000071     0.999993    0.00001512
  954      -16.4134683512      -0.0000000070     0.999993    0.00001501
  955      -16.4134683582      -0.0000000069     0.999993    0.00001490
  956      -16.4134683650      -0.0000000068     0.999993    0.00001479
  957      -16.4134683717      -0.0000000067     0.999993    0.00001469
  958      -16.4134683783      -0.0000000066     0.999993    0.00001458
  959      -16.4134683849      -0.0000000065     0.999993    0.00001447
  960      -16.4134683913      -0.0000000064     0.999993    0.00001437
  961      -16.4134683977      -0.0000000063     0.999993    0.00001427
  962      -16.4134684039      -0.0000000063     0.999993    0.00001416
  963      -16.4134684101      -0.0000000062     0.999993    0.00001406
  964      -16.4134684162      -0.0000000061     0.999993    0.00001396
  965      -16.4134684222      -0.0000000060     0.999993    0.00001385
  966      -16.4134684281      -0.0000000059     0.999993    0.00001375
  967      -16.4134684339      -0.0000000058     0.999993    0.00001365
  968      -16.4134684396      -0.0000000057     0.999993    0.00001355
  969      -16.4134684453      -0.0000000056     0.999993    0.00001345
  970      -16.4134684508      -0.0000000056     0.999993    0.00001335
  971      -16.4134684563      -0.0000000055     0.999993    0.00001326
  972      -16.4134684617      -0.0000000054     0.999993    0.00001316
  973      -16.4134684670      -0.0000000053     0.999993    0.00001306
  974      -16.4134684723      -0.0000000052     0.999993    0.00001296
  975      -16.4134684774      -0.0000000052     0.999993    0.00001287
  976      -16.4134684825      -0.0000000051     0.999993    0.00001277
  977      -16.4134684875      -0.0000000050     0.999993    0.00001268
  978      -16.4134684925      -0.0000000049     0.999993    0.00001259
  979      -16.4134684973      -0.0000000049     0.999993    0.00001249
  980      -16.4134685021      -0.0000000048     0.999993    0.00001240
  981      -16.4134685069      -0.0000000047     0.999993    0.00001231
  982      -16.4134685115      -0.0000000047     0.999993    0.00001221
  983      -16.4134685161      -0.0000000046     0.999993    0.00001212
  984      -16.4134685206      -0.0000000045     0.999993    0.00001203
  985      -16.4134685251      -0.0000000045     0.999993    0.00001194
  986      -16.4134685295      -0.0000000044     0.999993    0.00001185
  987      -16.4134685338      -0.0000000043     0.999993    0.00001176
  988      -16.4134685380      -0.0000000043     0.999993    0.00001168
  989      -16.4134685422      -0.0000000042     0.999993    0.00001159
  990      -16.4134685464      -0.0000000041     0.999993    0.00001150
  991      -16.4134685504      -0.0000000041     0.999993    0.00001141
  992      -16.4134685544      -0.0000000040     0.999993    0.00001133
  993      -16.4134685584      -0.0000000039     0.999993    0.00001124
  994      -16.4134685623      -0.0000000039     0.999993    0.00001116
  995      -16.4134685661      -0.0000000038     0.999993    0.00001107
  996      -16.4134685698      -0.0000000038     0.999993    0.00001099
  997      -16.4134685736      -0.0000000037     0.999993    0.00001091
  998      -16.4134685772      -0.0000000037     0.999993    0.00001082
  999      -16.4134685808      -0.0000000036     0.999993    0.00001074
 1000      -16.4134685844      -0.0000000035     0.999993    0.00001066

Total Energy:                      -16.4134685844 H         -446.6332 eV
Extrapolated to 0:                 -16.3847361256 H         -445.8514 eV

----------------------------------------------------------------------------------
 Solving CP-REKS equation for  1 state vector...
----------------------------------------------------------------------------------
  CG solver: Constructing Y initial guess
  CG solver: Iteration    1    eps =    0.017898897938
  CG solver: Iteration    2    eps =    0.005287942917
  CG solver: Iteration    3    eps =    0.001384779800
  CG solver: Iteration    4    eps =    0.002592799227
  CG solver: Iteration    5    eps =    0.015183262357
  CG solver: Iteration    6    eps =    0.005198650989
  CG solver: Iteration    7    eps =    0.002102783379
  CG solver: Iteration    8    eps =    0.001353592876
  CG solver: Iteration    9    eps =    0.000193568553
  CG solver: Iteration   10    eps =    0.000038036453
  CG solver: Iteration   11    eps =    0.000012223113
  CG solver: Iteration   12    eps =    0.000000718999
  CG solver: Iteration   13    eps =    0.000000100838
  CG solver: Iteration   14    eps =    0.000000028026
  CG solver: Iteration   15    eps =    0.000000001268
  Convergence reached in CG solver after   15 iterations
  CG solver: Calculating converged R, Z, Q2 matrix
----------------------------------------------------------------------------------

----------------------------------------------------------------------------------
 Solving CP-REKS equation for SI between  1 and  2 state vectors...
----------------------------------------------------------------------------------
  CG solver: Constructing Y initial guess
  CG solver: Iteration    1    eps =    0.033761310820
  CG solver: Iteration    2    eps =    0.002046001050
  CG solver: Iteration    3    eps =    0.001733049239
  CG solver: Iteration    4    eps =    0.009533524951
  CG solver: Iteration    5    eps =    0.007216223483
  CG solver: Iteration    6    eps =    0.004790425598
  CG solver: Iteration    7    eps =    0.001559613815
  CG solver: Iteration    8    eps =    0.000082802981
  CG solver: Iteration    9    eps =    0.000004547502
  CG solver: Iteration   10    eps =    0.000000840812
  CG solver: Iteration   11    eps =    0.000000264847
  CG solver: Iteration   12    eps =    0.000000026371
  CG solver: Iteration   13    eps =    0.000000001521
  Convergence reached in CG solver after   13 iterations
  CG solver: Calculating converged R, Z, Q2 matrix
----------------------------------------------------------------------------------

--------------------------------------------------
 Gradient Information
--------------------------------------------------
           1 st state (SSR)
     0.00000000     0.00000000     0.00000000
     0.00000000     0.00000000     0.00000000
     0.00000000     0.00000000     0.00000000
     0.00000000     0.00000000     0.00000000
     0.00000000     0.00000000     0.00000000
     0.00000000     0.00000000     0.00000000
     0.00000000     0.00000000     0.00000000
     0.00000000     0.00000000     0.00000000
     0.00000000     0.00000000     0.00000000
     0.00000000     0.00000000     0.00000000
     0.00000000     0.00000000     0.00000000
     0.00000000     0.00000000     0.00000000
     0.00000000     0.00000000     0.00000000
     0.00000000     0.00000000     0.00000000

           2 st state (SSR)
     0.00000000     0.00000000     0.00000000
     0.00000000     0.00000000     0.00000000
     0.00000000     0.00000000     0.00000000
     0.00000000     0.00000000     0.00000000
     0.00000000     0.00000000     0.00000000
     0.00000000     0.00000000     0.00000000
     0.00000000     0.00000000     0.00000000
     0.00000000     0.00000000     0.00000000
     0.00000000     0.00000000     0.00000000
     0.00000000     0.00000000     0.00000000
     0.00000000     0.00000000     0.00000000
     0.00000000     0.00000000     0.00000000
     0.00000000     0.00000000     0.00000000
     0.00000000     0.00000000     0.00000000
--------------------------------------------------
 Coupling Information
--------------------------------------------------
 between  1 and  2 states
--------------------------------------------------
 g vector - difference gradient
    -0.25521556    -0.10528476     0.02251930
     0.42353957     0.15975278    -0.02059326
     0.05309454    -0.00603047    -0.07761534
    -0.03359790     0.06466239     0.02853092
    -0.01998500     0.01737938     0.05400362
    -0.60311599    -0.22013264    -0.05301700
     0.35806689     0.05309178    -0.16730389
    -0.00312378    -0.12346362     0.04624023
     0.05676258     0.00593349     0.02875054
    -0.10764875    -0.03610341     0.27422141
     0.03640768     0.05913913    -0.08712679
     0.13638739     0.06392824    -0.03766045
     0.05094930    -0.08372184     0.01112147
    -0.09252098     0.15084955    -0.02207074

 h vector - derivative coupling
    -0.17877640    -0.12163156    -0.00632963
     0.23089273     0.19750658    -0.08030494
     0.06697459    -0.05325475     0.03766010
    -0.03592613     0.05027624    -0.01423040
    -0.01372456    -0.06928388     0.07088863
    -0.30279927    -0.01369438    -0.00705564
     0.16795326     0.02465139     0.00082914
     0.00958006     0.02655123    -0.00234183
    -0.00823975    -0.05020886     0.01689145
     0.00285952    -0.03737922    -0.03063896
     0.04781281     0.00736691     0.02699020
     0.01523387     0.03719053    -0.01643057
     0.00933823    -0.00999345     0.00385574
    -0.01117898     0.01190322     0.00021671

 G vector - GDV
     0.00000000     0.00000000     0.00000000
     0.00000000     0.00000000     0.00000000
     0.00000000     0.00000000     0.00000000
     0.00000000     0.00000000     0.00000000
     0.00000000     0.00000000     0.00000000
     0.00000000     0.00000000     0.00000000
     0.00000000     0.00000000     0.00000000
     0.00000000     0.00000000     0.00000000
     0.00000000     0.00000000     0.00000000
     0.00000000     0.00000000     0.00000000
     0.00000000     0.00000000     0.00000000
     0.00000000     0.00000000     0.00000000
     0.00000000     0.00000000     0.00000000
     0.00000000     0.00000000     0.00000000

 H vector - DCV - non-adiabatic coupling
     0.00000000     0.00000000     0.00000000
     0.00000000     0.00000000     0.00000000
     0.00000000     0.00000000     0.00000000
     0.00000000     0.00000000     0.00000000
     0.00000000     0.00000000     0.00000000
     0.00000000     0.00000000     0.00000000
     0.00000000     0.00000000     0.00000000
     0.00000000     0.00000000     0.00000000
     0.00000000     0.00000000     0.00000000
     0.00000000     0.00000000     0.00000000
     0.00000000     0.00000000     0.00000000
     0.00000000     0.00000000     0.00000000
     0.00000000     0.00000000     0.00000000
     0.00000000     0.00000000     0.00000000
--------------------------------------------------

WARNING!
-> SCC is NOT converged, maximal SCC iterations exceeded

--------------------------------------------------------------------------------
DFTB+ running times                          cpu [s]             wall clock [s]
--------------------------------------------------------------------------------
SCC                                    +     1.41  ( 79.1%)      1.41  ( 79.0%)
      Sparse to dense                        0.07  (  4.1%)      0.07  (  4.1%)
      Dense to sparse                        0.26  ( 14.4%)      0.26  ( 14.5%)
      Range separated Hamiltonian            0.13  (  7.0%)      0.13  (  7.3%)
  Density matrix creation                    0.16  (  8.7%)      0.15  (  8.5%)
  Force calculation                          0.37  ( 20.8%)      0.37  ( 20.8%)
--------------------------------------------------------------------------------
Missing                                +     0.37  ( 20.9%)      0.38  ( 21.0%)
Total                                  =     1.78  (100.0%)      1.79  (100.0%)
--------------------------------------------------------------------------------
