|===============================================================================
|
|  DFTB+ release 20.1
|
|  Copyright (C) 2006 - 2020  DFTB+ developers group
|
|===============================================================================
|
|  When publishing results obtained with DFTB+, please cite the following
|  reference:
|
|  * DFTB+, a software package for efficient approximate density functional
|    theory based atomistic simulations, J. Chem. Phys. 152, 124101 (2020).
|    [doi: 10.1063/1.5143190]
|
|  You should also cite additional publications crediting the parametrization
|  data you use. Please consult the documentation of the SK-files for the
|  references.
|
|===============================================================================

Reading input file 'dftb_in.hsd'
Parser version: 8

--------------------------------------------------------------------------------
Reading SK-files:
Done.


Processed input in HSD format written to 'dftb_pin.hsd'

Starting initialization...
--------------------------------------------------------------------------------
OpenMP threads:              1
Chosen random seed:          451681698
Mode:                        Static calculation
Self consistent charges:     Yes
SCC-tolerance:                 0.100000E-05
Max. scc iterations:                   1000
Shell resolved Hubbard:      No
Spin polarisation:           No
Nr. of up electrons:             6.000000
Nr. of down electrons:           6.000000
Periodic boundaries:         No
Electronic solver:           Relatively robust
Maximal SCC-cycles:                    1000
Initial charges:             Set automatically (system chrg:   0.100E+01)
Included shells:             C:  s, p
                             N:  s, p
                             H:  s
Spin coupling constants:     C   1(s)-1(s):  -0.455900E-01
                             C   1(s)-2(p):  -0.293000E-01
                             C   2(p)-1(s):  -0.293000E-01
                             C   2(p)-2(p):  -0.275500E-01
                             N   1(s)-1(s):  -0.468700E-01
                             N   1(s)-2(p):  -0.317000E-01
                             N   2(p)-1(s):  -0.317000E-01
                             N   2(p)-2(p):  -0.307200E-01
                             H   1(s)-1(s):  -0.792500E-01
Range separated hybrid:      Yes
  Screening parameter omega:   0.300000E+00
  Range separated algorithm:   MatrixBased
Extra options:
                             Mulliken analysis
                             Force calculation
Force type                   original
                             Eigenvector printing


REKS Calcuation:             Yes
SSR(2,2) Calcuation:         Yes
Energy Functional:           (PPS+OSS)/2
Number of Core Orbitals:                  5
Number of Active Orbitals:                2
Number of Basis:                         12
Number of States:                         2
State-Averaging Weight:          0.500000
                                 0.500000
State of Interest:                        1
Initial Guess:               Diagonalize H0 matrix
Newton-Raphson for FON opt:  Yes
NR max. Iterations:                      50
Level Shifting:              Yes
Shift Value:                     0.300000
W Scale Factor:              C  =    3.200000
                             N  =    3.200000
                             H  =    3.200000
Transition Dipole:           No
Gradient of Microstate:      No
CP-REKS Solver:              Preconditioned Conjugate-Gradient
CG max. Iterations:                     100
CG Tolerance:                  0.100000E-07
Memory for A and Hxc:        Direct Updating Without Saving
Non-Adiabatic Coupling:      Yes

--------------------------------------------------------------------------------

***  Geometry step: 0

  iSCC       reks energy        Diff energy         x_a       SCC error   
    1       -6.1843020299       0.0000000000     0.937474    1.17417266
    2       -6.1908164876      -0.0065144577     0.953863    0.06368533
    3       -6.1930368465      -0.0022203588     0.969242    0.02920252
    4       -6.1942572696      -0.0012204232     0.980960    0.01806992
    5       -6.1950508257      -0.0007935561     0.988552    0.01385211
    6       -6.1956152406      -0.0005644148     0.992954    0.01134179
    7       -6.1960311859      -0.0004159454     0.995449    0.01004821
    8       -6.1963390616      -0.0003078757     0.996906    0.00864318
    9       -6.1965644630      -0.0002254014     0.997792    0.00729417
   10       -6.1967266398      -0.0001621768     0.998351    0.00607244
   11       -6.1968411365      -0.0001144967     0.998717    0.00500197
   12       -6.1969205244      -0.0000793878     0.998962    0.00408541
   13       -6.1969746897      -0.0000541653     0.999131    0.00331451
   14       -6.1970111390      -0.0000364493     0.999250    0.00267527
   15       -6.1970353848      -0.0000242458     0.999336    0.00215100
   16       -6.1970513600      -0.0000159752     0.999399    0.00172462
   17       -6.1970618045      -0.0000104444     0.999445    0.00137997
   18       -6.1970685902      -0.0000067857     0.999480    0.00110262
   19       -6.1970729766      -0.0000043864     0.999507    0.00088012
   20       -6.1970758006      -0.0000028240     0.999527    0.00070202
   21       -6.1970776128      -0.0000018122     0.999543    0.00055968
   22       -6.1970787728      -0.0000011599     0.999555    0.00044604
   23       -6.1970795137      -0.0000007409     0.999565    0.00035538
   24       -6.1970799861      -0.0000004725     0.999572    0.00028309
   25       -6.1970802870      -0.0000003009     0.999578    0.00022547
   26       -6.1970804784      -0.0000001914     0.999582    0.00017956
   27       -6.1970806001      -0.0000001217     0.999586    0.00014299
   28       -6.1970806774      -0.0000000773     0.999589    0.00011386
   29       -6.1970807265      -0.0000000491     0.999591    0.00009065
   30       -6.1970807576      -0.0000000311     0.999593    0.00007218
   31       -6.1970807774      -0.0000000198     0.999594    0.00005746
   32       -6.1970807899      -0.0000000125     0.999596    0.00004575
   33       -6.1970807979      -0.0000000079     0.999597    0.00003642
   34       -6.1970808029      -0.0000000050     0.999597    0.00002899
   35       -6.1970808061      -0.0000000032     0.999598    0.00002308
   36       -6.1970808081      -0.0000000020     0.999598    0.00001838
   37       -6.1970808094      -0.0000000013     0.999599    0.00001463
   38       -6.1970808102      -0.0000000008     0.999599    0.00001165
   39       -6.1970808108      -0.0000000005     0.999599    0.00000927
   40       -6.1970808111      -0.0000000003     0.999599    0.00000738
   41       -6.1970808113      -0.0000000002     0.999599    0.00000587
   42       -6.1970808114      -0.0000000001     0.999600    0.00000468
   43       -6.1970808115      -0.0000000001     0.999600    0.00000372
   44       -6.1970808116      -0.0000000001     0.999600    0.00000296
   45       -6.1970808116      -0.0000000000     0.999600    0.00000236
   46       -6.1970808116      -0.0000000000     0.999600    0.00000188
   47       -6.1970808116      -0.0000000000     0.999600    0.00000150
   48       -6.1970808116      -0.0000000000     0.999600    0.00000119
   49       -6.1970808116      -0.0000000000     0.999600    0.00000095
  
--------------------------------------------------
 Final SA-REKS(2,2) energy:      -6.19708081
  
 State     Energy      FON(1)    FON(2)   Spin
  PPS   -6.23546533   1.999200  0.000800  0.00
  OSS   -6.15869630   1.000000  1.000000  0.00
 Trip   -6.20729281   1.000000  1.000000  1.00
--------------------------------------------------

 Lagrangian Wab:  -0.03302642 -0.03302680

--------------------------------------------------
 SSR: 2SI-2SA-REKS(2,2) Hamiltonian matrix
               PPS           OSS
   PPS    -6.23546533   -0.04576284
   OSS    -0.04576284   -6.15869630
--------------------------------------------------

----------------------------------------------------------------
 SSR: 2SI-2SA-REKS(2,2) states
                    E_n       C_{PPS}    C_{OSS}
 SSR state  1   -6.25681027  -0.906267  -0.422706
 SSR state  2   -6.13735135   0.422706  -0.906267
----------------------------------------------------------------

 unrelaxed SSR FONs for S0:  1.820663  0.179337

Total Energy:                       -6.2568102715 H         -170.2565 eV
Extrapolated to 0:                  -6.2568102715 H         -170.2565 eV

----------------------------------------------------------------------------------
 Solving CP-REKS equation for  1 state vector...
----------------------------------------------------------------------------------
  CG solver: Constructing Y initial guess
  CG solver: Iteration    1    eps =    0.006736469882
  CG solver: Iteration    2    eps =    0.000827450396
  CG solver: Iteration    3    eps =    0.000020755266
  CG solver: Iteration    4    eps =    0.000002367282
  CG solver: Iteration    5    eps =    0.000000139178
  CG solver: Iteration    6    eps =    0.000000007780
  Convergence reached in CG solver after    6 iterations
  CG solver: Calculating converged R, Z, Q2 matrix
----------------------------------------------------------------------------------

----------------------------------------------------------------------------------
 Solving CP-REKS equation for SI between  1 and  2 state vectors...
----------------------------------------------------------------------------------
  CG solver: Constructing Y initial guess
  CG solver: Iteration    1    eps =    0.015709210016
  CG solver: Iteration    2    eps =    0.003371826803
  CG solver: Iteration    3    eps =    0.000071317145
  CG solver: Iteration    4    eps =    0.000012493877
  CG solver: Iteration    5    eps =    0.000001089434
  CG solver: Iteration    6    eps =    0.000000133488
  CG solver: Iteration    7    eps =    0.000000004559
  Convergence reached in CG solver after    7 iterations
  CG solver: Calculating converged R, Z, Q2 matrix
----------------------------------------------------------------------------------

--------------------------------------------------
 Gradient Information
--------------------------------------------------
           1 st state (SSR)
    -0.05026258     0.10284117     0.10898127
    -0.02274959     0.06524092    -0.11865734
    -0.00089118    -0.01163445    -0.03037044
     0.03723003    -0.04217680     0.00334589
    -0.00461177    -0.04864053     0.05596382
     0.04128509    -0.06563030    -0.01926320

           2 st state (SSR)
    -0.03991699     0.06536386     0.16252867
    -0.02062484     0.05260479    -0.17206675
    -0.03962093    -0.04465447     0.00261611
    -0.00543310    -0.05039368     0.00327782
     0.05407021    -0.02004262     0.04289918
     0.05152567    -0.00287788    -0.03925504
--------------------------------------------------
 Coupling Information
--------------------------------------------------
 between  1 and  2 states
--------------------------------------------------
 g vector - difference gradient
     0.00243845     0.00175198    -0.06210449
    -0.00373678     0.02034560     0.04661436
     0.01810488     0.03413594    -0.01784923
     0.02752049     0.01101978    -0.00321499
    -0.03534429    -0.03201670     0.02019886
    -0.00898275    -0.03523660     0.01635548

 h vector - derivative coupling
    -0.00879681     0.02298810     0.01714649
     0.00174770    -0.00881898    -0.00424388
     0.01008912    -0.00708342    -0.00655555
     0.00475849    -0.00388074     0.00274106
    -0.00864999     0.00819172    -0.00841625
     0.00085148    -0.01139668    -0.00067187

 G vector - GDV
    -0.00517279     0.01873865    -0.02677370
    -0.00106237     0.00631807     0.02670471
     0.01936488     0.01651001    -0.01649328
     0.02133156     0.00410844     0.00003403
    -0.02934099    -0.01429896     0.00653232
    -0.00512029    -0.03137621     0.00999592

 H vector - DCV - non-adiabatic coupling
    -0.06296259     0.11242982     0.49055798
     0.03336837    -0.17793216    -0.32179891
    -0.06184321    -0.25704213     0.07921269
    -0.15090828    -0.09155385     0.03536564
     0.18015281     0.24941224    -0.17482457
     0.06219290     0.16468609    -0.10851283
--------------------------------------------------


--------------------------------------------------------------------------------
DFTB+ running times                          cpu [s]             wall clock [s]
--------------------------------------------------------------------------------
SCC                                    +     0.02  ( 65.6%)      0.02  ( 60.5%)
Post-SCC processing                    +     0.01  ( 30.5%)      0.01  ( 28.9%)
  Force calculation                          0.01  ( 29.9%)      0.01  ( 26.3%)
--------------------------------------------------------------------------------
Missing                                +     0.00  (  3.9%)      0.00  ( 10.5%)
Total                                  =     0.03  (100.0%)      0.04  (100.0%)
--------------------------------------------------------------------------------
