    14
  Step:   600            Position(A)                                  Velocity(au)
C        -5.46469771     0.40033078     0.87014312    -0.00007206     0.00043617    -0.00027547
C        -4.67349520    -0.26993158    -0.00536758     0.00081248     0.00024614     0.00025739
H        -5.10041851     1.38713063     1.20718276    -0.00137176     0.00156272    -0.00246867
H        -6.45884436     0.00164249     1.10855465     0.00046307     0.00117080     0.00161120
H        -5.17790279    -1.13319265    -0.51921309     0.00115640     0.00057585    -0.00007022
C        -3.61340479     0.11980308    -0.86560294     0.00005595    -0.00069390     0.00074388
C        -2.27024086     0.50234631    -1.04319449    -0.00021463     0.00092010    -0.00106273
H        -4.11076635    -0.10672922    -1.87744630     0.00039174    -0.00239612     0.00215077
H        -2.00288656     0.28634844    -2.01455257     0.00010616     0.00049368    -0.00046780
C        -1.40708579     0.74032130     0.07334011    -0.00006368     0.00015472     0.00038150
H        -0.37336886     0.41339669     0.07886890     0.00004943     0.00115936     0.00049947
N        -1.80003226     1.50199809     1.10402684    -0.00048577    -0.00087931    -0.00007828
H        -1.19705078     1.49031093     1.96818436    -0.00028219     0.00049773    -0.00102996
H        -2.85417389     1.64012748     1.28758546     0.00006433    -0.00351444     0.00033215
