|===============================================================================
|
|  DFTB+ release 20.1
|
|  Copyright (C) 2006 - 2020  DFTB+ developers group
|
|===============================================================================
|
|  When publishing results obtained with DFTB+, please cite the following
|  reference:
|
|  * DFTB+, a software package for efficient approximate density functional
|    theory based atomistic simulations, J. Chem. Phys. 152, 124101 (2020).
|    [doi: 10.1063/1.5143190]
|
|  You should also cite additional publications crediting the parametrization
|  data you use. Please consult the documentation of the SK-files for the
|  references.
|
|===============================================================================

Reading input file 'dftb_in.hsd'
Parser version: 8

--------------------------------------------------------------------------------
Reading SK-files:
Done.


Processed input in HSD format written to 'dftb_pin.hsd'

Starting initialization...
--------------------------------------------------------------------------------
OpenMP threads:              1
Chosen random seed:          508638511
Mode:                        Static calculation
Self consistent charges:     Yes
SCC-tolerance:                 0.100000E-05
Max. scc iterations:                   1000
Shell resolved Hubbard:      No
Spin polarisation:           No
Nr. of up electrons:             6.000000
Nr. of down electrons:           6.000000
Periodic boundaries:         No
Electronic solver:           Relatively robust
Maximal SCC-cycles:                    1000
Initial charges:             Set automatically (system chrg:   0.100E+01)
Included shells:             C:  s, p
                             N:  s, p
                             H:  s
Spin coupling constants:     C   1(s)-1(s):  -0.455900E-01
                             C   1(s)-2(p):  -0.293000E-01
                             C   2(p)-1(s):  -0.293000E-01
                             C   2(p)-2(p):  -0.275500E-01
                             N   1(s)-1(s):  -0.468700E-01
                             N   1(s)-2(p):  -0.317000E-01
                             N   2(p)-1(s):  -0.317000E-01
                             N   2(p)-2(p):  -0.307200E-01
                             H   1(s)-1(s):  -0.792500E-01
Range separated hybrid:      Yes
  Screening parameter omega:   0.300000E+00
  Range separated algorithm:   MatrixBased
Extra options:
                             Mulliken analysis
                             Force calculation
Force type                   original
                             Eigenvector printing


REKS Calcuation:             Yes
SSR(2,2) Calcuation:         Yes
Energy Functional:           (PPS+OSS)/2
Number of Core Orbitals:                  5
Number of Active Orbitals:                2
Number of Basis:                         12
Number of States:                         2
State-Averaging Weight:          0.500000
                                 0.500000
State of Interest:                        1
Initial Guess:               Diagonalize H0 matrix
Newton-Raphson for FON opt:  Yes
NR max. Iterations:                      50
Level Shifting:              Yes
Shift Value:                     0.300000
W Scale Factor:              C  =    3.000000
                             N  =    3.000000
                             H  =    3.000000
Transition Dipole:           No
Gradient of Microstate:      No
CP-REKS Solver:              Preconditioned Conjugate-Gradient
CG max. Iterations:                     100
CG Tolerance:                  0.100000E-07
Memory for A and Hxc:        Direct Updating Without Saving
Non-Adiabatic Coupling:      Yes

--------------------------------------------------------------------------------

***  Geometry step: 0

  iSCC       reks energy        Diff energy         x_a       SCC error   
    1       -6.2608938445       0.0000000000     0.999417    1.18709293
    2       -6.2738208078      -0.0129269633     0.999760    0.09904695
    3       -6.2780541287      -0.0042333209     0.999868    0.04385376
    4       -6.2802765840      -0.0022224553     0.999914    0.02176551
    5       -6.2816105790      -0.0013339950     0.999937    0.01122102
    6       -6.2824512911      -0.0008407121     0.999949    0.00786351
    7       -6.2829862165      -0.0005349254     0.999956    0.00692849
    8       -6.2833243305      -0.0003381140     0.999960    0.00585141
    9       -6.2835358045      -0.0002114740     0.999963    0.00480288
   10       -6.2836668632      -0.0001310587     0.999964    0.00386408
   11       -6.2837475924      -0.0000807293     0.999965    0.00306464
   12       -6.2837971784      -0.0000495860     0.999966    0.00240592
   13       -6.2838276331      -0.0000304547     0.999966    0.00187526
   14       -6.2838463759      -0.0000187428     0.999967    0.00145451
   15       -6.2838579511      -0.0000115752     0.999967    0.00119726
   16       -6.2838651310      -0.0000071799     0.999967    0.00098789
   17       -6.2838696059      -0.0000044748     0.999967    0.00081277
   18       -6.2838724082      -0.0000028023     0.999967    0.00066697
   19       -6.2838741712      -0.0000017630     0.999967    0.00054608
   20       -6.2838752851      -0.0000011139     0.999967    0.00044618
   21       -6.2838759915      -0.0000007064     0.999967    0.00036389
   22       -6.2838764410      -0.0000004495     0.999967    0.00029630
   23       -6.2838767278      -0.0000002868     0.999967    0.00024091
   24       -6.2838769113      -0.0000001835     0.999967    0.00019562
   25       -6.2838770289      -0.0000001176     0.999967    0.00015867
   26       -6.2838771044      -0.0000000755     0.999967    0.00012889
   27       -6.2838771529      -0.0000000485     0.999967    0.00010501
   28       -6.2838771842      -0.0000000312     0.999967    0.00008542
   29       -6.2838772043      -0.0000000201     0.999967    0.00006938
   30       -6.2838772173      -0.0000000130     0.999967    0.00005628
   31       -6.2838772256      -0.0000000084     0.999967    0.00004561
   32       -6.2838772310      -0.0000000054     0.999967    0.00003693
   33       -6.2838772345      -0.0000000035     0.999967    0.00002987
   34       -6.2838772368      -0.0000000023     0.999967    0.00002415
   35       -6.2838772382      -0.0000000015     0.999967    0.00001951
   36       -6.2838772392      -0.0000000009     0.999967    0.00001575
   37       -6.2838772398      -0.0000000006     0.999967    0.00001271
   38       -6.2838772402      -0.0000000004     0.999967    0.00001026
   39       -6.2838772404      -0.0000000003     0.999967    0.00000827
   40       -6.2838772406      -0.0000000002     0.999967    0.00000667
   41       -6.2838772407      -0.0000000001     0.999967    0.00000537
   42       -6.2838772407      -0.0000000001     0.999967    0.00000433
   43       -6.2838772408      -0.0000000000     0.999967    0.00000349
   44       -6.2838772408      -0.0000000000     0.999967    0.00000281
   45       -6.2838772408      -0.0000000000     0.999967    0.00000226
   46       -6.2838772409      -0.0000000000     0.999967    0.00000182
   47       -6.2838772409      -0.0000000000     0.999967    0.00000147
   48       -6.2838772409      -0.0000000000     0.999967    0.00000118
   49       -6.2838772409      -0.0000000000     0.999967    0.00000095
  
--------------------------------------------------
 Final SA-REKS(2,2) energy:      -6.28387724
  
 State     Energy      FON(1)    FON(2)   Spin
  PPS   -6.41277663   1.999934  0.000066  0.00
  OSS   -6.15497785   1.000000  1.000000  0.00
 Trip   -6.23395802   1.000000  1.000000  1.00
--------------------------------------------------

 Lagrangian Wab:   0.00381610  0.00381596

--------------------------------------------------
 SSR: 2SI-2SA-REKS(2,2) Hamiltonian matrix
               PPS           OSS
   PPS    -6.41277663    0.00536560
   OSS     0.00536560   -6.15497785
--------------------------------------------------

----------------------------------------------------------------
 SSR: 2SI-2SA-REKS(2,2) states
                    E_n       C_{PPS}    C_{OSS}
 SSR state  1   -6.41288826  -0.999784   0.020800
 SSR state  2   -6.15486622  -0.020800  -0.999784
----------------------------------------------------------------

 unrelaxed SSR FONs for S0:  1.999501  0.000499

Total Energy:                       -6.4128882571 H         -174.5036 eV
Extrapolated to 0:                  -6.4128882571 H         -174.5036 eV

----------------------------------------------------------------------------------
 Solving CP-REKS equation for  1 state vector...
----------------------------------------------------------------------------------
  CG solver: Constructing Y initial guess
  CG solver: Iteration    1    eps =    0.000061215708
  CG solver: Iteration    2    eps =    0.000019740335
  CG solver: Iteration    3    eps =    0.000000690138
  CG solver: Iteration    4    eps =    0.000000226575
  CG solver: Iteration    5    eps =    0.000000012672
  CG solver: Iteration    6    eps =    0.000000000775
  Convergence reached in CG solver after    6 iterations
  CG solver: Calculating converged R, Z, Q2 matrix
----------------------------------------------------------------------------------

----------------------------------------------------------------------------------
 Solving CP-REKS equation for SI between  1 and  2 state vectors...
----------------------------------------------------------------------------------
  CG solver: Constructing Y initial guess
  CG solver: Iteration    1    eps =    0.001068014975
  CG solver: Iteration    2    eps =    0.000939826443
  CG solver: Iteration    3    eps =    0.000226852334
  CG solver: Iteration    4    eps =    0.000003022491
  CG solver: Iteration    5    eps =    0.000000427638
  CG solver: Iteration    6    eps =    0.000000008283
  Convergence reached in CG solver after    6 iterations
  CG solver: Calculating converged R, Z, Q2 matrix
----------------------------------------------------------------------------------

--------------------------------------------------
 Gradient Information
--------------------------------------------------
           1 st state (SSR)
    -0.00508217     0.00627074     0.01518890
     0.01614828     0.00746793    -0.01767144
     0.00906659     0.00031666    -0.00399197
     0.00299368    -0.00702699    -0.00205309
    -0.01425883    -0.00460396    -0.00105398
    -0.00886755    -0.00242438     0.00958159

           2 st state (SSR)
     0.00323844    -0.01339259     0.12168531
    -0.01023696     0.00831456    -0.14235576
    -0.00953150    -0.00638496     0.01353048
    -0.00275604     0.00549678    -0.00977785
     0.01160615    -0.00787725    -0.00882510
     0.00767990     0.01384346     0.02574292
--------------------------------------------------
 Coupling Information
--------------------------------------------------
 between  1 and  2 states
--------------------------------------------------
 g vector - difference gradient
    -0.00413464     0.00970220    -0.05352375
     0.01337345    -0.00022769     0.06257983
     0.00959845     0.00334850    -0.00873680
     0.00319767    -0.00633349     0.00392380
    -0.01336514     0.00156004     0.00385509
    -0.00866980    -0.00804957    -0.00809818

 h vector - derivative coupling
     0.00070321    -0.00331462    -0.00551175
     0.00406984     0.00470846     0.00441267
     0.00699920    -0.00012517     0.00076916
     0.00769507    -0.00158998     0.00139529
    -0.01012448    -0.00187424    -0.00081282
    -0.00934284     0.00219556    -0.00025256

 G vector - GDV
    -0.00416030     0.00983166    -0.05324820
     0.01319262    -0.00042332     0.06234216
     0.00929904     0.00335081    -0.00876123
     0.00287486    -0.00626188     0.00386238
    -0.01293249     0.00163664     0.00388556
    -0.00827372    -0.00813392    -0.00808067

 H vector - DCV - non-adiabatic coupling
     0.00205656    -0.01127127    -0.02997048
     0.01791524     0.01819579     0.02717429
     0.02865006     0.00005504     0.00157015
     0.03031294    -0.00717776     0.00603544
    -0.04135918    -0.00700615    -0.00252608
    -0.03757562     0.00720434    -0.00228332
--------------------------------------------------


--------------------------------------------------------------------------------
DFTB+ running times                          cpu [s]             wall clock [s]
--------------------------------------------------------------------------------
SCC                                    +     0.02  ( 67.5%)      0.02  ( 63.2%)
Post-SCC processing                    +     0.01  ( 28.3%)      0.01  ( 28.9%)
  Force calculation                          0.01  ( 27.6%)      0.01  ( 26.3%)
--------------------------------------------------------------------------------
Missing                                +     0.00  (  4.2%)      0.00  (  7.9%)
Total                                  =     0.03  (100.0%)      0.04  (100.0%)
--------------------------------------------------------------------------------
