     6
  Step:   300            Position(A)                                  Velocity(au)
C        -0.02520247     0.01354273     0.01288932     0.00003939    -0.00004399     0.00005029
N        -0.05007467    -0.05626447     1.30004495    -0.00002471    -0.00002910    -0.00008065
H         0.93879457     0.16389761    -0.49274376     0.00007919    -0.00155607    -0.00043489
H         0.81369784    -0.17943356     1.83693406    -0.00002499     0.00225736     0.00046779
H        -0.95392005    -0.00907900     1.79154837    -0.00000867    -0.00193613     0.00036191
H        -1.01534197    -0.02468456    -0.46319329    -0.00017156     0.00216351     0.00012664
