|===============================================================================
|
|  DFTB+ release 20.1
|
|  Copyright (C) 2006 - 2020  DFTB+ developers group
|
|===============================================================================
|
|  When publishing results obtained with DFTB+, please cite the following
|  reference:
|
|  * DFTB+, a software package for efficient approximate density functional
|    theory based atomistic simulations, J. Chem. Phys. 152, 124101 (2020).
|    [doi: 10.1063/1.5143190]
|
|  You should also cite additional publications crediting the parametrization
|  data you use. Please consult the documentation of the SK-files for the
|  references.
|
|===============================================================================

Reading input file 'dftb_in.hsd'
Parser version: 8

--------------------------------------------------------------------------------
Reading SK-files:
Done.


Processed input in HSD format written to 'dftb_pin.hsd'

Starting initialization...
--------------------------------------------------------------------------------
OpenMP threads:              1
Chosen random seed:          511719498
Mode:                        Static calculation
Self consistent charges:     Yes
SCC-tolerance:                 0.100000E-05
Max. scc iterations:                   1000
Shell resolved Hubbard:      No
Spin polarisation:           No
Nr. of up electrons:             6.000000
Nr. of down electrons:           6.000000
Periodic boundaries:         No
Electronic solver:           Relatively robust
Maximal SCC-cycles:                    1000
Initial charges:             Set automatically (system chrg:   0.100E+01)
Included shells:             C:  s, p
                             N:  s, p
                             H:  s
Spin coupling constants:     C   1(s)-1(s):  -0.455900E-01
                             C   1(s)-2(p):  -0.293000E-01
                             C   2(p)-1(s):  -0.293000E-01
                             C   2(p)-2(p):  -0.275500E-01
                             N   1(s)-1(s):  -0.468700E-01
                             N   1(s)-2(p):  -0.317000E-01
                             N   2(p)-1(s):  -0.317000E-01
                             N   2(p)-2(p):  -0.307200E-01
                             H   1(s)-1(s):  -0.792500E-01
Range separated hybrid:      Yes
  Screening parameter omega:   0.300000E+00
  Range separated algorithm:   MatrixBased
Extra options:
                             Mulliken analysis
                             Force calculation
Force type                   original
                             Eigenvector printing


REKS Calcuation:             Yes
SSR(2,2) Calcuation:         Yes
Energy Functional:           (PPS+OSS)/2
Number of Core Orbitals:                  5
Number of Active Orbitals:                2
Number of Basis:                         12
Number of States:                         2
State-Averaging Weight:          0.500000
                                 0.500000
State of Interest:                        1
Initial Guess:               Diagonalize H0 matrix
Newton-Raphson for FON opt:  Yes
NR max. Iterations:                      50
Level Shifting:              Yes
Shift Value:                     0.300000
W Scale Factor:              C  =    3.000000
                             N  =    3.000000
                             H  =    3.000000
Transition Dipole:           No
Gradient of Microstate:      No
CP-REKS Solver:              Preconditioned Conjugate-Gradient
CG max. Iterations:                     100
CG Tolerance:                  0.100000E-07
Memory for A and Hxc:        Direct Updating Without Saving
Non-Adiabatic Coupling:      Yes

--------------------------------------------------------------------------------

***  Geometry step: 0

  iSCC       reks energy        Diff energy         x_a       SCC error   
    1       -6.2766481386       0.0000000000     0.999956    1.19494240
    2       -6.2803905847      -0.0037424461     0.999966    0.02334087
    3       -6.2813397740      -0.0009491894     0.999971    0.00889470
    4       -6.2816806636      -0.0003408896     0.999974    0.00506363
    5       -6.2818234515      -0.0001427880     0.999976    0.00382313
    6       -6.2818885725      -0.0000651209     0.999976    0.00280573
    7       -6.2819196895      -0.0000311170     0.999977    0.00202206
    8       -6.2819349618      -0.0000152723     0.999977    0.00144085
    9       -6.2819425880      -0.0000076262     0.999977    0.00101954
   10       -6.2819464458      -0.0000038578     0.999977    0.00071834
   11       -6.2819484193      -0.0000019735     0.999978    0.00050482
   12       -6.2819494398      -0.0000010205     0.999978    0.00035422
   13       -6.2819499733      -0.0000005334     0.999978    0.00025790
   14       -6.2819502552      -0.0000002820     0.999978    0.00020180
   15       -6.2819504060      -0.0000001508     0.999978    0.00015789
   16       -6.2819504877      -0.0000000816     0.999978    0.00012352
   17       -6.2819505324      -0.0000000447     0.999978    0.00009662
   18       -6.2819505572      -0.0000000248     0.999978    0.00007556
   19       -6.2819505711      -0.0000000139     0.999978    0.00005909
   20       -6.2819505790      -0.0000000079     0.999978    0.00004621
   21       -6.2819505835      -0.0000000045     0.999978    0.00003613
   22       -6.2819505861      -0.0000000026     0.999978    0.00002826
   23       -6.2819505876      -0.0000000015     0.999978    0.00002210
   24       -6.2819505885      -0.0000000009     0.999978    0.00001728
   25       -6.2819505891      -0.0000000005     0.999978    0.00001352
   26       -6.2819505894      -0.0000000003     0.999978    0.00001057
   27       -6.2819505896      -0.0000000002     0.999978    0.00000827
   28       -6.2819505897      -0.0000000001     0.999978    0.00000647
   29       -6.2819505898      -0.0000000001     0.999978    0.00000506
   30       -6.2819505898      -0.0000000000     0.999978    0.00000396
   31       -6.2819505898      -0.0000000000     0.999978    0.00000310
   32       -6.2819505898      -0.0000000000     0.999978    0.00000242
   33       -6.2819505899      -0.0000000000     0.999978    0.00000190
   34       -6.2819505899      -0.0000000000     0.999978    0.00000148
   35       -6.2819505899      -0.0000000000     0.999978    0.00000116
   36       -6.2819505899      -0.0000000000     0.999978    0.00000091
  
--------------------------------------------------
 Final SA-REKS(2,2) energy:      -6.28195059
  
 State     Energy      FON(1)    FON(2)   Spin
  PPS   -6.41260130   1.999956  0.000044  0.00
  OSS   -6.15129988   1.000000  1.000000  0.00
 Trip   -6.22775355   1.000000  1.000000  1.00
--------------------------------------------------

 Lagrangian Wab:  -0.00050163 -0.00050163

--------------------------------------------------
 SSR: 2SI-2SA-REKS(2,2) Hamiltonian matrix
               PPS           OSS
   PPS    -6.41260130   -0.00070606
   OSS    -0.00070606   -6.15129988
--------------------------------------------------

----------------------------------------------------------------
 SSR: 2SI-2SA-REKS(2,2) states
                    E_n       C_{PPS}    C_{OSS}
 SSR state  1   -6.41260320  -0.999996  -0.002702
 SSR state  2   -6.15129798   0.002702  -0.999996
----------------------------------------------------------------

 unrelaxed SSR FONs for S0:  1.999948  0.000052

Total Energy:                       -6.4126032038 H         -174.4958 eV
Extrapolated to 0:                  -6.4126032038 H         -174.4958 eV

----------------------------------------------------------------------------------
 Solving CP-REKS equation for  1 state vector...
----------------------------------------------------------------------------------
  CG solver: Constructing Y initial guess
  CG solver: Iteration    1    eps =    0.000024056443
  CG solver: Iteration    2    eps =    0.000000649610
  CG solver: Iteration    3    eps =    0.000000189286
  CG solver: Iteration    4    eps =    0.000000004254
  Convergence reached in CG solver after    4 iterations
  CG solver: Calculating converged R, Z, Q2 matrix
----------------------------------------------------------------------------------

----------------------------------------------------------------------------------
 Solving CP-REKS equation for SI between  1 and  2 state vectors...
----------------------------------------------------------------------------------
  CG solver: Constructing Y initial guess
  CG solver: Iteration    1    eps =    0.000393426136
  CG solver: Iteration    2    eps =    0.000114541526
  CG solver: Iteration    3    eps =    0.000020766317
  CG solver: Iteration    4    eps =    0.000000689983
  CG solver: Iteration    5    eps =    0.000000013236
  CG solver: Iteration    6    eps =    0.000000005577
  Convergence reached in CG solver after    6 iterations
  CG solver: Calculating converged R, Z, Q2 matrix
----------------------------------------------------------------------------------

--------------------------------------------------
 Gradient Information
--------------------------------------------------
           1 st state (SSR)
    -0.01203644    -0.01223749     0.04151155
     0.03298741    -0.00076987    -0.05463170
     0.00049318     0.00129064    -0.00760288
    -0.01387026     0.00319629     0.00609476
    -0.01014820     0.00424318     0.01004991
     0.00257431     0.00427724     0.00457835

           2 st state (SSR)
     0.01026253    -0.00274860     0.15212207
    -0.01376546     0.00415286    -0.18232866
    -0.00249382     0.00889006     0.01301476
     0.00513413    -0.00302601    -0.00191062
     0.00388571     0.00896573    -0.00050722
    -0.00302308    -0.01623405     0.01960967
--------------------------------------------------
 Coupling Information
--------------------------------------------------
 between  1 and  2 states
--------------------------------------------------
 g vector - difference gradient
    -0.01115547    -0.00477697    -0.05531077
     0.02337175    -0.00241302     0.06385069
     0.00146509    -0.00379379    -0.01030861
    -0.00953372     0.00308993     0.00399568
    -0.00698375    -0.00237435     0.00528686
     0.00283610     0.01026822    -0.00751384

 h vector - derivative coupling
     0.00107745     0.00600680     0.00087138
     0.00093068    -0.00895187    -0.00023581
     0.00526091    -0.00110577    -0.00006644
     0.00580813     0.00393538     0.00130794
    -0.00616332     0.00241418    -0.00152011
    -0.00691384    -0.00229871    -0.00035696

 G vector - GDV
    -0.01114948    -0.00474444    -0.05530526
     0.02337644    -0.00246136     0.06384848
     0.00149350    -0.00379971    -0.01030882
    -0.00950219     0.00311115     0.00400269
    -0.00701696    -0.00236127     0.00527857
     0.00279869     0.01025564    -0.00751566

 H vector - DCV - non-adiabatic coupling
     0.00435397     0.02308612     0.00447857
     0.00307825    -0.03420788    -0.00222293
     0.02010260    -0.00415319    -0.00004105
     0.02242422     0.01499633     0.00492270
    -0.02344191     0.00928788    -0.00592662
    -0.02651713    -0.00900927    -0.00121066
--------------------------------------------------


--------------------------------------------------------------------------------
DFTB+ running times                          cpu [s]             wall clock [s]
--------------------------------------------------------------------------------
SCC                                    +     0.02  ( 61.3%)      0.02  ( 58.1%)
--------------------------------------------------------------------------------
Missing                                +     0.01  ( 38.7%)      0.01  ( 41.9%)
Total                                  =     0.03  (100.0%)      0.03  (100.0%)
--------------------------------------------------------------------------------
