    14
  Step:     0            Position(A)                                  Velocity(au)
C        -5.98870974    -0.64624360    -0.28834271    -0.00007801     0.00015904     0.00002897
C        -4.69978065    -0.75472465     0.26396918    -0.00001064    -0.00009050    -0.00006148
H        -6.27777923     0.31197984    -0.83273030    -0.00030177    -0.00057423    -0.00002593
H        -6.69154419    -1.48244271    -0.16774966     0.00140425    -0.00004303    -0.00006345
H        -4.45066731    -1.66061364     0.81213424    -0.00064983     0.00040259     0.00010501
C        -3.87550120     0.33619916     0.06538876     0.00001835    -0.00025254     0.00013746
C        -2.50371158     0.47041821     0.34118237     0.00002737     0.00003749    -0.00014813
H        -4.39830994     1.17932595    -0.44134644     0.00007302     0.00007041    -0.00045620
H        -1.99197732    -0.33225327     0.88771935     0.00020186    -0.00011711     0.00027085
C        -1.84193865     1.65227495    -0.10676954    -0.00028183     0.00029859     0.00015111
H        -2.49107934     2.41646223    -0.61697740     0.00038203     0.00027796    -0.00081463
N        -0.59743370     1.85009838     0.12466281     0.00016759    -0.00012165    -0.00009880
H        -0.10741326     2.72731559    -0.20646652    -0.00002815     0.00031520    -0.00021155
H         0.06592392     1.16520597     0.56481703     0.00045959    -0.00045357     0.00128275
    14
  Step:     1            Position(A)                                  Velocity(au)
C        -5.98970331    -0.64446415    -0.28807323    -0.00010131     0.00016619     0.00002075
C        -4.69988660    -0.75569531     0.26329795    -0.00000954    -0.00008558    -0.00006161
H        -6.28084293     0.30404698    -0.83225731    -0.00026228    -0.00085789     0.00010444
H        -6.67624201    -1.48236100    -0.16872833     0.00136712     0.00003539    -0.00011378
H        -4.45727161    -1.65619357     0.81318919    -0.00055182     0.00038900     0.00009669
C        -3.87577111     0.33341122     0.06678398    -0.00006724    -0.00025565     0.00011666
C        -2.50296475     0.47099613     0.33960341     0.00010888     0.00006747    -0.00013974
H        -4.39677284     1.17982242    -0.44604492     0.00021186     0.00000903    -0.00039605
H        -1.98964815    -0.33307018     0.89051531     0.00021943    -0.00002168     0.00023253
C        -1.84558731     1.65530084    -0.10512680    -0.00038074     0.00025481     0.00014965
H        -2.48564890     2.41892210    -0.62540522     0.00060524     0.00017138    -0.00072308
N        -0.59500483     1.84896482     0.12361713     0.00027465    -0.00008734    -0.00009190
H        -0.10874036     2.72910257    -0.20812799    -0.00021157     0.00000634    -0.00008986
H         0.06946444     1.16110257     0.57819244     0.00016711    -0.00027244     0.00114485
    14
  Step:     2            Position(A)                                  Velocity(au)
C        -5.99092618    -0.64260785    -0.28788876    -0.00011963     0.00017247     0.00001387
C        -4.69998931    -0.75659689     0.26262130    -0.00001016    -0.00007809    -0.00006243
H        -6.28351712     0.29321181    -0.83044538    -0.00023337    -0.00109563     0.00021352
H        -6.66163592    -1.48166848    -0.17023871     0.00127664     0.00006632    -0.00016020
H        -4.46273953    -1.65210356     0.81424952    -0.00044306     0.00034384     0.00010513
C        -3.87697223     0.33060635     0.06794101    -0.00015061    -0.00025578     0.00009430
C        -2.50132957     0.47189427     0.33812518     0.00018852     0.00009587    -0.00012994
H        -4.39367500     1.17952347    -0.45001083     0.00035438    -0.00007070    -0.00032516
H        -1.98717696    -0.33272751     0.89280647     0.00023008     0.00009164     0.00018073
C        -1.85026812     1.65784940    -0.10349571    -0.00046835     0.00021158     0.00014938
H        -2.47783856     2.42021153    -0.63279623     0.00081154     0.00006860    -0.00062874
N        -0.59142523     1.84818758     0.12265241     0.00037511    -0.00005706    -0.00008430
H        -0.11204166     2.72745419    -0.20843243    -0.00037987    -0.00029671     0.00003059
H         0.06957976     1.15924590     0.58986276    -0.00015326    -0.00005484     0.00097890
    14
  Step:     3            Position(A)                                  Velocity(au)
C        -5.99232034    -0.64069095    -0.28776984    -0.00013249     0.00017647     0.00000923
C        -4.70010896    -0.75740370     0.26193218    -0.00001274    -0.00006865    -0.00006377
H        -6.28594843     0.28007788    -0.82758611    -0.00022071    -0.00126919     0.00029057
H        -6.64831309    -1.48091008    -0.17223292     0.00113420     0.00004751    -0.00020207
H        -4.46696449    -1.64867146     0.81548904    -0.00032595     0.00027182     0.00012762
C        -3.87906590     0.32781564     0.06884706    -0.00022911    -0.00025317     0.00007117
C        -2.49884051     0.47309339     0.33676068     0.00026373     0.00012233    -0.00011919
H        -4.38902015     1.17827581    -0.45315833     0.00049257    -0.00015991    -0.00024946
H        -1.98461479    -0.33106536     0.89446923     0.00023847     0.00021595     0.00012009
C        -1.85583330     1.65992952    -0.10185887    -0.00054070     0.00016939     0.00015099
H        -2.46789481     2.42042292    -0.63916018     0.00099020    -0.00002124    -0.00053901
N        -0.58679866     1.84771646     0.12177289     0.00046361    -0.00003188    -0.00007658
H        -0.11705068     2.72261142    -0.20745869    -0.00051501    -0.00056157     0.00013789
H         0.06611150     1.15990280     0.59960783    -0.00047509     0.00017526     0.00080121
    14
  Step:     4            Position(A)                                  Velocity(au)
C        -5.99382462    -0.63874716    -0.28768674    -0.00013981     0.00017642     0.00000779
C        -4.70026811    -0.75809866     0.26122631    -0.00001750    -0.00005819    -0.00006530
H        -6.28834556     0.26544581    -0.82408865    -0.00022978    -0.00136143     0.00032520
H        -6.63682302    -1.48062907    -0.17465938     0.00094557    -0.00001791    -0.00023942
H        -4.46987039    -1.64615707     0.81704151    -0.00020358     0.00018042     0.00015970
C        -3.88198453     0.32506784     0.06949805    -0.00030015    -0.00024800     0.00004805
C        -2.49555999     0.47457053     0.33551769     0.00033201     0.00014652    -0.00010795
H        -4.38289912     1.17602517    -0.45546824     0.00061864    -0.00024947    -0.00017513
H        -1.98196006    -0.32800313     0.89543367     0.00024940     0.00034384     0.00005561
C        -1.86209700     1.66155505    -0.10019241    -0.00059486     0.00012866     0.00015497
H        -2.45617598     2.41974692    -0.64458802     0.00113177    -0.00008954    -0.00046115
N        -0.58128286     1.84749020     0.12097712     0.00053572    -0.00001269    -0.00006922
H        -0.12330856     2.71516869    -0.20541577    -0.00060027    -0.00075663     0.00022039
H         0.05918616     1.16308014     0.60739067    -0.00077283     0.00039418     0.00062899
    14
  Step:     5            Position(A)                                  Velocity(au)
C        -5.99537904    -0.63683134    -0.28759938    -0.00014193     0.00017037     0.00001041
C        -4.70049187    -0.75867671     0.26050372    -0.00002468    -0.00004791    -0.00006658
H        -6.29097536     0.25029396    -0.82047179    -0.00026519    -0.00135870     0.00030870
H        -6.62762701    -1.48130193    -0.17747078     0.00072088    -0.00012087    -0.00027298
H        -4.47141825    -1.64472434     0.81898287    -0.00007952     0.00007921     0.00019550
C        -3.88563234     0.32239021     0.06989826    -0.00036128    -0.00024040     0.00002568
C        -2.49157708     0.47629872     0.33439914     0.00039105     0.00016802    -0.00009663
H        -4.37548613     1.17281809    -0.45698966     0.00072528    -0.00033020    -0.00010832
H        -1.97915859    -0.32354325     0.89568585     0.00026756     0.00046779    -0.00000752
C        -1.86884708     1.66274432    -0.09846858    -0.00062898     0.00008985     0.00016152
H        -2.44313525     2.41846407    -0.64924866     0.00122860    -0.00012876    -0.00040190
N        -0.57507886     1.84743883     0.12025858     0.00058803    -0.00000008    -0.00006271
H        -0.13018272     2.70605875    -0.20263715    -0.00062151    -0.00085321     0.00026758
H         0.04920445     1.16852635     0.61336815    -0.00102210     0.00057835     0.00048042
    14
  Step:     6            Position(A)                                  Velocity(au)
C        -5.99692964    -0.63502008    -0.28745907    -0.00013963     0.00015650     0.00001767
C        -4.70080794    -0.75914674     0.25976976    -0.00003447    -0.00003910    -0.00006712
H        -6.29414718     0.23572169    -0.81733527    -0.00032949    -0.00125427     0.00023619
H        -6.62105238    -1.48327344    -0.18063135     0.00047382    -0.00024709    -0.00030399
H        -4.47160995    -1.64442421     0.82131855     0.00004249    -0.00002135     0.00022849
C        -3.88988818     0.31980866     0.07005977    -0.00041038    -0.00023049     0.00000472
C        -2.48700497     0.47824634     0.33340379     0.00043887     0.00018643    -0.00008556
H        -4.36703224     1.16880145    -0.45783796     0.00080591    -0.00039315    -0.00005496
H        -1.97610663    -0.31776923     0.89526917     0.00029718     0.00058060    -0.00006426
C        -1.87585716     1.66352060    -0.09665881    -0.00064231     0.00005343     0.00017059
H        -2.42929801     2.41693003    -0.65338027     0.00127565    -0.00013336    -0.00036666
N        -0.56841854     1.84748851     0.11960530     0.00061839     0.00000597    -0.00005762
H        -0.13690531     2.69650304    -0.19956200    -0.00056939    -0.00082986     0.00027162
H         0.03682585     1.17573259     0.61790069    -0.00120061     0.00070486     0.00037415
    14
  Step:     7            Position(A)                                  Velocity(au)
C        -5.99843376    -0.63340757    -0.28721284    -0.00013419     0.00013369     0.00002963
C        -4.70124606    -0.75953216     0.25903545    -0.00004704    -0.00003303    -0.00006641
H        -6.29818359     0.22285442    -0.81530475    -0.00042173    -0.00105222     0.00010915
H        -6.61726122    -1.48670749    -0.18412122     0.00021995    -0.00037899    -0.00033392
H        -4.47048873    -1.64519141     0.82398156     0.00015879    -0.00011117     0.00025235
C        -3.89461018     0.31734782     0.07000150    -0.00044586    -0.00021842    -0.00001425
C        -2.48197599     0.48037727     0.33252728     0.00047399     0.00020134    -0.00007499
H        -4.35785539     1.16421718    -0.45819195     0.00085505    -0.00043010    -0.00002048
H        -1.97265722    -0.31084161     0.89428009     0.00034177     0.00067565    -0.00011002
C        -1.88289874     1.66391312    -0.09473670    -0.00063516     0.00002005     0.00018180
H        -2.41522787     2.41554654    -0.65727011     0.00127132    -0.00010106    -0.00035849
N        -0.56155036     1.84756945     0.11899798     0.00062606     0.00000631    -0.00005474
H        -0.14263923     2.68790404    -0.19669501    -0.00044207    -0.00067825     0.00022963
H         0.02293885     1.18394651     0.62155333    -0.00129014     0.00075348     0.00032784
    14
  Step:     8            Position(A)                                  Velocity(au)
C        -5.99986522    -0.63209528    -0.28681078    -0.00012730     0.00010193     0.00004562
C        -4.70183694    -0.75986924     0.25831697    -0.00006237    -0.00003071    -0.00006404
H        -6.30337325     0.21270238    -0.81494739    -0.00053625    -0.00077018    -0.00006258
H        -6.61624046    -1.49156455    -0.18793659    -0.00002530    -0.00049842    -0.00036406
H        -4.46813612    -1.64685616     0.82683909     0.00026615    -0.00018178     0.00026174
C        -3.89964228     0.31503021     0.06974796    -0.00046678    -0.00020441    -0.00003081
C        -2.47663561     0.48265097     0.33176327     0.00049552     0.00021235    -0.00006502
H        -4.34832630     1.15939209    -0.45828606     0.00086882    -0.00043427    -0.00000932
H        -1.96862972    -0.30298806     0.89286223     0.00040383     0.00074752    -0.00014098
C        -1.88975247     1.66395922    -0.09268164    -0.00060879    -0.00000942     0.00019447
H        -2.40148553     2.41471915    -0.66122289     0.00121784    -0.00003384    -0.00037711
N        -0.55472221     1.84762661     0.11840765     0.00061200     0.00000280    -0.00005503
H        -0.14657654     2.68166506    -0.19453840    -0.00024764    -0.00040913     0.00014591
H         0.00860152     1.19221637     0.62507273    -0.00127980     0.00071028     0.00035517
    14
  Step:     9            Position(A)                                  Velocity(au)
C        -6.00121859    -0.63117775    -0.28621492    -0.00012097     0.00006251     0.00006414
C        -4.70261062    -0.76020405     0.25763455    -0.00008036    -0.00003287    -0.00005971
H        -6.30991499     0.20600536    -0.81667383    -0.00066240    -0.00043893    -0.00026063
H        -6.61781470    -1.49761140    -0.19208575    -0.00024853    -0.00058943    -0.00039518
H        -4.46466623    -1.64916817     0.82970761     0.00036194    -0.00022728     0.00025298
C        -3.90482198     0.31287592     0.06932750    -0.00047291    -0.00018866    -0.00004469
C        -2.47113562     0.48502275     0.33110491     0.00050318     0.00021909    -0.00005564
H        -4.33884821     1.15471661    -0.45839585     0.00084543    -0.00040137    -0.00002422
H        -1.96382266    -0.29448822     0.89119578     0.00048449     0.00079239    -0.00015449
C        -1.89621725     1.66370706    -0.09048232    -0.00056520    -0.00003386     0.00020759
H        -2.38858519     2.41480617    -0.66552022     0.00112137     0.00006140    -0.00041832
N        -0.54816176     1.84763061     0.11779411     0.00057895    -0.00000193    -0.00005942
H        -0.14805686     2.67895363    -0.19350301    -0.00000460    -0.00005488     0.00003286
H        -0.00505930     1.19948517     0.62932338    -0.00116980     0.00057255     0.00046169
    14
  Step:    10            Position(A)                                  Velocity(au)
C        -6.00251160    -0.63072780    -0.28540762    -0.00011728     0.00001788     0.00008313
C        -4.70359493    -0.76058830     0.25701076    -0.00010072    -0.00003980    -0.00005329
H        -6.31786456     0.20310003    -0.82064916    -0.00078573    -0.00009804    -0.00046043
H        -6.62167753    -1.50445950    -0.19658195    -0.00043969    -0.00064041    -0.00042738
H        -4.46021799    -1.65182843     0.83237351     0.00044427    -0.00024477     0.00022433
C        -3.90998803     0.31090282     0.06877025    -0.00046468    -0.00017134    -0.00005586
C        -2.46562761     0.48744395     0.33054613     0.00049727     0.00022120    -0.00004671
H        -4.32983089     1.15061136    -0.45881587     0.00078560    -0.00033061    -0.00006561
H        -1.95803048    -0.28565295     0.88948240     0.00058327     0.00080860    -0.00014945
C        -1.90211730     1.66321855    -0.08814019    -0.00050688    -0.00005191     0.00021989
H        -2.37695336     2.41606237    -0.67037445     0.00099127     0.00017310    -0.00047394
N        -0.54205647     1.84758439     0.11710783     0.00053138    -0.00000501    -0.00006845
H        -0.14667718     2.68046439    -0.19381962     0.00026051     0.00033403    -0.00009043
H        -0.01699012     1.20474194     0.63517306    -0.00097424     0.00035326     0.00064051
    14
  Step:    11            Position(A)                                  Velocity(au)
C        -6.00378441    -0.63078658    -0.28439630    -0.00011811    -0.00002895     0.00010032
C        -4.70481398    -0.76107470     0.25646863    -0.00012305    -0.00005139    -0.00004484
H        -6.32710444     0.20386062    -0.82674659    -0.00089060     0.00021186    -0.00063593
H        -6.62743385    -1.51162153    -0.20143540    -0.00059273    -0.00064513    -0.00046005
H        -4.45494699    -1.65452303     0.83461516     0.00051197    -0.00023430     0.00017598
C        -3.91498772     0.30912754     0.06810554    -0.00044318    -0.00015248    -0.00006450
C        -2.46025699     0.48986202     0.33008309     0.00047858     0.00021834    -0.00003797
H        -4.32166174     1.14748397    -0.45983129     0.00069274    -0.00022548    -0.00013113
H        -1.95106259    -0.27679855     0.88792630     0.00069782     0.00079695    -0.00012660
C        -1.90730620     1.66257132    -0.08567188    -0.00043656    -0.00006217     0.00022994
H        -2.36689936     2.41859308    -0.67588845     0.00083877     0.00028652    -0.00053285
N        -0.53653688     1.84752095     0.11629672     0.00047486    -0.00000423    -0.00008186
H        -0.14235780     2.68626119    -0.19548141     0.00051812     0.00069911    -0.00020207
H        -0.02637273     1.20721346     0.64333566    -0.00072086     0.00008235     0.00087019
    14
  Step:    12            Position(A)                                  Velocity(au)
C        -6.00509556    -0.63136115    -0.28321293    -0.00012482    -0.00007511     0.00011372
C        -4.70628698    -0.76171248     0.25602972    -0.00014688    -0.00006712    -0.00003457
H        -6.33734815     0.20773488    -0.83456127    -0.00096332     0.00045716    -0.00076487
H        -6.63464464    -1.51857304    -0.20664633    -0.00070544    -0.00060274    -0.00049207
H        -4.44901759    -1.65695426     0.83622343     0.00056459    -0.00019857     0.00010989
C        -3.91968348     0.30756712     0.06735925    -0.00041004    -0.00013196    -0.00007105
C        -2.45515770     0.49222065     0.32971546     0.00044838     0.00021020    -0.00002906
H        -4.31467594     1.14567851    -0.46168468     0.00057283    -0.00009411    -0.00021537
H        -1.94276432    -0.26821822     0.88671282     0.00082391     0.00076087    -0.00008867
C        -1.91166792     1.66185856    -0.08310981    -0.00035697    -0.00006333     0.00023638
H        -2.35860363     2.42233045    -0.68203159     0.00067537     0.00038605    -0.00058280
N        -0.53166800     1.84749187     0.11531692     0.00041531     0.00000136    -0.00009841
H        -0.13534224     2.69575879    -0.19824029     0.00074162     0.00098687    -0.00028239
H        -0.03276027     1.20654359     0.65421023    -0.00044650    -0.00019735     0.00111691
    14
  Step:    13            Position(A)                                  Velocity(au)
C        -6.00651504    -0.63242967    -0.28190850    -0.00013808    -0.00011837     0.00012196
C        -4.70802725    -0.76254314     0.25571228    -0.00017163    -0.00008613    -0.00002285
H        -6.34817888     0.21386183    -0.84347968    -0.00099464     0.00061671    -0.00083269
H        -6.64286663    -1.52480754    -0.21220031    -0.00077882    -0.00051675    -0.00052201
H        -4.44259549    -1.65886715     0.83701923     0.00060230    -0.00014240     0.00002941
C        -3.92395804     0.30624077     0.06655124    -0.00036726    -0.00010953    -0.00007614
C        -2.45044775     0.49446045     0.32944732     0.00040828     0.00019653    -0.00001956
H        -4.30912994     1.14542515    -0.46454293     0.00043390     0.00005135    -0.00031023
H        -1.93303806    -0.26015313     0.88598637     0.00095547     0.00070621    -0.00004027
C        -1.91511568     1.66118587    -0.08050065    -0.00027063    -0.00005453     0.00023808
H        -2.35212430     2.42703874    -0.68863827     0.00051129     0.00045787    -0.00061241
N        -0.52745120     1.84755066     0.11414382     0.00035798     0.00001126    -0.00011603
H        -0.12613337     2.70785089    -0.20165919     0.00091188     0.00115973    -0.00031807
H        -0.03614069     1.20289603     0.66777024    -0.00018935    -0.00043922     0.00134108
    14
  Step:    14            Position(A)                                  Velocity(au)
C        -6.00811639    -0.63395080    -0.28054478    -0.00015787    -0.00015742     0.00012446
C        -4.71004174    -0.76359685     0.25552977    -0.00019672    -0.00010727    -0.00001017
H        -6.35910783     0.22122653    -0.85277799    -0.00098074     0.00068310    -0.00083375
H        -6.65168274    -1.52987799    -0.21806637    -0.00081636    -0.00039402    -0.00054839
H        -4.43584114    -1.66006944     0.83686672     0.00062583    -0.00007212    -0.00006112
C        -3.92771797     0.30517086     0.06569357    -0.00031713    -0.00008493    -0.00008052
C        -2.44622582     0.49652018     0.32928756     0.00036017     0.00017731    -0.00000904
H        -4.30518355     1.14680194    -0.46847160     0.00028505     0.00019625    -0.00040592
H        -1.92186147    -0.25276842     0.88583180     0.00108510     0.00064058     0.00001262
C        -1.91758842     1.66066552    -0.07790143    -0.00017972    -0.00003553     0.00023432
H        -2.34741816     2.43234728    -0.69542933     0.00035453     0.00049201    -0.00061304
N        -0.52383657     1.84773825     0.11277854     0.00030671     0.00002398    -0.00013238
H        -0.11539303     2.72113009    -0.20519859     0.00101930     0.00120104    -0.00030389
H        -0.03690271     1.19693481     0.68354893     0.00001919    -0.00060356     0.00150638
    14
  Step:    15            Position(A)                                  Velocity(au)
C        -6.00996884    -0.63587346    -0.27918581    -0.00018352    -0.00019168     0.00012129
C        -4.71233085    -0.76488994     0.25548970    -0.00022155    -0.00012919     0.00000288
H        -6.36963448     0.22880604    -0.86171953    -0.00092274     0.00066050    -0.00077026
H        -6.66072597    -1.53342759    -0.22419735    -0.00082335    -0.00024366    -0.00056979
H        -4.42890427    -1.66044482     0.83568213     0.00063638     0.00000502    -0.00015672
C        -3.93089582     0.30438276     0.06478967    -0.00026201    -0.00005796    -0.00008495
C        -2.44256835     0.49833939     0.32924961     0.00030614     0.00015274     0.00000286
H        -4.30289381     1.14971842    -0.47342323     0.00013545     0.00032556    -0.00049229
H        -1.90929940    -0.24613911     0.88626249     0.00120463     0.00057230     0.00006336
C        -1.91904734     1.66040864    -0.07537443    -0.00008611    -0.00000679     0.00022489
H        -2.34436818     2.43780245    -0.70204972     0.00021054     0.00048356    -0.00057980
N        -0.52074142     1.84807533     0.11124767     0.00026361     0.00003769    -0.00014545
H        -0.10383416     2.73412585    -0.20830745     0.00106310     0.00111370    -0.00024208
H        -0.03572078     1.18969199     0.70072507     0.00015997    -0.00066573     0.00158740
    14
  Step:    16            Position(A)                                  Velocity(au)
C        -6.01213133    -0.63814415    -0.27789132    -0.00021390    -0.00022115     0.00011306
C        -4.71488857    -0.76642313     0.25559285    -0.00024556    -0.00015043     0.00001569
H        -6.37929445     0.23567624    -0.86962899    -0.00082538     0.00056085    -0.00064998
H        -6.66969511    -1.53520856    -0.23053163    -0.00080627    -0.00007607    -0.00058502
H        -4.42191907    -1.65995971     0.83343817     0.00063556     0.00008137    -0.00025219
C        -3.93345001     0.30390283     0.06383507    -0.00020422    -0.00002868    -0.00009007
C        -2.43952852     0.49986163     0.32935021     0.00024832     0.00012338     0.00001637
H        -4.30222027     1.15392421    -0.47924149    -0.00000668     0.00042614    -0.00056028
H        -1.89550789    -0.24024824     0.88721797     0.00130595     0.00050926     0.00010553
C        -1.91947215     1.66051698    -0.07298145     0.00000865     0.00003048     0.00021007
H        -2.34281223     2.44292598    -0.70811361     0.00008236     0.00043262    -0.00051178
N        -0.51806961     1.84856274     0.10959665     0.00022918     0.00005078    -0.00015390
H        -0.09213577     2.74549448    -0.21049457     0.00104903     0.00091499    -0.00014013
H        -0.03340302     1.18237078     0.71827643     0.00022708    -0.00061876     0.00157324
    14
  Step:    17            Position(A)                                  Velocity(au)
C        -6.01464839    -0.64071157    -0.27671235    -0.00024759    -0.00024611     0.00010066
C        -4.71770292    -0.76818078     0.25583293    -0.00026823    -0.00016950     0.00002760
H        -6.38769119     0.24107571    -0.87593910    -0.00069555     0.00040014    -0.00048369
H        -6.67836457    -1.53509174    -0.23699577    -0.00077228     0.00009775    -0.00059314
H        -4.41500024    -1.65866460     0.83016489     0.00062527     0.00014944    -0.00034242
C        -3.93536352     0.30375526     0.06281920    -0.00014589     0.00000253    -0.00009632
C        -2.43713589     0.50103857     0.32960765     0.00018885     0.00009017     0.00003151
H        -4.30303996     1.15904104    -0.48568050    -0.00013474     0.00048846    -0.00060306
H        -1.88072916    -0.23499810     0.88857113     0.00138180     0.00045786     0.00013374
C        -1.91885821     1.66107545    -0.07077869     0.00010320     0.00007447     0.00019056
H        -2.34256630     2.44726685    -0.71324589    -0.00002878     0.00034355    -0.00041150
N        -0.51572756     1.84918621     0.10788089     0.00020271     0.00006214    -0.00015722
H        -0.08088466     2.75414292    -0.21137297     0.00098697     0.00063054    -0.00000845
H        -0.03075287     1.17615547     0.73514279     0.00022547    -0.00047088     0.00146650
    14
  Step:    18            Position(A)                                  Velocity(au)
C        -6.01754795    -0.64352837    -0.27568916    -0.00028303    -0.00026695     0.00008512
C        -4.72075668    -0.77013122     0.25619670    -0.00028913    -0.00018500     0.00003801
H        -6.39451098     0.24443005    -0.88021068    -0.00054113     0.00019577    -0.00028344
H        -6.68659011    -1.53307002    -0.24350773    -0.00072896     0.00026667    -0.00059352
H        -4.40824009    -1.65669038     0.82594714     0.00060764     0.00020227    -0.00042265
C        -3.93664162     0.30395814     0.06172792    -0.00008893     0.00003495    -0.00010390
C        -2.43539717     0.50183437     0.33003947     0.00012973     0.00005444     0.00004811
H        -4.30516805     1.16461023    -0.49243455    -0.00024410     0.00050757    -0.00061668
H        -1.86527830    -0.23023170     0.89014377     0.00142640     0.00042226     0.00014427
C        -1.91721440     1.66214619    -0.06881267     0.00019639     0.00012292     0.00016736
H        -2.34344192     2.45044176    -0.71711603    -0.00012306     0.00022382    -0.00028417
N        -0.51363503     1.84992209     0.10615722     0.00018270     0.00007109    -0.00015554
H        -0.07054385     2.75928872    -0.21067953     0.00088897     0.00028974     0.00014139
H        -0.02847044     1.17206931     0.75035889     0.00016694    -0.00024043     0.00127966
    14
  Step:    19            Position(A)                                  Velocity(au)
C        -6.02084017    -0.64655169    -0.27485027    -0.00031857    -0.00028408     0.00006751
C        -4.72402824    -0.77222805     0.25666440    -0.00030790    -0.00019570     0.00004636
H        -6.39952952     0.24535847    -0.88213988    -0.00037032    -0.00003480    -0.00006152
H        -6.69431202    -1.52925790    -0.24998010    -0.00068407     0.00041976    -0.00058580
H        -4.40170703    -1.65423955     0.82091863     0.00058483     0.00023396    -0.00048885
C        -3.93730894     0.30451981     0.06054624    -0.00003496     0.00006757    -0.00011278
C        -2.43429788     0.50222953     0.33066010     0.00007280     0.00001780     0.00006580
H        -4.30838004     1.17014519    -0.49917152    -0.00033202     0.00048305    -0.00060012
H        -1.84952391    -0.22576040     0.89172732     0.00143587     0.00040405     0.00013535
C        -1.91456170     1.66376455    -0.06711739     0.00028715     0.00017329     0.00014170
H        -2.34525837     2.45216340    -0.71946274    -0.00020152     0.00008295    -0.00013682
N        -0.51173076     1.85074148     0.10447811     0.00016731     0.00007727    -0.00014943
H        -0.06143676     2.76048155    -0.20827980     0.00076809    -0.00007704     0.00029779
H        -0.02710072     1.17089567     0.76313780     0.00006660     0.00004917     0.00103106
    14
  Step:    20            Position(A)                                  Velocity(au)
C        -6.02451734    -0.64974310    -0.27421231    -0.00035261    -0.00029790     0.00004892
C        -4.72749257    -0.77441257     0.25721080    -0.00032426    -0.00020062     0.00005221
H        -6.40261238     0.24366879    -0.88155652    -0.00019129    -0.00027455     0.00016996
H        -6.70155548    -1.52388695    -0.25632332    -0.00064524     0.00054673    -0.00056995
H        -4.39544587    -1.65157206     0.81525255     0.00055886     0.00024016    -0.00053801
C        -3.93740642     0.30543636     0.05926066     0.00001466     0.00009921    -0.00012274
C        -2.43380456     0.50222369     0.33147891     0.00001968    -0.00001795     0.00008405
H        -4.31243158     1.17517785    -0.50556325    -0.00039748     0.00041834    -0.00055491
H        -1.83386583    -0.22139234     0.89310472     0.00140838     0.00040239     0.00010711
C        -1.91093234     1.66593717    -0.06571282     0.00037448     0.00022295     0.00011486
H        -2.34785059     2.45225636    -0.72010916    -0.00026585    -0.00006856     0.00002251
N        -0.50997480     1.85161253     0.10288821     0.00015459     0.00008043    -0.00013966