|===============================================================================
|
|  DFTB+ release 20.1
|
|  Copyright (C) 2006 - 2020  DFTB+ developers group
|
|===============================================================================
|
|  When publishing results obtained with DFTB+, please cite the following
|  reference:
|
|  * DFTB+, a software package for efficient approximate density functional
|    theory based atomistic simulations, J. Chem. Phys. 152, 124101 (2020).
|    [doi: 10.1063/1.5143190]
|
|  You should also cite additional publications crediting the parametrization
|  data you use. Please consult the documentation of the SK-files for the
|  references.
|
|===============================================================================

Reading input file 'dftb_in.hsd'
Parser version: 8

--------------------------------------------------------------------------------
Reading SK-files:
Done.


Processed input in HSD format written to 'dftb_pin.hsd'

Starting initialization...
--------------------------------------------------------------------------------
OpenMP threads:              1
Chosen random seed:          511539643
Mode:                        Static calculation
Self consistent charges:     Yes
SCC-tolerance:                 0.100000E-05
Max. scc iterations:                   1000
Shell resolved Hubbard:      No
Spin polarisation:           No
Nr. of up electrons:             6.000000
Nr. of down electrons:           6.000000
Periodic boundaries:         No
Electronic solver:           Relatively robust
Maximal SCC-cycles:                    1000
Initial charges:             Set automatically (system chrg:   0.100E+01)
Included shells:             C:  s, p
                             N:  s, p
                             H:  s
Spin coupling constants:     C   1(s)-1(s):  -0.455900E-01
                             C   1(s)-2(p):  -0.293000E-01
                             C   2(p)-1(s):  -0.293000E-01
                             C   2(p)-2(p):  -0.275500E-01
                             N   1(s)-1(s):  -0.468700E-01
                             N   1(s)-2(p):  -0.317000E-01
                             N   2(p)-1(s):  -0.317000E-01
                             N   2(p)-2(p):  -0.307200E-01
                             H   1(s)-1(s):  -0.792500E-01
Range separated hybrid:      Yes
  Screening parameter omega:   0.300000E+00
  Range separated algorithm:   MatrixBased
Extra options:
                             Mulliken analysis
                             Force calculation
Force type                   original
                             Eigenvector printing


REKS Calcuation:             Yes
SSR(2,2) Calcuation:         Yes
Energy Functional:           (PPS+OSS)/2
Number of Core Orbitals:                  5
Number of Active Orbitals:                2
Number of Basis:                         12
Number of States:                         2
State-Averaging Weight:          0.500000
                                 0.500000
State of Interest:                        2
Initial Guess:               Diagonalize H0 matrix
Newton-Raphson for FON opt:  Yes
NR max. Iterations:                      50
Level Shifting:              Yes
Shift Value:                     0.300000
W Scale Factor:              C  =    3.000000
                             N  =    3.000000
                             H  =    3.000000
Transition Dipole:           No
Gradient of Microstate:      No
CP-REKS Solver:              Preconditioned Conjugate-Gradient
CG max. Iterations:                     100
CG Tolerance:                  0.100000E-07
Memory for A and Hxc:        Direct Updating Without Saving
Non-Adiabatic Coupling:      Yes

--------------------------------------------------------------------------------

***  Geometry step: 0

  iSCC       reks energy        Diff energy         x_a       SCC error   
    1       -6.2450144698       0.0000000000     0.996170    1.11201154
    2       -6.2636923601      -0.0186778903     0.999490    0.11902851
    3       -6.2698737095      -0.0061813495     0.999908    0.07151199
    4       -6.2720250563      -0.0021513467     0.999975    0.03621029
    5       -6.2727340752      -0.0007090189     0.999990    0.01634826
    6       -6.2729714418      -0.0002373666     0.999994    0.00790420
    7       -6.2730587750      -0.0000873332     0.999995    0.00368821
    8       -6.2730952054      -0.0000364304     0.999996    0.00221200
    9       -6.2731122629      -0.0000170575     0.999996    0.00152328
   10       -6.2731210095      -0.0000087466     0.999997    0.00107611
   11       -6.2731258147      -0.0000048053     0.999997    0.00077651
   12       -6.2731286042      -0.0000027895     0.999997    0.00057117
   13       -6.2731303048      -0.0000017006     0.999997    0.00042824
   14       -6.2731313935      -0.0000010887     0.999997    0.00032761
   15       -6.2731321281      -0.0000007346     0.999997    0.00025612
   16       -6.2731326528      -0.0000005247     0.999997    0.00020490
   17       -6.2731330504      -0.0000003976     0.999997    0.00017887
   18       -6.2731333693      -0.0000003189     0.999997    0.00018061
   19       -6.2731336383      -0.0000002689     0.999997    0.00018081
   20       -6.2731338744      -0.0000002361     0.999997    0.00018006
   21       -6.2731340881      -0.0000002137     0.999997    0.00017873
   22       -6.2731342858      -0.0000001977     0.999997    0.00017700
   23       -6.2731344714      -0.0000001856     0.999997    0.00017503
   24       -6.2731346475      -0.0000001761     0.999997    0.00017290
   25       -6.2731348156      -0.0000001681     0.999997    0.00017067
   26       -6.2731349769      -0.0000001613     0.999997    0.00016837
   27       -6.2731351320      -0.0000001551     0.999997    0.00016603
   28       -6.2731352815      -0.0000001495     0.999997    0.00016369
   29       -6.2731354258      -0.0000001443     0.999997    0.00016134
   30       -6.2731355652      -0.0000001394     0.999997    0.00015901
   31       -6.2731356999      -0.0000001347     0.999997    0.00015670
   32       -6.2731358303      -0.0000001303     0.999997    0.00015441
   33       -6.2731359564      -0.0000001261     0.999997    0.00015216
   34       -6.2731360785      -0.0000001221     0.999997    0.00014994
   35       -6.2731361967      -0.0000001183     0.999997    0.00014776
   36       -6.2731363113      -0.0000001146     0.999997    0.00014561
   37       -6.2731364223      -0.0000001110     0.999997    0.00014351
   38       -6.2731365299      -0.0000001076     0.999997    0.00014144
   39       -6.2731366342      -0.0000001043     0.999997    0.00013942
   40       -6.2731367354      -0.0000001012     0.999997    0.00013744
   41       -6.2731368336      -0.0000000981     0.999997    0.00013549
   42       -6.2731369288      -0.0000000952     0.999997    0.00013359
   43       -6.2731370212      -0.0000000924     0.999997    0.00013172
   44       -6.2731371110      -0.0000000897     0.999997    0.00012989
   45       -6.2731371981      -0.0000000871     0.999996    0.00012811
   46       -6.2731372827      -0.0000000846     0.999996    0.00012635
   47       -6.2731373649      -0.0000000822     0.999996    0.00012464
   48       -6.2731374448      -0.0000000799     0.999996    0.00012296
   49       -6.2731375225      -0.0000000777     0.999996    0.00012131
   50       -6.2731375980      -0.0000000755     0.999996    0.00011970
   51       -6.2731376714      -0.0000000734     0.999996    0.00011812
   52       -6.2731377428      -0.0000000714     0.999996    0.00011657
   53       -6.2731378122      -0.0000000695     0.999996    0.00011505
   54       -6.2731378798      -0.0000000676     0.999996    0.00011357
   55       -6.2731379456      -0.0000000658     0.999996    0.00011211
   56       -6.2731380096      -0.0000000640     0.999996    0.00011068
   57       -6.2731380720      -0.0000000623     0.999996    0.00010928
   58       -6.2731381327      -0.0000000607     0.999996    0.00010791
   59       -6.2731381918      -0.0000000591     0.999996    0.00010657
   60       -6.2731382494      -0.0000000576     0.999996    0.00010525
   61       -6.2731383055      -0.0000000561     0.999996    0.00010395
   62       -6.2731383602      -0.0000000547     0.999996    0.00010269
   63       -6.2731384135      -0.0000000533     0.999996    0.00010144
   64       -6.2731384655      -0.0000000520     0.999996    0.00010022
   65       -6.2731385162      -0.0000000507     0.999996    0.00009903
   66       -6.2731385657      -0.0000000494     0.999996    0.00009785
   67       -6.2731386139      -0.0000000482     0.999996    0.00009670
   68       -6.2731386610      -0.0000000471     0.999996    0.00009557
   69       -6.2731387069      -0.0000000459     0.999996    0.00009446
   70       -6.2731387517      -0.0000000448     0.999996    0.00009337
   71       -6.2731387955      -0.0000000438     0.999996    0.00009230
   72       -6.2731388382      -0.0000000427     0.999996    0.00009125
   73       -6.2731388800      -0.0000000417     0.999996    0.00009022
   74       -6.2731389207      -0.0000000408     0.999996    0.00008921
   75       -6.2731389605      -0.0000000398     0.999996    0.00008821
   76       -6.2731389994      -0.0000000389     0.999996    0.00008724
   77       -6.2731390374      -0.0000000380     0.999996    0.00008628
   78       -6.2731390746      -0.0000000372     0.999996    0.00008534
   79       -6.2731391109      -0.0000000363     0.999996    0.00008441
   80       -6.2731391464      -0.0000000355     0.999996    0.00008350
   81       -6.2731391811      -0.0000000347     0.999996    0.00008261
   82       -6.2731392151      -0.0000000340     0.999996    0.00008173
   83       -6.2731392483      -0.0000000332     0.999996    0.00008087
   84       -6.2731392808      -0.0000000325     0.999996    0.00008002
   85       -6.2731393126      -0.0000000318     0.999996    0.00007918
   86       -6.2731393437      -0.0000000311     0.999996    0.00007836
   87       -6.2731393741      -0.0000000304     0.999996    0.00007756
   88       -6.2731394039      -0.0000000298     0.999996    0.00007677
   89       -6.2731394331      -0.0000000292     0.999996    0.00007599
   90       -6.2731394617      -0.0000000286     0.999996    0.00007522
   91       -6.2731394896      -0.0000000280     0.999996    0.00007447
   92       -6.2731395170      -0.0000000274     0.999996    0.00007372
   93       -6.2731395439      -0.0000000268     0.999996    0.00007300
   94       -6.2731395702      -0.0000000263     0.999996    0.00007228
   95       -6.2731395959      -0.0000000258     0.999996    0.00007157
   96       -6.2731396212      -0.0000000252     0.999996    0.00007088
   97       -6.2731396459      -0.0000000247     0.999996    0.00007020
   98       -6.2731396702      -0.0000000243     0.999996    0.00006952
   99       -6.2731396939      -0.0000000238     0.999996    0.00006886
  100       -6.2731397173      -0.0000000233     0.999996    0.00006821
  101       -6.2731397401      -0.0000000229     0.999996    0.00006757
  102       -6.2731397625      -0.0000000224     0.999996    0.00006694
  103       -6.2731397845      -0.0000000220     0.999996    0.00006632
  104       -6.2731398061      -0.0000000216     0.999996    0.00006571
  105       -6.2731398273      -0.0000000212     0.999996    0.00006510
  106       -6.2731398480      -0.0000000208     0.999996    0.00006451
  107       -6.2731398684      -0.0000000204     0.999996    0.00006393
  108       -6.2731398884      -0.0000000200     0.999996    0.00006335
  109       -6.2731399080      -0.0000000196     0.999996    0.00006279
  110       -6.2731399273      -0.0000000193     0.999996    0.00006223
  111       -6.2731399462      -0.0000000189     0.999996    0.00006168
  112       -6.2731399648      -0.0000000186     0.999996    0.00006114
  113       -6.2731399831      -0.0000000182     0.999996    0.00006061
  114       -6.2731400010      -0.0000000179     0.999996    0.00006008
  115       -6.2731400186      -0.0000000176     0.999996    0.00005956
  116       -6.2731400359      -0.0000000173     0.999996    0.00005905
  117       -6.2731400529      -0.0000000170     0.999996    0.00005855
  118       -6.2731400695      -0.0000000167     0.999996    0.00005806
  119       -6.2731400859      -0.0000000164     0.999996    0.00005757
  120       -6.2731401021      -0.0000000161     0.999996    0.00005709
  121       -6.2731401179      -0.0000000158     0.999996    0.00005661
  122       -6.2731401335      -0.0000000156     0.999996    0.00005615
  123       -6.2731401488      -0.0000000153     0.999996    0.00005569
  124       -6.2731401639      -0.0000000151     0.999996    0.00005523
  125       -6.2731401787      -0.0000000148     0.999996    0.00005479
  126       -6.2731401932      -0.0000000146     0.999996    0.00005434
  127       -6.2731402075      -0.0000000143     0.999996    0.00005391
  128       -6.2731402216      -0.0000000141     0.999996    0.00005348
  129       -6.2731402355      -0.0000000139     0.999996    0.00005306
  130       -6.2731402491      -0.0000000136     0.999996    0.00005264
  131       -6.2731402625      -0.0000000134     0.999996    0.00005223
  132       -6.2731402757      -0.0000000132     0.999996    0.00005182
  133       -6.2731402887      -0.0000000130     0.999996    0.00005142
  134       -6.2731403015      -0.0000000128     0.999996    0.00005103
  135       -6.2731403141      -0.0000000126     0.999996    0.00005064
  136       -6.2731403265      -0.0000000124     0.999996    0.00005026
  137       -6.2731403387      -0.0000000122     0.999996    0.00004988
  138       -6.2731403507      -0.0000000120     0.999996    0.00004950
  139       -6.2731403625      -0.0000000118     0.999996    0.00004914
  140       -6.2731403741      -0.0000000116     0.999996    0.00004877
  141       -6.2731403856      -0.0000000115     0.999996    0.00004841
  142       -6.2731403969      -0.0000000113     0.999996    0.00004806
  143       -6.2731404080      -0.0000000111     0.999996    0.00004771
  144       -6.2731404190      -0.0000000110     0.999996    0.00004736
  145       -6.2731404298      -0.0000000108     0.999996    0.00004702
  146       -6.2731404404      -0.0000000106     0.999996    0.00004669
  147       -6.2731404509      -0.0000000105     0.999996    0.00004636
  148       -6.2731404612      -0.0000000103     0.999996    0.00004603
  149       -6.2731404714      -0.0000000102     0.999996    0.00004571
  150       -6.2731404814      -0.0000000100     0.999996    0.00004539
  151       -6.2731404913      -0.0000000099     0.999996    0.00004507
  152       -6.2731405011      -0.0000000098     0.999996    0.00004476
  153       -6.2731405107      -0.0000000096     0.999996    0.00004445
  154       -6.2731405202      -0.0000000095     0.999996    0.00004415
  155       -6.2731405295      -0.0000000093     0.999996    0.00004385
  156       -6.2731405387      -0.0000000092     0.999996    0.00004356
  157       -6.2731405478      -0.0000000091     0.999996    0.00004327
  158       -6.2731405568      -0.0000000090     0.999996    0.00004298
  159       -6.2731405657      -0.0000000088     0.999996    0.00004269
  160       -6.2731405744      -0.0000000087     0.999996    0.00004241
  161       -6.2731405830      -0.0000000086     0.999996    0.00004213
  162       -6.2731405915      -0.0000000085     0.999996    0.00004186
  163       -6.2731405999      -0.0000000084     0.999996    0.00004159
  164       -6.2731406081      -0.0000000083     0.999996    0.00004132
  165       -6.2731406163      -0.0000000082     0.999996    0.00004106
  166       -6.2731406244      -0.0000000081     0.999996    0.00004080
  167       -6.2731406323      -0.0000000080     0.999996    0.00004054
  168       -6.2731406401      -0.0000000078     0.999996    0.00004029
  169       -6.2731406479      -0.0000000077     0.999996    0.00004003
  170       -6.2731406555      -0.0000000076     0.999996    0.00003979
  171       -6.2731406631      -0.0000000076     0.999996    0.00003954
  172       -6.2731406706      -0.0000000075     0.999996    0.00003930
  173       -6.2731406779      -0.0000000074     0.999996    0.00003906
  174       -6.2731406852      -0.0000000073     0.999996    0.00003882
  175       -6.2731406924      -0.0000000072     0.999996    0.00003859
  176       -6.2731406995      -0.0000000071     0.999996    0.00003836
  177       -6.2731407065      -0.0000000070     0.999996    0.00003813
  178       -6.2731407134      -0.0000000069     0.999996    0.00003790
  179       -6.2731407202      -0.0000000068     0.999996    0.00003768
  180       -6.2731407270      -0.0000000068     0.999996    0.00003746
  181       -6.2731407337      -0.0000000067     0.999996    0.00003724
  182       -6.2731407403      -0.0000000066     0.999996    0.00003703
  183       -6.2731407468      -0.0000000065     0.999996    0.00003681
  184       -6.2731407532      -0.0000000064     0.999996    0.00003660
  185       -6.2731407596      -0.0000000064     0.999996    0.00003639
  186       -6.2731407659      -0.0000000063     0.999996    0.00003619
  187       -6.2731407721      -0.0000000062     0.999996    0.00003599
  188       -6.2731407782      -0.0000000061     0.999996    0.00003578
  189       -6.2731407843      -0.0000000061     0.999996    0.00003559
  190       -6.2731407903      -0.0000000060     0.999996    0.00003539
  191       -6.2731407963      -0.0000000059     0.999996    0.00003520
  192       -6.2731408021      -0.0000000059     0.999996    0.00003500
  193       -6.2731408079      -0.0000000058     0.999996    0.00003481
  194       -6.2731408137      -0.0000000057     0.999996    0.00003463
  195       -6.2731408194      -0.0000000057     0.999996    0.00003444
  196       -6.2731408250      -0.0000000056     0.999996    0.00003426
  197       -6.2731408306      -0.0000000056     0.999996    0.00003408
  198       -6.2731408361      -0.0000000055     0.999996    0.00003390
  199       -6.2731408415      -0.0000000054     0.999996    0.00003372
  200       -6.2731408469      -0.0000000054     0.999996    0.00003354
  201       -6.2731408522      -0.0000000053     0.999996    0.00003337
  202       -6.2731408575      -0.0000000053     0.999996    0.00003320
  203       -6.2731408627      -0.0000000052     0.999996    0.00003303
  204       -6.2731408678      -0.0000000052     0.999996    0.00003286
  205       -6.2731408729      -0.0000000051     0.999996    0.00003270
  206       -6.2731408780      -0.0000000051     0.999996    0.00003253
  207       -6.2731408830      -0.0000000050     0.999996    0.00003237
  208       -6.2731408879      -0.0000000049     0.999996    0.00003221
  209       -6.2731408928      -0.0000000049     0.999996    0.00003205
  210       -6.2731408977      -0.0000000048     0.999996    0.00003189
  211       -6.2731409025      -0.0000000048     0.999996    0.00003174
  212       -6.2731409072      -0.0000000048     0.999996    0.00003158
  213       -6.2731409120      -0.0000000047     0.999996    0.00003143
  214       -6.2731409166      -0.0000000047     0.999996    0.00003128
  215       -6.2731409212      -0.0000000046     0.999996    0.00003113
  216       -6.2731409258      -0.0000000046     0.999996    0.00003099
  217       -6.2731409303      -0.0000000045     0.999996    0.00003084
  218       -6.2731409348      -0.0000000045     0.999996    0.00003070
  219       -6.2731409392      -0.0000000044     0.999996    0.00003055
  220       -6.2731409436      -0.0000000044     0.999996    0.00003041
  221       -6.2731409480      -0.0000000044     0.999996    0.00003027
  222       -6.2731409523      -0.0000000043     0.999996    0.00003014
  223       -6.2731409566      -0.0000000043     0.999996    0.00003000
  224       -6.2731409608      -0.0000000042     0.999996    0.00002987
  225       -6.2731409650      -0.0000000042     0.999996    0.00002973
  226       -6.2731409692      -0.0000000042     0.999996    0.00002960
  227       -6.2731409733      -0.0000000041     0.999996    0.00002947
  228       -6.2731409774      -0.0000000041     0.999996    0.00002934
  229       -6.2731409814      -0.0000000040     0.999996    0.00002921
  230       -6.2731409854      -0.0000000040     0.999996    0.00002909
  231       -6.2731409894      -0.0000000040     0.999996    0.00002896
  232       -6.2731409934      -0.0000000039     0.999996    0.00002884
  233       -6.2731409973      -0.0000000039     0.999996    0.00002871
  234       -6.2731410011      -0.0000000039     0.999996    0.00002859
  235       -6.2731410050      -0.0000000038     0.999996    0.00002847
  236       -6.2731410088      -0.0000000038     0.999996    0.00002835
  237       -6.2731410126      -0.0000000038     0.999996    0.00002824
  238       -6.2731410163      -0.0000000037     0.999996    0.00002812
  239       -6.2731410200      -0.0000000037     0.999996    0.00002800
  240       -6.2731410237      -0.0000000037     0.999996    0.00002789
  241       -6.2731410273      -0.0000000036     0.999996    0.00002778
  242       -6.2731410310      -0.0000000036     0.999996    0.00002767
  243       -6.2731410345      -0.0000000036     0.999996    0.00002756
  244       -6.2731410381      -0.0000000036     0.999996    0.00002745
  245       -6.2731410416      -0.0000000035     0.999996    0.00002734
  246       -6.2731410451      -0.0000000035     0.999996    0.00002723
  247       -6.2731410486      -0.0000000035     0.999996    0.00002712
  248       -6.2731410521      -0.0000000034     0.999996    0.00002702
  249       -6.2731410555      -0.0000000034     0.999996    0.00002692
  250       -6.2731410589      -0.0000000034     0.999996    0.00002681
  251       -6.2731410622      -0.0000000034     0.999996    0.00002671
  252       -6.2731410656      -0.0000000033     0.999996    0.00002661
  253       -6.2731410689      -0.0000000033     0.999996    0.00002651
  254       -6.2731410722      -0.0000000033     0.999996    0.00002641
  255       -6.2731410754      -0.0000000033     0.999996    0.00002632
  256       -6.2731410787      -0.0000000032     0.999996    0.00002622
  257       -6.2731410819      -0.0000000032     0.999996    0.00002612
  258       -6.2731410851      -0.0000000032     0.999996    0.00002603
  259       -6.2731410882      -0.0000000032     0.999996    0.00002594
  260       -6.2731410914      -0.0000000031     0.999996    0.00002584
  261       -6.2731410945      -0.0000000031     0.999996    0.00002575
  262       -6.2731410976      -0.0000000031     0.999996    0.00002566
  263       -6.2731411007      -0.0000000031     0.999996    0.00002557
  264       -6.2731411037      -0.0000000031     0.999996    0.00002548
  265       -6.2731411068      -0.0000000030     0.999996    0.00002539
  266       -6.2731411098      -0.0000000030     0.999996    0.00002531
  267       -6.2731411128      -0.0000000030     0.999996    0.00002522
  268       -6.2731411157      -0.0000000030     0.999996    0.00002514
  269       -6.2731411187      -0.0000000029     0.999996    0.00002505
  270       -6.2731411216      -0.0000000029     0.999996    0.00002497
  271       -6.2731411245      -0.0000000029     0.999996    0.00002489
  272       -6.2731411274      -0.0000000029     0.999996    0.00002480
  273       -6.2731411303      -0.0000000029     0.999996    0.00002472
  274       -6.2731411331      -0.0000000028     0.999996    0.00002464
  275       -6.2731411360      -0.0000000028     0.999996    0.00002456
  276       -6.2731411388      -0.0000000028     0.999996    0.00002448
  277       -6.2731411416      -0.0000000028     0.999996    0.00002441
  278       -6.2731411443      -0.0000000028     0.999996    0.00002433
  279       -6.2731411471      -0.0000000028     0.999996    0.00002425
  280       -6.2731411498      -0.0000000027     0.999996    0.00002418
  281       -6.2731411525      -0.0000000027     0.999996    0.00002410
  282       -6.2731411553      -0.0000000027     0.999996    0.00002403
  283       -6.2731411579      -0.0000000027     0.999996    0.00002396
  284       -6.2731411606      -0.0000000027     0.999996    0.00002389
  285       -6.2731411633      -0.0000000027     0.999996    0.00002381
  286       -6.2731411659      -0.0000000026     0.999996    0.00002374
  287       -6.2731411685      -0.0000000026     0.999996    0.00002367
  288       -6.2731411711      -0.0000000026     0.999996    0.00002360
  289       -6.2731411737      -0.0000000026     0.999996    0.00002354
  290       -6.2731411763      -0.0000000026     0.999996    0.00002347
  291       -6.2731411789      -0.0000000026     0.999996    0.00002340
  292       -6.2731411814      -0.0000000025     0.999996    0.00002334
  293       -6.2731411839      -0.0000000025     0.999996    0.00002327
  294       -6.2731411865      -0.0000000025     0.999996    0.00002320
  295       -6.2731411890      -0.0000000025     0.999996    0.00002314
  296       -6.2731411914      -0.0000000025     0.999996    0.00002308
  297       -6.2731411939      -0.0000000025     0.999996    0.00002301
  298       -6.2731411964      -0.0000000025     0.999996    0.00002295
  299       -6.2731411988      -0.0000000024     0.999996    0.00002289
  300       -6.2731412013      -0.0000000024     0.999996    0.00002283
  301       -6.2731412037      -0.0000000024     0.999996    0.00002277
  302       -6.2731412061      -0.0000000024     0.999995    0.00002271
  303       -6.2731412085      -0.0000000024     0.999995    0.00002265
  304       -6.2731412108      -0.0000000024     0.999995    0.00002259
  305       -6.2731412132      -0.0000000024     0.999995    0.00002253
  306       -6.2731412156      -0.0000000024     0.999995    0.00002248
  307       -6.2731412179      -0.0000000023     0.999995    0.00002242
  308       -6.2731412202      -0.0000000023     0.999995    0.00002236
  309       -6.2731412226      -0.0000000023     0.999995    0.00002231
  310       -6.2731412249      -0.0000000023     0.999995    0.00002225
  311       -6.2731412272      -0.0000000023     0.999995    0.00002220
  312       -6.2731412294      -0.0000000023     0.999995    0.00002215
  313       -6.2731412317      -0.0000000023     0.999995    0.00002209
  314       -6.2731412340      -0.0000000023     0.999995    0.00002204
  315       -6.2731412362      -0.0000000023     0.999995    0.00002199
  316       -6.2731412385      -0.0000000022     0.999995    0.00002194
  317       -6.2731412407      -0.0000000022     0.999995    0.00002189
  318       -6.2731412429      -0.0000000022     0.999995    0.00002184
  319       -6.2731412451      -0.0000000022     0.999995    0.00002179
  320       -6.2731412473      -0.0000000022     0.999995    0.00002174
  321       -6.2731412495      -0.0000000022     0.999995    0.00002169
  322       -6.2731412517      -0.0000000022     0.999995    0.00002164
  323       -6.2731412539      -0.0000000022     0.999995    0.00002160
  324       -6.2731412560      -0.0000000022     0.999995    0.00002155
  325       -6.2731412582      -0.0000000021     0.999995    0.00002150
  326       -6.2731412603      -0.0000000021     0.999995    0.00002146
  327       -6.2731412624      -0.0000000021     0.999995    0.00002141
  328       -6.2731412645      -0.0000000021     0.999995    0.00002137
  329       -6.2731412667      -0.0000000021     0.999995    0.00002132
  330       -6.2731412688      -0.0000000021     0.999995    0.00002128
  331       -6.2731412709      -0.0000000021     0.999995    0.00002124
  332       -6.2731412729      -0.0000000021     0.999995    0.00002120
  333       -6.2731412750      -0.0000000021     0.999995    0.00002115
  334       -6.2731412771      -0.0000000021     0.999995    0.00002111
  335       -6.2731412791      -0.0000000021     0.999995    0.00002107
  336       -6.2731412812      -0.0000000021     0.999995    0.00002103
  337       -6.2731412832      -0.0000000020     0.999995    0.00002099
  338       -6.2731412853      -0.0000000020     0.999995    0.00002095
  339       -6.2731412873      -0.0000000020     0.999995    0.00002091
  340       -6.2731412893      -0.0000000020     0.999995    0.00002087
  341       -6.2731412913      -0.0000000020     0.999995    0.00002084
  342       -6.2731412933      -0.0000000020     0.999995    0.00002080
  343       -6.2731412953      -0.0000000020     0.999995    0.00002076
  344       -6.2731412973      -0.0000000020     0.999995    0.00002072
  345       -6.2731412993      -0.0000000020     0.999995    0.00002069
  346       -6.2731413013      -0.0000000020     0.999995    0.00002065
  347       -6.2731413032      -0.0000000020     0.999995    0.00002062
  348       -6.2731413052      -0.0000000020     0.999995    0.00002058
  349       -6.2731413071      -0.0000000020     0.999995    0.00002055
  350       -6.2731413091      -0.0000000019     0.999995    0.00002052
  351       -6.2731413110      -0.0000000019     0.999995    0.00002048
  352       -6.2731413130      -0.0000000019     0.999995    0.00002045
  353       -6.2731413149      -0.0000000019     0.999995    0.00002042
  354       -6.2731413168      -0.0000000019     0.999995    0.00002038
  355       -6.2731413187      -0.0000000019     0.999995    0.00002035
  356       -6.2731413206      -0.0000000019     0.999995    0.00002032
  357       -6.2731413225      -0.0000000019     0.999995    0.00002029
  358       -6.2731413244      -0.0000000019     0.999995    0.00002026
  359       -6.2731413263      -0.0000000019     0.999995    0.00002023
  360       -6.2731413282      -0.0000000019     0.999995    0.00002020
  361       -6.2731413301      -0.0000000019     0.999995    0.00002017
  362       -6.2731413319      -0.0000000019     0.999995    0.00002014
  363       -6.2731413338      -0.0000000019     0.999995    0.00002012
  364       -6.2731413357      -0.0000000019     0.999995    0.00002009
  365       -6.2731413375      -0.0000000019     0.999995    0.00002006
  366       -6.2731413394      -0.0000000019     0.999995    0.00002003
  367       -6.2731413412      -0.0000000018     0.999995    0.00002001
  368       -6.2731413431      -0.0000000018     0.999995    0.00001998
  369       -6.2731413449      -0.0000000018     0.999995    0.00001996
  370       -6.2731413467      -0.0000000018     0.999995    0.00001993
  371       -6.2731413486      -0.0000000018     0.999995    0.00001991
  372       -6.2731413504      -0.0000000018     0.999995    0.00001988
  373       -6.2731413522      -0.0000000018     0.999995    0.00001986
  374       -6.2731413540      -0.0000000018     0.999995    0.00001983
  375       -6.2731413558      -0.0000000018     0.999995    0.00001981
  376       -6.2731413576      -0.0000000018     0.999995    0.00001979
  377       -6.2731413594      -0.0000000018     0.999995    0.00001977
  378       -6.2731413612      -0.0000000018     0.999995    0.00001974
  379       -6.2731413630      -0.0000000018     0.999995    0.00001972
  380       -6.2731413648      -0.0000000018     0.999995    0.00001970
  381       -6.2731413666      -0.0000000018     0.999995    0.00001968
  382       -6.2731413683      -0.0000000018     0.999995    0.00001966
  383       -6.2731413701      -0.0000000018     0.999995    0.00001964
  384       -6.2731413719      -0.0000000018     0.999995    0.00001962
  385       -6.2731413737      -0.0000000018     0.999995    0.00001960
  386       -6.2731413754      -0.0000000018     0.999995    0.00001958
  387       -6.2731413772      -0.0000000018     0.999995    0.00001956
  388       -6.2731413789      -0.0000000018     0.999995    0.00001954
  389       -6.2731413807      -0.0000000018     0.999995    0.00001953
  390       -6.2731413824      -0.0000000017     0.999995    0.00001951
  391       -6.2731413842      -0.0000000017     0.999995    0.00001949
  392       -6.2731413859      -0.0000000017     0.999995    0.00001948
  393       -6.2731413877      -0.0000000017     0.999995    0.00001946
  394       -6.2731413894      -0.0000000017     0.999995    0.00001944
  395       -6.2731413911      -0.0000000017     0.999995    0.00001943
  396       -6.2731413928      -0.0000000017     0.999995    0.00001941
  397       -6.2731413946      -0.0000000017     0.999995    0.00001940
  398       -6.2731413963      -0.0000000017     0.999995    0.00001938
  399       -6.2731413980      -0.0000000017     0.999995    0.00001937
  400       -6.2731413997      -0.0000000017     0.999995    0.00001936
  401       -6.2731414015      -0.0000000017     0.999995    0.00001934
  402       -6.2731414032      -0.0000000017     0.999995    0.00001933
  403       -6.2731414049      -0.0000000017     0.999995    0.00001932
  404       -6.2731414066      -0.0000000017     0.999995    0.00001931
  405       -6.2731414083      -0.0000000017     0.999995    0.00001929
  406       -6.2731414100      -0.0000000017     0.999995    0.00001928
  407       -6.2731414117      -0.0000000017     0.999995    0.00001927
  408       -6.2731414134      -0.0000000017     0.999995    0.00001926
  409       -6.2731414151      -0.0000000017     0.999995    0.00001925
  410       -6.2731414168      -0.0000000017     0.999995    0.00001924
  411       -6.2731414185      -0.0000000017     0.999995    0.00001923
  412       -6.2731414202      -0.0000000017     0.999995    0.00001922
  413       -6.2731414219      -0.0000000017     0.999995    0.00001921
  414       -6.2731414235      -0.0000000017     0.999995    0.00001920
  415       -6.2731414252      -0.0000000017     0.999995    0.00001920
  416       -6.2731414269      -0.0000000017     0.999995    0.00001919
  417       -6.2731414286      -0.0000000017     0.999995    0.00001918
  418       -6.2731414303      -0.0000000017     0.999995    0.00001917
  419       -6.2731414320      -0.0000000017     0.999995    0.00001917
  420       -6.2731414336      -0.0000000017     0.999995    0.00001916
  421       -6.2731414353      -0.0000000017     0.999995    0.00001915
  422       -6.2731414370      -0.0000000017     0.999995    0.00001915
  423       -6.2731414387      -0.0000000017     0.999995    0.00001914
  424       -6.2731414403      -0.0000000017     0.999995    0.00001914
  425       -6.2731414420      -0.0000000017     0.999995    0.00001913
  426       -6.2731414437      -0.0000000017     0.999995    0.00001913
  427       -6.2731414454      -0.0000000017     0.999995    0.00001912
  428       -6.2731414470      -0.0000000017     0.999995    0.00001912
  429       -6.2731414487      -0.0000000017     0.999995    0.00001912
  430       -6.2731414504      -0.0000000017     0.999995    0.00001911
  431       -6.2731414520      -0.0000000017     0.999995    0.00001911
  432       -6.2731414537      -0.0000000017     0.999995    0.00001911
  433       -6.2731414554      -0.0000000017     0.999995    0.00001911
  434       -6.2731414570      -0.0000000017     0.999995    0.00001911
  435       -6.2731414587      -0.0000000017     0.999995    0.00001910
  436       -6.2731414603      -0.0000000017     0.999995    0.00001910
  437       -6.2731414620      -0.0000000017     0.999995    0.00001910
  438       -6.2731414637      -0.0000000017     0.999995    0.00001910
  439       -6.2731414653      -0.0000000017     0.999995    0.00001910
  440       -6.2731414670      -0.0000000017     0.999995    0.00001910
  441       -6.2731414687      -0.0000000017     0.999995    0.00001910
  442       -6.2731414703      -0.0000000017     0.999995    0.00001911
  443       -6.2731414720      -0.0000000017     0.999995    0.00001911
  444       -6.2731414737      -0.0000000017     0.999995    0.00001911
  445       -6.2731414753      -0.0000000017     0.999995    0.00001911
  446       -6.2731414770      -0.0000000017     0.999995    0.00001911
  447       -6.2731414786      -0.0000000017     0.999995    0.00001912
  448       -6.2731414803      -0.0000000017     0.999995    0.00001912
  449       -6.2731414820      -0.0000000017     0.999995    0.00001912
  450       -6.2731414836      -0.0000000017     0.999995    0.00001913
  451       -6.2731414853      -0.0000000017     0.999995    0.00001913
  452       -6.2731414870      -0.0000000017     0.999995    0.00001914
  453       -6.2731414886      -0.0000000017     0.999995    0.00001914
  454       -6.2731414903      -0.0000000017     0.999995    0.00001915
  455       -6.2731414920      -0.0000000017     0.999995    0.00001915
  456       -6.2731414936      -0.0000000017     0.999995    0.00001916
  457       -6.2731414953      -0.0000000017     0.999995    0.00001916
  458       -6.2731414970      -0.0000000017     0.999995    0.00001917
  459       -6.2731414986      -0.0000000017     0.999995    0.00001918
  460       -6.2731415003      -0.0000000017     0.999995    0.00001919
  461       -6.2731415020      -0.0000000017     0.999995    0.00001919
  462       -6.2731415037      -0.0000000017     0.999995    0.00001920
  463       -6.2731415053      -0.0000000017     0.999995    0.00001921
  464       -6.2731415070      -0.0000000017     0.999995    0.00001922
  465       -6.2731415087      -0.0000000017     0.999995    0.00001923
  466       -6.2731415104      -0.0000000017     0.999995    0.00001924
  467       -6.2731415121      -0.0000000017     0.999995    0.00001925
  468       -6.2731415137      -0.0000000017     0.999995    0.00001926
  469       -6.2731415154      -0.0000000017     0.999995    0.00001927
  470       -6.2731415171      -0.0000000017     0.999995    0.00001928
  471       -6.2731415188      -0.0000000017     0.999995    0.00001929
  472       -6.2731415205      -0.0000000017     0.999995    0.00001930
  473       -6.2731415222      -0.0000000017     0.999995    0.00001932
  474       -6.2731415239      -0.0000000017     0.999995    0.00001933
  475       -6.2731415256      -0.0000000017     0.999995    0.00001934
  476       -6.2731415273      -0.0000000017     0.999995    0.00001936
  477       -6.2731415290      -0.0000000017     0.999995    0.00001937
  478       -6.2731415307      -0.0000000017     0.999995    0.00001938
  479       -6.2731415324      -0.0000000017     0.999995    0.00001940
  480       -6.2731415341      -0.0000000017     0.999995    0.00001941
  481       -6.2731415358      -0.0000000017     0.999995    0.00001943
  482       -6.2731415375      -0.0000000017     0.999995    0.00001944
  483       -6.2731415392      -0.0000000017     0.999995    0.00001946
  484       -6.2731415409      -0.0000000017     0.999995    0.00001947
  485       -6.2731415427      -0.0000000017     0.999995    0.00001949
  486       -6.2731415444      -0.0000000017     0.999995    0.00001951
  487       -6.2731415461      -0.0000000017     0.999995    0.00001953
  488       -6.2731415478      -0.0000000017     0.999995    0.00001954
  489       -6.2731415496      -0.0000000017     0.999995    0.00001956
  490       -6.2731415513      -0.0000000017     0.999995    0.00001958
  491       -6.2731415530      -0.0000000017     0.999995    0.00001960
  492       -6.2731415548      -0.0000000017     0.999995    0.00001962
  493       -6.2731415565      -0.0000000017     0.999995    0.00001964
  494       -6.2731415583      -0.0000000017     0.999995    0.00001966
  495       -6.2731415600      -0.0000000017     0.999995    0.00001968
  496       -6.2731415618      -0.0000000018     0.999995    0.00001970
  497       -6.2731415635      -0.0000000018     0.999995    0.00001972
  498       -6.2731415653      -0.0000000018     0.999995    0.00001974
  499       -6.2731415671      -0.0000000018     0.999995    0.00001976
  500       -6.2731415688      -0.0000000018     0.999995    0.00001979
  501       -6.2731415706      -0.0000000018     0.999995    0.00001981
  502       -6.2731415724      -0.0000000018     0.999995    0.00001983
  503       -6.2731415741      -0.0000000018     0.999995    0.00001986
  504       -6.2731415759      -0.0000000018     0.999995    0.00001988
  505       -6.2731415777      -0.0000000018     0.999995    0.00001990
  506       -6.2731415795      -0.0000000018     0.999995    0.00001993
  507       -6.2731415813      -0.0000000018     0.999995    0.00001996
  508       -6.2731415831      -0.0000000018     0.999995    0.00001998
  509       -6.2731415849      -0.0000000018     0.999995    0.00002001
  510       -6.2731415867      -0.0000000018     0.999995    0.00002003
  511       -6.2731415885      -0.0000000018     0.999995    0.00002006
  512       -6.2731415904      -0.0000000018     0.999995    0.00002009
  513       -6.2731415922      -0.0000000018     0.999995    0.00002012
  514       -6.2731415940      -0.0000000018     0.999995    0.00002014
  515       -6.2731415958      -0.0000000018     0.999995    0.00002017
  516       -6.2731415977      -0.0000000018     0.999995    0.00002020
  517       -6.2731415995      -0.0000000018     0.999995    0.00002023
  518       -6.2731416014      -0.0000000018     0.999995    0.00002026
  519       -6.2731416032      -0.0000000019     0.999995    0.00002029
  520       -6.2731416051      -0.0000000019     0.999995    0.00002032
  521       -6.2731416069      -0.0000000019     0.999995    0.00002035
  522       -6.2731416088      -0.0000000019     0.999995    0.00002039
  523       -6.2731416107      -0.0000000019     0.999995    0.00002042
  524       -6.2731416126      -0.0000000019     0.999995    0.00002045
  525       -6.2731416145      -0.0000000019     0.999995    0.00002048
  526       -6.2731416164      -0.0000000019     0.999995    0.00002052
  527       -6.2731416182      -0.0000000019     0.999995    0.00002055
  528       -6.2731416202      -0.0000000019     0.999995    0.00002059
  529       -6.2731416221      -0.0000000019     0.999995    0.00002062
  530       -6.2731416240      -0.0000000019     0.999995    0.00002066
  531       -6.2731416259      -0.0000000019     0.999995    0.00002069
  532       -6.2731416278      -0.0000000019     0.999995    0.00002073
  533       -6.2731416298      -0.0000000019     0.999995    0.00002076
  534       -6.2731416317      -0.0000000019     0.999995    0.00002080
  535       -6.2731416337      -0.0000000020     0.999995    0.00002084
  536       -6.2731416356      -0.0000000020     0.999995    0.00002088
  537       -6.2731416376      -0.0000000020     0.999995    0.00002092
  538       -6.2731416396      -0.0000000020     0.999995    0.00002096
  539       -6.2731416415      -0.0000000020     0.999995    0.00002100
  540       -6.2731416435      -0.0000000020     0.999995    0.00002104
  541       -6.2731416455      -0.0000000020     0.999995    0.00002108
  542       -6.2731416475      -0.0000000020     0.999995    0.00002112
  543       -6.2731416495      -0.0000000020     0.999995    0.00002116
  544       -6.2731416515      -0.0000000020     0.999995    0.00002120
  545       -6.2731416536      -0.0000000020     0.999995    0.00002124
  546       -6.2731416556      -0.0000000020     0.999995    0.00002129
  547       -6.2731416576      -0.0000000020     0.999995    0.00002133
  548       -6.2731416597      -0.0000000020     0.999995    0.00002138
  549       -6.2731416617      -0.0000000021     0.999995    0.00002142
  550       -6.2731416638      -0.0000000021     0.999995    0.00002147
  551       -6.2731416659      -0.0000000021     0.999995    0.00002151
  552       -6.2731416680      -0.0000000021     0.999995    0.00002156
  553       -6.2731416700      -0.0000000021     0.999995    0.00002161
  554       -6.2731416721      -0.0000000021     0.999995    0.00002165
  555       -6.2731416743      -0.0000000021     0.999995    0.00002170
  556       -6.2731416764      -0.0000000021     0.999995    0.00002175
  557       -6.2731416785      -0.0000000021     0.999995    0.00002180
  558       -6.2731416806      -0.0000000021     0.999995    0.00002185
  559       -6.2731416828      -0.0000000021     0.999995    0.00002190
  560       -6.2731416849      -0.0000000022     0.999995    0.00002195
  561       -6.2731416871      -0.0000000022     0.999995    0.00002200
  562       -6.2731416893      -0.0000000022     0.999995    0.00002206
  563       -6.2731416915      -0.0000000022     0.999995    0.00002211
  564       -6.2731416937      -0.0000000022     0.999995    0.00002216
  565       -6.2731416959      -0.0000000022     0.999995    0.00002222
  566       -6.2731416981      -0.0000000022     0.999995    0.00002227
  567       -6.2731417003      -0.0000000022     0.999995    0.00002233
  568       -6.2731417025      -0.0000000022     0.999995    0.00002238
  569       -6.2731417048      -0.0000000022     0.999995    0.00002244
  570       -6.2731417070      -0.0000000023     0.999995    0.00002249
  571       -6.2731417093      -0.0000000023     0.999995    0.00002255
  572       -6.2731417116      -0.0000000023     0.999995    0.00002261
  573       -6.2731417139      -0.0000000023     0.999995    0.00002267
  574       -6.2731417162      -0.0000000023     0.999995    0.00002273
  575       -6.2731417185      -0.0000000023     0.999995    0.00002279
  576       -6.2731417208      -0.0000000023     0.999995    0.00002285
  577       -6.2731417232      -0.0000000023     0.999995    0.00002291
  578       -6.2731417255      -0.0000000024     0.999995    0.00002297
  579       -6.2731417279      -0.0000000024     0.999995    0.00002304
  580       -6.2731417303      -0.0000000024     0.999995    0.00002310
  581       -6.2731417327      -0.0000000024     0.999995    0.00002317
  582       -6.2731417351      -0.0000000024     0.999995    0.00002323
  583       -6.2731417375      -0.0000000024     0.999995    0.00002330
  584       -6.2731417399      -0.0000000024     0.999995    0.00002336
  585       -6.2731417424      -0.0000000024     0.999995    0.00002343
  586       -6.2731417448      -0.0000000025     0.999995    0.00002350
  587       -6.2731417473      -0.0000000025     0.999995    0.00002357
  588       -6.2731417498      -0.0000000025     0.999995    0.00002364
  589       -6.2731417523      -0.0000000025     0.999995    0.00002371
  590       -6.2731417548      -0.0000000025     0.999995    0.00002378
  591       -6.2731417573      -0.0000000025     0.999995    0.00002385
  592       -6.2731417599      -0.0000000025     0.999995    0.00002392
  593       -6.2731417624      -0.0000000026     0.999995    0.00002399
  594       -6.2731417650      -0.0000000026     0.999995    0.00002407
  595       -6.2731417676      -0.0000000026     0.999995    0.00002414
  596       -6.2731417702      -0.0000000026     0.999995    0.00002422
  597       -6.2731417728      -0.0000000026     0.999995    0.00002430
  598       -6.2731417755      -0.0000000026     0.999995    0.00002437
  599       -6.2731417781      -0.0000000027     0.999995    0.00002445
  600       -6.2731417808      -0.0000000027     0.999995    0.00002453
  601       -6.2731417835      -0.0000000027     0.999995    0.00002461
  602       -6.2731417862      -0.0000000027     0.999995    0.00002469
  603       -6.2731417889      -0.0000000027     0.999995    0.00002477
  604       -6.2731417917      -0.0000000027     0.999995    0.00002485
  605       -6.2731417944      -0.0000000028     0.999995    0.00002494
  606       -6.2731417972      -0.0000000028     0.999995    0.00002502
  607       -6.2731418000      -0.0000000028     0.999995    0.00002510
  608       -6.2731418028      -0.0000000028     0.999995    0.00002519
  609       -6.2731418056      -0.0000000028     0.999995    0.00002528
  610       -6.2731418085      -0.0000000029     0.999995    0.00002536
  611       -6.2731418114      -0.0000000029     0.999995    0.00002545
  612       -6.2731418143      -0.0000000029     0.999995    0.00002554
  613       -6.2731418172      -0.0000000029     0.999995    0.00002563
  614       -6.2731418201      -0.0000000029     0.999995    0.00002572
  615       -6.2731418231      -0.0000000030     0.999995    0.00002582
  616       -6.2731418260      -0.0000000030     0.999995    0.00002591
  617       -6.2731418290      -0.0000000030     0.999995    0.00002600
  618       -6.2731418320      -0.0000000030     0.999995    0.00002610
  619       -6.2731418351      -0.0000000030     0.999995    0.00002620
  620       -6.2731418381      -0.0000000031     0.999995    0.00002629
  621       -6.2731418412      -0.0000000031     0.999995    0.00002639
  622       -6.2731418443      -0.0000000031     0.999995    0.00002649
  623       -6.2731418474      -0.0000000031     0.999995    0.00002659
  624       -6.2731418506      -0.0000000032     0.999995    0.00002669
  625       -6.2731418538      -0.0000000032     0.999995    0.00002680
  626       -6.2731418570      -0.0000000032     0.999995    0.00002690
  627       -6.2731418602      -0.0000000032     0.999995    0.00002700
  628       -6.2731418634      -0.0000000032     0.999995    0.00002711
  629       -6.2731418667      -0.0000000033     0.999995    0.00002722
  630       -6.2731418700      -0.0000000033     0.999995    0.00002732
  631       -6.2731418733      -0.0000000033     0.999995    0.00002743
  632       -6.2731418767      -0.0000000033     0.999995    0.00002754
  633       -6.2731418801      -0.0000000034     0.999995    0.00002766
  634       -6.2731418835      -0.0000000034     0.999995    0.00002777
  635       -6.2731418869      -0.0000000034     0.999995    0.00002788
  636       -6.2731418903      -0.0000000035     0.999995    0.00002800
  637       -6.2731418938      -0.0000000035     0.999995    0.00002811
  638       -6.2731418973      -0.0000000035     0.999995    0.00002823
  639       -6.2731419009      -0.0000000035     0.999995    0.00002835
  640       -6.2731419045      -0.0000000036     0.999995    0.00002847
  641       -6.2731419081      -0.0000000036     0.999995    0.00002859
  642       -6.2731419117      -0.0000000036     0.999995    0.00002872
  643       -6.2731419154      -0.0000000037     0.999995    0.00002884
  644       -6.2731419191      -0.0000000037     0.999995    0.00002897
  645       -6.2731419228      -0.0000000037     0.999995    0.00002909
  646       -6.2731419265      -0.0000000038     0.999995    0.00002922
  647       -6.2731419303      -0.0000000038     0.999995    0.00002935
  648       -6.2731419342      -0.0000000038     0.999995    0.00002948
  649       -6.2731419380      -0.0000000039     0.999995    0.00002961
  650       -6.2731419419      -0.0000000039     0.999995    0.00002975
  651       -6.2731419458      -0.0000000039     0.999995    0.00002988
  652       -6.2731419498      -0.0000000040     0.999995    0.00003002
  653       -6.2731419538      -0.0000000040     0.999995    0.00003016
  654       -6.2731419578      -0.0000000040     0.999995    0.00003030
  655       -6.2731419619      -0.0000000041     0.999995    0.00003044
  656       -6.2731419660      -0.0000000041     0.999995    0.00003058
  657       -6.2731419702      -0.0000000041     0.999995    0.00003073
  658       -6.2731419743      -0.0000000042     0.999995    0.00003088
  659       -6.2731419786      -0.0000000042     0.999995    0.00003102
  660       -6.2731419828      -0.0000000043     0.999995    0.00003117
  661       -6.2731419871      -0.0000000043     0.999995    0.00003132
  662       -6.2731419915      -0.0000000043     0.999995    0.00003148
  663       -6.2731419959      -0.0000000044     0.999995    0.00003163
  664       -6.2731420003      -0.0000000044     0.999995    0.00003179
  665       -6.2731420048      -0.0000000045     0.999995    0.00003195
  666       -6.2731420093      -0.0000000045     0.999995    0.00003211
  667       -6.2731420139      -0.0000000046     0.999995    0.00003227
  668       -6.2731420185      -0.0000000046     0.999995    0.00003243
  669       -6.2731420231      -0.0000000047     0.999995    0.00003260
  670       -6.2731420278      -0.0000000047     0.999995    0.00003276
  671       -6.2731420326      -0.0000000047     0.999995    0.00003293
  672       -6.2731420374      -0.0000000048     0.999995    0.00003310
  673       -6.2731420422      -0.0000000048     0.999995    0.00003328
  674       -6.2731420471      -0.0000000049     0.999995    0.00003345
  675       -6.2731420520      -0.0000000049     0.999995    0.00003363
  676       -6.2731420570      -0.0000000050     0.999995    0.00003381
  677       -6.2731420621      -0.0000000051     0.999995    0.00003399
  678       -6.2731420672      -0.0000000051     0.999995    0.00003417
  679       -6.2731420724      -0.0000000052     0.999995    0.00003436
  680       -6.2731420776      -0.0000000052     0.999995    0.00003454
  681       -6.2731420828      -0.0000000053     0.999995    0.00003473
  682       -6.2731420882      -0.0000000053     0.999995    0.00003493
  683       -6.2731420935      -0.0000000054     0.999995    0.00003512
  684       -6.2731420990      -0.0000000054     0.999995    0.00003532
  685       -6.2731421045      -0.0000000055     0.999995    0.00003552
  686       -6.2731421101      -0.0000000056     0.999995    0.00003572
  687       -6.2731421157      -0.0000000056     0.999995    0.00003592
  688       -6.2731421214      -0.0000000057     0.999995    0.00003613
  689       -6.2731421271      -0.0000000058     0.999995    0.00003633
  690       -6.2731421329      -0.0000000058     0.999995    0.00003655
  691       -6.2731421388      -0.0000000059     0.999995    0.00003676
  692       -6.2731421448      -0.0000000060     0.999995    0.00003697
  693       -6.2731421508      -0.0000000060     0.999995    0.00003719
  694       -6.2731421569      -0.0000000061     0.999995    0.00003741
  695       -6.2731421631      -0.0000000062     0.999995    0.00003764
  696       -6.2731421693      -0.0000000062     0.999995    0.00003786
  697       -6.2731421756      -0.0000000063     0.999995    0.00003809
  698       -6.2731421820      -0.0000000064     0.999995    0.00003833
  699       -6.2731421885      -0.0000000065     0.999995    0.00003856
  700       -6.2731421950      -0.0000000065     0.999995    0.00003880
  701       -6.2731422016      -0.0000000066     0.999995    0.00003904
  702       -6.2731422083      -0.0000000067     0.999995    0.00003928
  703       -6.2731422151      -0.0000000068     0.999995    0.00003953
  704       -6.2731422220      -0.0000000069     0.999995    0.00003978
  705       -6.2731422290      -0.0000000070     0.999995    0.00004003
  706       -6.2731422360      -0.0000000070     0.999995    0.00004029
  707       -6.2731422431      -0.0000000071     0.999995    0.00004055
  708       -6.2731422504      -0.0000000072     0.999995    0.00004081
  709       -6.2731422577      -0.0000000073     0.999995    0.00004108
  710       -6.2731422651      -0.0000000074     0.999995    0.00004135
  711       -6.2731422726      -0.0000000075     0.999995    0.00004162
  712       -6.2731422802      -0.0000000076     0.999995    0.00004190
  713       -6.2731422879      -0.0000000077     0.999995    0.00004218
  714       -6.2731422957      -0.0000000078     0.999995    0.00004246
  715       -6.2731423036      -0.0000000079     0.999995    0.00004275
  716       -6.2731423116      -0.0000000080     0.999995    0.00004304
  717       -6.2731423197      -0.0000000081     0.999995    0.00004333
  718       -6.2731423280      -0.0000000082     0.999995    0.00004363
  719       -6.2731423363      -0.0000000083     0.999995    0.00004393
  720       -6.2731423448      -0.0000000085     0.999995    0.00004424
  721       -6.2731423534      -0.0000000086     0.999995    0.00004455
  722       -6.2731423621      -0.0000000087     0.999995    0.00004486
  723       -6.2731423709      -0.0000000088     0.999995    0.00004518
  724       -6.2731423798      -0.0000000089     0.999995    0.00004551
  725       -6.2731423889      -0.0000000091     0.999994    0.00004583
  726       -6.2731423981      -0.0000000092     0.999994    0.00004617
  727       -6.2731424074      -0.0000000093     0.999994    0.00004650
  728       -6.2731424169      -0.0000000095     0.999994    0.00004684
  729       -6.2731424264      -0.0000000096     0.999994    0.00004719
  730       -6.2731424362      -0.0000000097     0.999994    0.00004754
  731       -6.2731424461      -0.0000000099     0.999994    0.00004789
  732       -6.2731424561      -0.0000000100     0.999994    0.00004825
  733       -6.2731424663      -0.0000000102     0.999994    0.00004862
  734       -6.2731424766      -0.0000000103     0.999994    0.00004899
  735       -6.2731424871      -0.0000000105     0.999994    0.00004936
  736       -6.2731424977      -0.0000000106     0.999994    0.00004974
  737       -6.2731425085      -0.0000000108     0.999994    0.00005013
  738       -6.2731425195      -0.0000000110     0.999994    0.00005052
  739       -6.2731425306      -0.0000000111     0.999994    0.00005092
  740       -6.2731425419      -0.0000000113     0.999994    0.00005132
  741       -6.2731425534      -0.0000000115     0.999994    0.00005173
  742       -6.2731425651      -0.0000000117     0.999994    0.00005214
  743       -6.2731425769      -0.0000000119     0.999994    0.00005256
  744       -6.2731425890      -0.0000000120     0.999994    0.00005299
  745       -6.2731426012      -0.0000000122     0.999994    0.00005342
  746       -6.2731426136      -0.0000000124     0.999994    0.00005386
  747       -6.2731426263      -0.0000000126     0.999994    0.00005430
  748       -6.2731426391      -0.0000000128     0.999994    0.00005475
  749       -6.2731426522      -0.0000000131     0.999994    0.00005521
  750       -6.2731426654      -0.0000000133     0.999994    0.00005568
  751       -6.2731426789      -0.0000000135     0.999994    0.00005615
  752       -6.2731426926      -0.0000000137     0.999994    0.00005663
  753       -6.2731427066      -0.0000000139     0.999994    0.00005711
  754       -6.2731427208      -0.0000000142     0.999994    0.00005761
  755       -6.2731427352      -0.0000000144     0.999994    0.00005811
  756       -6.2731427499      -0.0000000147     0.999994    0.00005862
  757       -6.2731427648      -0.0000000149     0.999994    0.00005913
  758       -6.2731427800      -0.0000000152     0.999994    0.00005966
  759       -6.2731427954      -0.0000000155     0.999994    0.00006019
  760       -6.2731428112      -0.0000000157     0.999994    0.00006073
  761       -6.2731428272      -0.0000000160     0.999994    0.00006128
  762       -6.2731428435      -0.0000000163     0.999994    0.00006184
  763       -6.2731428601      -0.0000000166     0.999994    0.00006241
  764       -6.2731428769      -0.0000000169     0.999994    0.00006298
  765       -6.2731428941      -0.0000000172     0.999994    0.00006357
  766       -6.2731429117      -0.0000000175     0.999994    0.00006416
  767       -6.2731429295      -0.0000000178     0.999994    0.00006477
  768       -6.2731429477      -0.0000000182     0.999994    0.00006538
  769       -6.2731429662      -0.0000000185     0.999994    0.00006601
  770       -6.2731429850      -0.0000000189     0.999994    0.00006664
  771       -6.2731430043      -0.0000000192     0.999994    0.00006729
  772       -6.2731430238      -0.0000000196     0.999994    0.00006794
  773       -6.2731430438      -0.0000000200     0.999994    0.00006861
  774       -6.2731430642      -0.0000000204     0.999994    0.00006928
  775       -6.2731430849      -0.0000000207     0.999994    0.00006997
  776       -6.2731431061      -0.0000000212     0.999994    0.00007067
  777       -6.2731431276      -0.0000000216     0.999994    0.00007139
  778       -6.2731431496      -0.0000000220     0.999994    0.00007211
  779       -6.2731431721      -0.0000000225     0.999994    0.00007285
  780       -6.2731431950      -0.0000000229     0.999994    0.00007360
  781       -6.2731432184      -0.0000000234     0.999994    0.00007436
  782       -6.2731432422      -0.0000000239     0.999994    0.00007514
  783       -6.2731432666      -0.0000000243     0.999994    0.00007593
  784       -6.2731432914      -0.0000000249     0.999994    0.00007673
  785       -6.2731433168      -0.0000000254     0.999994    0.00007755
  786       -6.2731433427      -0.0000000259     0.999994    0.00007838
  787       -6.2731433692      -0.0000000265     0.999994    0.00007923
  788       -6.2731433962      -0.0000000270     0.999994    0.00008009
  789       -6.2731434238      -0.0000000276     0.999994    0.00008097
  790       -6.2731434520      -0.0000000282     0.999994    0.00008187
  791       -6.2731434808      -0.0000000288     0.999994    0.00008278
  792       -6.2731435103      -0.0000000295     0.999994    0.00008371
  793       -6.2731435404      -0.0000000301     0.999994    0.00008465
  794       -6.2731435712      -0.0000000308     0.999994    0.00008561
  795       -6.2731436026      -0.0000000315     0.999994    0.00008659
  796       -6.2731436348      -0.0000000322     0.999994    0.00008759
  797       -6.2731436678      -0.0000000329     0.999994    0.00008861
  798       -6.2731437015      -0.0000000337     0.999994    0.00008965
  799       -6.2731437359      -0.0000000345     0.999994    0.00009071
  800       -6.2731437712      -0.0000000353     0.999994    0.00009179
  801       -6.2731438073      -0.0000000361     0.999994    0.00009289
  802       -6.2731438443      -0.0000000370     0.999994    0.00009401
  803       -6.2731438821      -0.0000000378     0.999994    0.00009516
  804       -6.2731439209      -0.0000000388     0.999994    0.00009632
  805       -6.2731439606      -0.0000000397     0.999994    0.00009751
  806       -6.2731440013      -0.0000000407     0.999994    0.00009873
  807       -6.2731440429      -0.0000000417     0.999994    0.00009997
  808       -6.2731440856      -0.0000000427     0.999994    0.00010123
  809       -6.2731441294      -0.0000000438     0.999994    0.00010252
  810       -6.2731441743      -0.0000000449     0.999994    0.00010384
  811       -6.2731442204      -0.0000000460     0.999994    0.00010518
  812       -6.2731442676      -0.0000000472     0.999994    0.00010655
  813       -6.2731443160      -0.0000000484     0.999994    0.00010796
  814       -6.2731443657      -0.0000000497     0.999994    0.00010939
  815       -6.2731444167      -0.0000000510     0.999994    0.00011085
  816       -6.2731444690      -0.0000000524     0.999994    0.00011234
  817       -6.2731445228      -0.0000000537     0.999994    0.00011387
  818       -6.2731445780      -0.0000000552     0.999994    0.00011543
  819       -6.2731446347      -0.0000000567     0.999994    0.00011703
  820       -6.2731446929      -0.0000000582     0.999994    0.00011866
  821       -6.2731447528      -0.0000000599     0.999994    0.00012032
  822       -6.2731448143      -0.0000000615     0.999994    0.00012203
  823       -6.2731448776      -0.0000000632     0.999994    0.00012377
  824       -6.2731449426      -0.0000000650     0.999994    0.00012555
  825       -6.2731450095      -0.0000000669     0.999994    0.00012737
  826       -6.2731450783      -0.0000000688     0.999994    0.00012924
  827       -6.2731451491      -0.0000000708     0.999994    0.00013115
  828       -6.2731452220      -0.0000000729     0.999994    0.00013310
  829       -6.2731452971      -0.0000000750     0.999994    0.00013511
  830       -6.2731453743      -0.0000000773     0.999994    0.00013715
  831       -6.2731454539      -0.0000000796     0.999994    0.00013925
  832       -6.2731455360      -0.0000000820     0.999994    0.00014140
  833       -6.2731456205      -0.0000000845     0.999993    0.00014361
  834       -6.2731457076      -0.0000000871     0.999993    0.00014586
  835       -6.2731457975      -0.0000000899     0.999993    0.00014817
  836       -6.2731458902      -0.0000000927     0.999993    0.00015055
  837       -6.2731459858      -0.0000000956     0.999993    0.00015298
  838       -6.2731460845      -0.0000000987     0.999993    0.00015547
  839       -6.2731461864      -0.0000001019     0.999993    0.00015803
  840       -6.2731462916      -0.0000001052     0.999993    0.00016065
  841       -6.2731464003      -0.0000001087     0.999993    0.00016335
  842       -6.2731465125      -0.0000001123     0.999993    0.00016611
  843       -6.2731466286      -0.0000001161     0.999993    0.00016895
  844       -6.2731467486      -0.0000001200     0.999993    0.00017186
  845       -6.2731468727      -0.0000001241     0.999993    0.00017485
  846       -6.2731470010      -0.0000001284     0.999993    0.00017793
  847       -6.2731471339      -0.0000001329     0.999993    0.00018109
  848       -6.2731472714      -0.0000001375     0.999993    0.00018434
  849       -6.2731474139      -0.0000001424     0.999993    0.00018768
  850       -6.2731475614      -0.0000001476     0.999993    0.00019111
  851       -6.2731477144      -0.0000001529     0.999993    0.00019464
  852       -6.2731478729      -0.0000001585     0.999993    0.00019828
  853       -6.2731480373      -0.0000001644     0.999993    0.00020202
  854       -6.2731482079      -0.0000001706     0.999993    0.00020587
  855       -6.2731483849      -0.0000001770     0.999993    0.00020983
  856       -6.2731485687      -0.0000001838     0.999993    0.00021392
  857       -6.2731487596      -0.0000001909     0.999993    0.00021813
  858       -6.2731489579      -0.0000001984     0.999993    0.00022246
  859       -6.2731491641      -0.0000002062     0.999993    0.00022693
  860       -6.2731493786      -0.0000002144     0.999993    0.00023154
  861       -6.2731496016      -0.0000002231     0.999993    0.00023630
  862       -6.2731498338      -0.0000002322     0.999993    0.00024121
  863       -6.2731500756      -0.0000002418     0.999993    0.00024627
  864       -6.2731503275      -0.0000002519     0.999993    0.00025150
  865       -6.2731505899      -0.0000002625     0.999993    0.00025691
  866       -6.2731508637      -0.0000002737     0.999993    0.00026249
  867       -6.2731511492      -0.0000002855     0.999993    0.00026826
  868       -6.2731514472      -0.0000002980     0.999993    0.00027422
  869       -6.2731517584      -0.0000003112     0.999993    0.00028039
  870       -6.2731520835      -0.0000003251     0.999992    0.00028678
  871       -6.2731524234      -0.0000003399     0.999992    0.00029339
  872       -6.2731527788      -0.0000003554     0.999992    0.00030023
  873       -6.2731531508      -0.0000003719     0.999992    0.00030732
  874       -6.2731535402      -0.0000003894     0.999992    0.00031467
  875       -6.2731539482      -0.0000004080     0.999992    0.00032229
  876       -6.2731543758      -0.0000004276     0.999992    0.00033019
  877       -6.2731548243      -0.0000004485     0.999992    0.00033838
  878       -6.2731552950      -0.0000004707     0.999992    0.00034689
  879       -6.2731557893      -0.0000004943     0.999992    0.00035573
  880       -6.2731563086      -0.0000005194     0.999992    0.00036491
  881       -6.2731568548      -0.0000005461     0.999992    0.00037446
  882       -6.2731574293      -0.0000005746     0.999992    0.00038438
  883       -6.2731580343      -0.0000006050     0.999992    0.00039471
  884       -6.2731586717      -0.0000006374     0.999992    0.00040547
  885       -6.2731593438      -0.0000006721     0.999992    0.00041667
  886       -6.2731600529      -0.0000007091     0.999992    0.00042834
  887       -6.2731608016      -0.0000007488     0.999992    0.00044051
  888       -6.2731615929      -0.0000007913     0.999992    0.00045320
  889       -6.2731624297      -0.0000008368     0.999991    0.00046646
  890       -6.2731633155      -0.0000008857     0.999991    0.00048030
  891       -6.2731642537      -0.0000009383     0.999991    0.00049476
  892       -6.2731652486      -0.0000009948     0.999991    0.00050989
  893       -6.2731663042      -0.0000010557     0.999991    0.00052572
  894       -6.2731674255      -0.0000011213     0.999991    0.00054229
  895       -6.2731686175      -0.0000011920     0.999991    0.00055965
  896       -6.2731698860      -0.0000012685     0.999991    0.00057785
  897       -6.2731712371      -0.0000013512     0.999991    0.00059694
  898       -6.2731726779      -0.0000014407     0.999991    0.00061699
  899       -6.2731742156      -0.0000015378     0.999991    0.00063805
  900       -6.2731758588      -0.0000016432     0.999990    0.00066019
  901       -6.2731776165      -0.0000017577     0.999990    0.00068349
  902       -6.2731794988      -0.0000018824     0.999990    0.00070802
  903       -6.2731815170      -0.0000020182     0.999990    0.00073388
  904       -6.2731836836      -0.0000021665     0.999990    0.00076114
  905       -6.2731860122      -0.0000023286     0.999990    0.00078993
  906       -6.2731885182      -0.0000025061     0.999990    0.00082033
  907       -6.2731912189      -0.0000027006     0.999989    0.00085249
  908       -6.2731941331      -0.0000029143     0.999989    0.00088652
  909       -6.2731972824      -0.0000031493     0.999989    0.00092257
  910       -6.2732006906      -0.0000034082     0.999989    0.00096080
  911       -6.2732043846      -0.0000036940     0.999989    0.00100138
  912       -6.2732083946      -0.0000040100     0.999989    0.00104449
  913       -6.2732127546      -0.0000043600     0.999988    0.00109033
  914       -6.2732175031      -0.0000047485     0.999988    0.00113914
  915       -6.2732226836      -0.0000051805     0.999988    0.00119117
  916       -6.2732283455      -0.0000056619     0.999988    0.00124667
  917       -6.2732345449      -0.0000061994     0.999987    0.00130595
  918       -6.2732413457      -0.0000068008     0.999987    0.00136933
  919       -6.2732488209      -0.0000074752     0.999987    0.00143719
  920       -6.2732570541      -0.0000082332     0.999986    0.00150991
  921       -6.2732661412      -0.0000090870     0.999986    0.00158793
  922       -6.2732761923      -0.0000100511     0.999986    0.00167174
  923       -6.2732873345      -0.0000111423     0.999985    0.00176188
  924       -6.2732997148      -0.0000123803     0.999985    0.00185892
  925       -6.2733135033      -0.0000137885     0.999984    0.00196352
  926       -6.2733288975      -0.0000153942     0.999984    0.00207639
  927       -6.2733461274      -0.0000172299     0.999983    0.00219831
  928       -6.2733654611      -0.0000193337     0.999983    0.00233014
  929       -6.2733872122      -0.0000217511     0.999982    0.00247283
  930       -6.2734117481      -0.0000245359     0.999981    0.00262738
  931       -6.2734394997      -0.0000277516     0.999980    0.00279490
  932       -6.2734709737      -0.0000314740     0.999979    0.00297658
  933       -6.2735067662      -0.0000357925     0.999978    0.00317368
  934       -6.2735475793      -0.0000408131     0.999977    0.00338750
  935       -6.2735942401      -0.0000466607     0.999976    0.00361942
  936       -6.2736477218      -0.0000534818     0.999975    0.00387076
  937       -6.2737091689      -0.0000614470     0.999974    0.00414283
  938       -6.2737799224      -0.0000707535     0.999972    0.00443675
  939       -6.2738615475      -0.0000816251     0.999970    0.00475341
  940       -6.2739558593      -0.0000943118     0.999968    0.00509325
  941       -6.2740649430      -0.0001090837     0.999966    0.00545611
  942       -6.2741911639      -0.0001262210     0.999964    0.00584088
  943       -6.2743371575      -0.0001459936     0.999962    0.00624518
  944       -6.2745057874      -0.0001686299     0.999959    0.00666499
  945       -6.2747000554      -0.0001942680     0.999956    0.00709408
  946       -6.2749229449      -0.0002228894     0.999953    0.00752360
  947       -6.2751771770      -0.0002542321     0.999950    0.00794161
  948       -6.2754648662      -0.0002876893     0.999947    0.00833282
  949       -6.2757870747      -0.0003222085     0.999944    0.00867868
  950       -6.2761432933      -0.0003562186     0.999942    0.00895798
  951       -6.2765309181      -0.0003876248     0.999939    0.00914826
  952       -6.2769448376      -0.0004139195     0.999937    0.00922795
  953       -6.2773772805      -0.0004324429     0.999935    0.00917931
  954       -6.2778180701      -0.0004407895     0.999933    0.00899160
  955       -6.2782553636      -0.0004372936     0.999932    0.00866391
  956       -6.2786768247      -0.0004214611     0.999931    0.00829452
  957       -6.2790710204      -0.0003941956     0.999931    0.00806492
  958       -6.2794287282      -0.0003577078     0.999930    0.00771950
  959       -6.2797438434      -0.0003151152     0.999930    0.00727674
  960       -6.2800136991      -0.0002698556     0.999930    0.00676108
  961       -6.2802388019      -0.0002251029     0.999929    0.00619937
  962       -6.2804221474      -0.0001833454     0.999929    0.00561762
  963       -6.2805683483      -0.0001462010     0.999928    0.00503842
  964       -6.2806827929      -0.0001144446     0.999927    0.00447956
  965       -6.2807709672      -0.0000881742     0.999926    0.00395362
  966       -6.2808379936      -0.0000670264     0.999926    0.00346839
  967       -6.2808883740      -0.0000503804     0.999925    0.00302773
  968       -6.2809258912      -0.0000375172     0.999924    0.00263248
  969       -6.2809536169      -0.0000277256     0.999924    0.00228141
  970       -6.2809739796      -0.0000203627     0.999923    0.00197197
  971       -6.2809888602      -0.0000148806     0.999922    0.00170085
  972       -6.2809996912      -0.0000108310     0.999922    0.00146444
  973       -6.2810075499      -0.0000078587     0.999921    0.00125905
  974       -6.2810132380      -0.0000056881     0.999921    0.00108115
  975       -6.2810173472      -0.0000041092     0.999920    0.00092743
  976       -6.2810203115      -0.0000029643     0.999920    0.00079485
  977       -6.2810224475      -0.0000021361     0.999920    0.00068070
  978       -6.2810239856      -0.0000015381     0.999920    0.00058254
  979       -6.2810250925      -0.0000011069     0.999919    0.00049824
  980       -6.2810258888      -0.0000007963     0.999919    0.00042590
  981       -6.2810264615      -0.0000005727     0.999919    0.00036389
  982       -6.2810268733      -0.0000004119     0.999919    0.00031076
  983       -6.2810271695      -0.0000002962     0.999919    0.00026528
  984       -6.2810273825      -0.0000002130     0.999919    0.00022638
  985       -6.2810275357      -0.0000001532     0.999918    0.00019311
  986       -6.2810276459      -0.0000001102     0.999918    0.00016468
  987       -6.2810277252      -0.0000000793     0.999918    0.00014039
  988       -6.2810277822      -0.0000000570     0.999918    0.00011965
  989       -6.2810278232      -0.0000000410     0.999918    0.00010195
  990       -6.2810278528      -0.0000000295     0.999918    0.00008685
  991       -6.2810278740      -0.0000000213     0.999918    0.00007397
  992       -6.2810278893      -0.0000000153     0.999918    0.00006298
  993       -6.2810279003      -0.0000000110     0.999918    0.00005362
  994       -6.2810279083      -0.0000000079     0.999918    0.00004564
  995       -6.2810279140      -0.0000000057     0.999918    0.00003884
  996       -6.2810279181      -0.0000000041     0.999918    0.00003305
  997       -6.2810279211      -0.0000000030     0.999918    0.00002812
  998       -6.2810279232      -0.0000000021     0.999918    0.00002392
  999       -6.2810279247      -0.0000000015     0.999918    0.00002035
 1000       -6.2810279258      -0.0000000011     0.999918    0.00001731

Total Energy:                       -6.2810279258 H         -170.9155 eV
Extrapolated to 0:                  -6.2460675883 H         -169.9641 eV

----------------------------------------------------------------------------------
 Solving CP-REKS equation for  1 state vector...
----------------------------------------------------------------------------------
  CG solver: Constructing Y initial guess
  CG solver: Iteration    1    eps =    0.010911830774
  CG solver: Iteration    2    eps =    0.002955754982
  CG solver: Iteration    3    eps =    0.000687898172
  CG solver: Iteration    4    eps =    0.000228359024
  CG solver: Iteration    5    eps =    0.000053084734
  CG solver: Iteration    6    eps =    0.000002593301
  CG solver: Iteration    7    eps =    0.000000612297
  CG solver: Iteration    8    eps =    0.000000018236
  CG solver: Iteration    9    eps =    0.000000001967
  Convergence reached in CG solver after    9 iterations
  CG solver: Calculating converged R, Z, Q2 matrix
----------------------------------------------------------------------------------

----------------------------------------------------------------------------------
 Solving CP-REKS equation for SI between  1 and  2 state vectors...
----------------------------------------------------------------------------------
  CG solver: Constructing Y initial guess
  CG solver: Iteration    1    eps =    0.001067778740
  CG solver: Iteration    2    eps =    0.002066441144
  CG solver: Iteration    3    eps =    0.000274896205
  CG solver: Iteration    4    eps =    0.000007211219
  CG solver: Iteration    5    eps =    0.000000816634
  CG solver: Iteration    6    eps =    0.000000140955
  CG solver: Iteration    7    eps =    0.000000002718
  Convergence reached in CG solver after    7 iterations
  CG solver: Calculating converged R, Z, Q2 matrix
----------------------------------------------------------------------------------

--------------------------------------------------
 Gradient Information
--------------------------------------------------
           1 st state (SSR)
     0.00000000     0.00000000     0.00000000
     0.00000000     0.00000000     0.00000000
     0.00000000     0.00000000     0.00000000
     0.00000000     0.00000000     0.00000000
     0.00000000     0.00000000     0.00000000
     0.00000000     0.00000000     0.00000000

           2 st state (SSR)
     0.00000000     0.00000000     0.00000000
     0.00000000     0.00000000     0.00000000
     0.00000000     0.00000000     0.00000000
     0.00000000     0.00000000     0.00000000
     0.00000000     0.00000000     0.00000000
     0.00000000     0.00000000     0.00000000
--------------------------------------------------
 Coupling Information
--------------------------------------------------
 between  1 and  2 states
--------------------------------------------------
 g vector - difference gradient
     0.34530974    -0.17500543     0.50531586
    -0.37034457     0.21931848    -0.32372486
     0.04615959    -0.28179389    -0.12766445
    -0.00491170     0.41287427     0.10419496
     0.05785379    -0.39262517     0.00630812
    -0.07406686     0.21723175    -0.16442964

 h vector - derivative coupling
    -0.00027125    -0.00037028    -0.00805448
     0.00550078     0.00316305     0.00373331
    -0.00023465     0.00793121     0.00179442
    -0.00306098    -0.00975844    -0.00080415
    -0.00196252     0.00740540     0.00252219
     0.00002861    -0.00837093     0.00080870

 G vector - GDV
     0.00000000     0.00000000     0.00000000
     0.00000000     0.00000000     0.00000000
     0.00000000     0.00000000     0.00000000
     0.00000000     0.00000000     0.00000000
     0.00000000     0.00000000     0.00000000
     0.00000000     0.00000000     0.00000000

 H vector - DCV - non-adiabatic coupling
     0.00000000     0.00000000     0.00000000
     0.00000000     0.00000000     0.00000000
     0.00000000     0.00000000     0.00000000
     0.00000000     0.00000000     0.00000000
     0.00000000     0.00000000     0.00000000
     0.00000000     0.00000000     0.00000000
--------------------------------------------------

WARNING!
-> SCC is NOT converged, maximal SCC iterations exceeded

--------------------------------------------------------------------------------
DFTB+ running times                          cpu [s]             wall clock [s]
--------------------------------------------------------------------------------
SCC                                    +     0.41  ( 97.2%)      0.41  ( 96.5%)
      Sparse to dense                        0.02  (  4.9%)      0.03  (  7.3%)
      Dense to sparse                        0.07  ( 16.0%)      0.07  ( 16.0%)
      Range separated Hamiltonian            0.03  (  6.7%)      0.04  (  8.7%)
  Density matrix creation                    0.05  ( 12.4%)      0.08  ( 17.6%)
  Force calculation                          0.01  (  2.5%)      0.01  (  2.6%)
--------------------------------------------------------------------------------
Missing                                +     0.01  (  2.8%)      0.01  (  3.5%)
Total                                  =     0.42  (100.0%)      0.43  (100.0%)
--------------------------------------------------------------------------------
