 Fermi distribution function

Calculation with static geometry


********************************************************************************
 iSCC Total electronic   Diff electronic      SCC error    
    9   -0.53970155E+01   -0.18701130E-09    0.70985870E-06
********************************************************************************

 Total charge:     1.00000000

 Atomic gross charges (e)
 Atom           Charge
    1       0.20729331
    2      -0.10192372
    3       0.19217214
    4       0.29076752
    5       0.27097015
    6       0.14072061

Nr. of electrons (up):     12.00000000
Atom populations (up)
 Atom       Population
    1       3.79270669
    2       5.10192372
    3       0.80782786
    4       0.70923248
    5       0.72902985
    6       0.85927939

l-shell populations (up)
 Atom Sh.   l       Population
    1   1   0       1.31751142
    1   2   1       2.47519528
    2   1   0       1.43026782
    2   2   1       3.67165590
    3   1   0       0.80782786
    4   1   0       0.70923248
    5   1   0       0.72902985
    6   1   0       0.85927939

Orbital populations (up)
 Atom Sh.   l   m       Population  Label
    1   1   0   0       1.31751142  s
    1   2   1  -1       0.56910817  p_y
    1   2   1   0       0.88158449  p_z
    1   2   1   1       1.02450262  p_x
    2   1   0   0       1.43026782  s
    2   2   1  -1       1.31772228  p_y
    2   2   1   0       1.09037392  p_z
    2   2   1   1       1.26355971  p_x
    3   1   0   0       0.80782786  s
    4   1   0   0       0.70923248  s
    5   1   0   0       0.72902985  s
    6   1   0   0       0.85927939  s

Fermi level:                        -0.4928610738 H          -13.4114 eV
Band energy:                        -8.8981039704 H         -242.1297 eV
TS:                                  0.0000000000 H            0.0000 eV
Band free energy (E-TS):            -8.8981039704 H         -242.1297 eV
Extrapolated E(0K):                 -8.8981039704 H         -242.1297 eV
Input / Output electrons (q):     12.0000000000     12.0000000000

Energy H0:                          -5.5299266980 H         -150.4770 eV
Energy SCC:                          0.1329112402 H            3.6167 eV
Total Electronic energy:            -5.3970154578 H         -146.8603 eV
Repulsive energy:                    0.1892430194 H            5.1496 eV
Total energy:                       -5.2077724384 H         -141.7107 eV
Extrapolated to 0:                  -5.2077724384 H         -141.7107 eV
Total Mermin free energy:           -5.2077724384 H         -141.7107 eV
Force related energy:               -5.2077724384 H         -141.7107 eV

SCC converged

Excitation Energy:                   0.1157787812 H            3.1505 eV

Total Forces
    1      0.006549288915      0.011807536522      0.034483748899
    2     -0.007568103526     -0.009454693537     -0.039074180598
    3     -0.006531008827      0.005422140556     -0.002187613891
    4     -0.006346969553     -0.006256947687      0.005977032439
    5      0.011856381334      0.007559240441     -0.000571899646
    6      0.002040411658     -0.009077276295      0.001372912797

Maximal derivative component:        0.390742E-01 au


