|===============================================================================
|
|  DFTB+ release 20.1
|
|  Copyright (C) 2006 - 2020  DFTB+ developers group
|
|===============================================================================
|
|  When publishing results obtained with DFTB+, please cite the following
|  reference:
|
|  * DFTB+, a software package for efficient approximate density functional
|    theory based atomistic simulations, J. Chem. Phys. 152, 124101 (2020).
|    [doi: 10.1063/1.5143190]
|
|  You should also cite additional publications crediting the parametrization
|  data you use. Please consult the documentation of the SK-files for the
|  references.
|
|===============================================================================

Reading input file 'dftb_in.hsd'
Parser version: 8

--------------------------------------------------------------------------------
Reading SK-files:
Done.


Processed input in HSD format written to 'dftb_pin.hsd'

Starting initialization...
--------------------------------------------------------------------------------
OpenMP threads:              1
Chosen random seed:          510723472
Mode:                        Static calculation
Self consistent charges:     Yes
SCC-tolerance:                 0.100000E-05
Max. scc iterations:                   1000
Shell resolved Hubbard:      No
Spin polarisation:           No
Nr. of up electrons:             6.000000
Nr. of down electrons:           6.000000
Periodic boundaries:         No
Electronic solver:           Relatively robust
Maximal SCC-cycles:                    1000
Initial charges:             Set automatically (system chrg:   0.100E+01)
Included shells:             C:  s, p
                             N:  s, p
                             H:  s
Spin coupling constants:     C   1(s)-1(s):  -0.455900E-01
                             C   1(s)-2(p):  -0.293000E-01
                             C   2(p)-1(s):  -0.293000E-01
                             C   2(p)-2(p):  -0.275500E-01
                             N   1(s)-1(s):  -0.468700E-01
                             N   1(s)-2(p):  -0.317000E-01
                             N   2(p)-1(s):  -0.317000E-01
                             N   2(p)-2(p):  -0.307200E-01
                             H   1(s)-1(s):  -0.792500E-01
Range separated hybrid:      Yes
  Screening parameter omega:   0.300000E+00
  Range separated algorithm:   MatrixBased
Extra options:
                             Mulliken analysis
                             Force calculation
Force type                   original
                             Eigenvector printing


REKS Calcuation:             Yes
SSR(2,2) Calcuation:         Yes
Energy Functional:           (PPS+OSS)/2
Number of Core Orbitals:                  5
Number of Active Orbitals:                2
Number of Basis:                         12
Number of States:                         2
State-Averaging Weight:          0.500000
                                 0.500000
State of Interest:                        1
Initial Guess:               Diagonalize H0 matrix
Newton-Raphson for FON opt:  Yes
NR max. Iterations:                      50
Level Shifting:              Yes
Shift Value:                     0.300000
W Scale Factor:              C  =    3.000000
                             N  =    3.000000
                             H  =    3.000000
Transition Dipole:           No
Gradient of Microstate:      No
CP-REKS Solver:              Preconditioned Conjugate-Gradient
CG max. Iterations:                     100
CG Tolerance:                  0.100000E-07
Memory for A and Hxc:        Direct Updating Without Saving
Non-Adiabatic Coupling:      Yes

--------------------------------------------------------------------------------

***  Geometry step: 0

  iSCC       reks energy        Diff energy         x_a       SCC error   
    1       -6.2599443832       0.0000000000     0.999211    1.17929148
    2       -6.2738719007      -0.0139275175     0.999691    0.10500508
    3       -6.2785704297      -0.0046985290     0.999835    0.04884593
    4       -6.2812013169      -0.0026308872     0.999896    0.02448696
    5       -6.2829264468      -0.0017251299     0.999926    0.01250107
    6       -6.2841195951      -0.0011931483     0.999942    0.00978563
    7       -6.2849473763      -0.0008277812     0.999952    0.00851626
    8       -6.2855113741      -0.0005639977     0.999958    0.00761554
    9       -6.2858867662      -0.0003753922     0.999961    0.00660204
   10       -6.2861313178      -0.0002445516     0.999963    0.00560642
   11       -6.2862879532      -0.0001566354     0.999965    0.00469467
   12       -6.2863870786      -0.0000991254     0.999966    0.00389395
   13       -6.2864493351      -0.0000622565     0.999966    0.00320897
   14       -6.2864882816      -0.0000389465     0.999967    0.00263277
   15       -6.2865126175      -0.0000243359     0.999967    0.00215333
   16       -6.2865278371      -0.0000152195     0.999967    0.00175723
   17       -6.2865373764      -0.0000095393     0.999967    0.00143157
   18       -6.2865433738      -0.0000059974     0.999967    0.00116470
   19       -6.2865471575      -0.0000037837     0.999967    0.00094655
   20       -6.2865495532      -0.0000023957     0.999967    0.00076855
   21       -6.2865510754      -0.0000015222     0.999967    0.00062352
   22       -6.2865520457      -0.0000009704     0.999967    0.00050551
   23       -6.2865526662      -0.0000006204     0.999967    0.00040958
   24       -6.2865530639      -0.0000003978     0.999967    0.00033167
   25       -6.2865533195      -0.0000002556     0.999967    0.00026845
   26       -6.2865534841      -0.0000001646     0.999967    0.00021719
   27       -6.2865535902      -0.0000001061     0.999967    0.00017564
   28       -6.2865536587      -0.0000000685     0.999967    0.00014200
   29       -6.2865537031      -0.0000000443     0.999967    0.00011476
   30       -6.2865537317      -0.0000000287     0.999967    0.00009272
   31       -6.2865537503      -0.0000000186     0.999967    0.00007490
   32       -6.2865537624      -0.0000000120     0.999967    0.00006049
   33       -6.2865537702      -0.0000000078     0.999967    0.00004884
   34       -6.2865537752      -0.0000000051     0.999967    0.00003944
   35       -6.2865537785      -0.0000000033     0.999967    0.00003193
   36       -6.2865537807      -0.0000000021     0.999967    0.00002584
   37       -6.2865537821      -0.0000000014     0.999967    0.00002090
   38       -6.2865537830      -0.0000000009     0.999967    0.00001690
   39       -6.2865537835      -0.0000000006     0.999967    0.00001366
   40       -6.2865537839      -0.0000000004     0.999967    0.00001104
   41       -6.2865537842      -0.0000000002     0.999967    0.00000892
   42       -6.2865537843      -0.0000000002     0.999967    0.00000720
   43       -6.2865537844      -0.0000000001     0.999967    0.00000582
   44       -6.2865537845      -0.0000000001     0.999967    0.00000470
   45       -6.2865537845      -0.0000000000     0.999967    0.00000379
   46       -6.2865537846      -0.0000000000     0.999967    0.00000306
   47       -6.2865537846      -0.0000000000     0.999967    0.00000247
   48       -6.2865537846      -0.0000000000     0.999967    0.00000199
   49       -6.2865537846      -0.0000000000     0.999967    0.00000161
   50       -6.2865537846      -0.0000000000     0.999967    0.00000130
   51       -6.2865537846      -0.0000000000     0.999967    0.00000105
   52       -6.2865537846      -0.0000000000     0.999967    0.00000084
  
--------------------------------------------------
 Final SA-REKS(2,2) energy:      -6.28655378
  
 State     Energy      FON(1)    FON(2)   Spin
  PPS   -6.41503778   1.999934  0.000066  0.00
  OSS   -6.15806979   1.000000  1.000000  0.00
 Trip   -6.23689821   1.000000  1.000000  1.00
--------------------------------------------------

 Lagrangian Wab:   0.00303276  0.00303265

--------------------------------------------------
 SSR: 2SI-2SA-REKS(2,2) Hamiltonian matrix
               PPS           OSS
   PPS    -6.41503778    0.00426420
   OSS     0.00426420   -6.15806979
--------------------------------------------------

----------------------------------------------------------------
 SSR: 2SI-2SA-REKS(2,2) states
                    E_n       C_{PPS}    C_{OSS}
 SSR state  1   -6.41510853  -0.999862   0.016587
 SSR state  2   -6.15799904  -0.016587  -0.999862
----------------------------------------------------------------

 unrelaxed SSR FONs for S0:  1.999659  0.000341

Total Energy:                       -6.4151085258 H         -174.5640 eV
Extrapolated to 0:                  -6.4151085258 H         -174.5640 eV

----------------------------------------------------------------------------------
 Solving CP-REKS equation for  1 state vector...
----------------------------------------------------------------------------------
  CG solver: Constructing Y initial guess
  CG solver: Iteration    1    eps =    0.000048734613
  CG solver: Iteration    2    eps =    0.000012333568
  CG solver: Iteration    3    eps =    0.000000489376
  CG solver: Iteration    4    eps =    0.000000127494
  CG solver: Iteration    5    eps =    0.000000011464
  CG solver: Iteration    6    eps =    0.000000000511
  Convergence reached in CG solver after    6 iterations
  CG solver: Calculating converged R, Z, Q2 matrix
----------------------------------------------------------------------------------

----------------------------------------------------------------------------------
 Solving CP-REKS equation for SI between  1 and  2 state vectors...
----------------------------------------------------------------------------------
  CG solver: Constructing Y initial guess
  CG solver: Iteration    1    eps =    0.000878881106
  CG solver: Iteration    2    eps =    0.000822464687
  CG solver: Iteration    3    eps =    0.000193579847
  CG solver: Iteration    4    eps =    0.000002638411
  CG solver: Iteration    5    eps =    0.000000380997
  CG solver: Iteration    6    eps =    0.000000008082
  Convergence reached in CG solver after    6 iterations
  CG solver: Calculating converged R, Z, Q2 matrix
----------------------------------------------------------------------------------

--------------------------------------------------
 Gradient Information
--------------------------------------------------
           1 st state (SSR)
     0.01208756    -0.00427668    -0.00761774
     0.00816011     0.01076138     0.00259287
     0.00253726     0.00756502    -0.00345512
    -0.00347984    -0.01088289    -0.00161040
    -0.01149992     0.00386654     0.00384918
    -0.00780516    -0.00703336     0.00624121

           2 st state (SSR)
    -0.00207716     0.00069631     0.09486555
     0.00620591    -0.00427144    -0.11680317
    -0.00707818    -0.00731079     0.01385008
    -0.00614227     0.01027359    -0.00896841
    -0.00231335    -0.00273750    -0.00485853
     0.01140506     0.00334983     0.02191447
--------------------------------------------------
 Coupling Information
--------------------------------------------------
 between  1 and  2 states
--------------------------------------------------
 g vector - difference gradient
     0.00699373    -0.00242144    -0.05142056
     0.00112044     0.00758128     0.05983448
     0.00484066     0.00764859    -0.00862866
     0.00123901    -0.01087147     0.00366245
    -0.00460112     0.00354544     0.00440642
    -0.00959272    -0.00548240    -0.00785414

 h vector - derivative coupling
    -0.00278792     0.00200135    -0.00454056
     0.00430267     0.00182982     0.00312122
     0.00091282     0.00622489     0.00086505
    -0.00280020    -0.00865973    -0.00055984
    -0.00016008     0.00727961     0.00151165
     0.00053270    -0.00867594    -0.00039752

 G vector - GDV
     0.00708236    -0.00248649    -0.05124165
     0.00097710     0.00751641     0.05969802
     0.00480772     0.00743790    -0.00865260
     0.00133121    -0.01057824     0.00367900
    -0.00459328     0.00330202     0.00435385
    -0.00960511    -0.00519160    -0.00783663

 H vector - DCV - non-adiabatic coupling
    -0.00993507     0.00746737    -0.02428421
     0.01687013     0.00809104     0.01985237
     0.00417289     0.02518448     0.00224946
    -0.01072526    -0.03506511    -0.00170374
    -0.00121586     0.02875508     0.00644466
     0.00083317    -0.03443286    -0.00255854
--------------------------------------------------


--------------------------------------------------------------------------------
DFTB+ running times                          cpu [s]             wall clock [s]
--------------------------------------------------------------------------------
SCC                                    +     0.02  ( 67.7%)      0.03  ( 64.1%)
Post-SCC processing                    +     0.01  ( 28.6%)      0.01  ( 25.6%)
  Force calculation                          0.01  ( 28.0%)      0.01  ( 25.6%)
--------------------------------------------------------------------------------
Missing                                +     0.00  (  3.7%)      0.00  ( 10.3%)
Total                                  =     0.03  (100.0%)      0.04  (100.0%)
--------------------------------------------------------------------------------
