|===============================================================================
|
|  DFTB+ release 20.1
|
|  Copyright (C) 2006 - 2020  DFTB+ developers group
|
|===============================================================================
|
|  When publishing results obtained with DFTB+, please cite the following
|  reference:
|
|  * DFTB+, a software package for efficient approximate density functional
|    theory based atomistic simulations, J. Chem. Phys. 152, 124101 (2020).
|    [doi: 10.1063/1.5143190]
|
|  You should also cite additional publications crediting the parametrization
|  data you use. Please consult the documentation of the SK-files for the
|  references.
|
|===============================================================================

Reading input file 'dftb_in.hsd'
Parser version: 8

--------------------------------------------------------------------------------
Reading SK-files:
Done.


Processed input in HSD format written to 'dftb_pin.hsd'

Starting initialization...
--------------------------------------------------------------------------------
OpenMP threads:              1
Chosen random seed:          509445376
Mode:                        Static calculation
Self consistent charges:     Yes
SCC-tolerance:                 0.100000E-05
Max. scc iterations:                   1000
Shell resolved Hubbard:      No
Spin polarisation:           No
Nr. of up electrons:             6.000000
Nr. of down electrons:           6.000000
Periodic boundaries:         No
Electronic solver:           Relatively robust
Maximal SCC-cycles:                    1000
Initial charges:             Set automatically (system chrg:   0.100E+01)
Included shells:             C:  s, p
                             N:  s, p
                             H:  s
Spin coupling constants:     C   1(s)-1(s):  -0.455900E-01
                             C   1(s)-2(p):  -0.293000E-01
                             C   2(p)-1(s):  -0.293000E-01
                             C   2(p)-2(p):  -0.275500E-01
                             N   1(s)-1(s):  -0.468700E-01
                             N   1(s)-2(p):  -0.317000E-01
                             N   2(p)-1(s):  -0.317000E-01
                             N   2(p)-2(p):  -0.307200E-01
                             H   1(s)-1(s):  -0.792500E-01
Range separated hybrid:      Yes
  Screening parameter omega:   0.300000E+00
  Range separated algorithm:   MatrixBased
Extra options:
                             Mulliken analysis
                             Force calculation
Force type                   original
                             Eigenvector printing


REKS Calcuation:             Yes
SSR(2,2) Calcuation:         Yes
Energy Functional:           (PPS+OSS)/2
Number of Core Orbitals:                  5
Number of Active Orbitals:                2
Number of Basis:                         12
Number of States:                         2
State-Averaging Weight:          0.500000
                                 0.500000
State of Interest:                        1
Initial Guess:               Diagonalize H0 matrix
Newton-Raphson for FON opt:  Yes
NR max. Iterations:                      50
Level Shifting:              Yes
Shift Value:                     0.300000
W Scale Factor:              C  =    3.000000
                             N  =    3.000000
                             H  =    3.000000
Transition Dipole:           No
Gradient of Microstate:      No
CP-REKS Solver:              Preconditioned Conjugate-Gradient
CG max. Iterations:                     100
CG Tolerance:                  0.100000E-07
Memory for A and Hxc:        Direct Updating Without Saving
Non-Adiabatic Coupling:      Yes

--------------------------------------------------------------------------------

***  Geometry step: 0

  iSCC       reks energy        Diff energy         x_a       SCC error   
    1       -6.2622385984       0.0000000000     0.999034    1.18265442
    2       -6.2758788258      -0.0136402274     0.999627    0.10329521
    3       -6.2800112162      -0.0041323903     0.999799    0.04763048
    4       -6.2820187814      -0.0020075652     0.999870    0.02377380
    5       -6.2831982973      -0.0011795159     0.999904    0.01233694
    6       -6.2839748492      -0.0007765519     0.999922    0.00787731
    7       -6.2845153557      -0.0005405066     0.999933    0.00687780
    8       -6.2848984811      -0.0003831254     0.999940    0.00646457
    9       -6.2851700596      -0.0002715785     0.999944    0.00591792
   10       -6.2853612205      -0.0001911609     0.999947    0.00529802
   11       -6.2854946043      -0.0001333838     0.999950    0.00466508
   12       -6.2855869170      -0.0000923127     0.999951    0.00405598
   13       -6.2856503767      -0.0000634596     0.999952    0.00349183
   14       -6.2856937783      -0.0000434017     0.999953    0.00298297
   15       -6.2857233531      -0.0000295748     0.999953    0.00253267
   16       -6.2857434563      -0.0000201032     0.999953    0.00213980
   17       -6.2857571001      -0.0000136439     0.999954    0.00180069
   18       -6.2857663521      -0.0000092519     0.999954    0.00151040
   19       -6.2857726232      -0.0000062712     0.999954    0.00126351
   20       -6.2857768736      -0.0000042503     0.999954    0.00105462
   21       -6.2857797545      -0.0000028809     0.999954    0.00087863
   22       -6.2857817075      -0.0000019530     0.999954    0.00073084
   23       -6.2857830318      -0.0000013243     0.999954    0.00060711
   24       -6.2857839299      -0.0000008982     0.999954    0.00050375
   25       -6.2857845392      -0.0000006093     0.999954    0.00041758
   26       -6.2857849526      -0.0000004134     0.999954    0.00034587
   27       -6.2857852331      -0.0000002805     0.999954    0.00028626
   28       -6.2857854235      -0.0000001904     0.999954    0.00023678
   29       -6.2857855527      -0.0000001292     0.999954    0.00019576
   30       -6.2857856404      -0.0000000877     0.999954    0.00016176
   31       -6.2857856999      -0.0000000595     0.999954    0.00013362
   32       -6.2857857404      -0.0000000404     0.999954    0.00011034
   33       -6.2857857678      -0.0000000274     0.999954    0.00009108
   34       -6.2857857864      -0.0000000186     0.999954    0.00007517
   35       -6.2857857991      -0.0000000126     0.999954    0.00006202
   36       -6.2857858077      -0.0000000086     0.999954    0.00005117
   37       -6.2857858135      -0.0000000058     0.999954    0.00004220
   38       -6.2857858174      -0.0000000040     0.999954    0.00003480
   39       -6.2857858201      -0.0000000027     0.999954    0.00002870
   40       -6.2857858220      -0.0000000018     0.999954    0.00002366
   41       -6.2857858232      -0.0000000012     0.999954    0.00001951
   42       -6.2857858240      -0.0000000008     0.999954    0.00001608
   43       -6.2857858246      -0.0000000006     0.999954    0.00001326
   44       -6.2857858250      -0.0000000004     0.999954    0.00001093
   45       -6.2857858253      -0.0000000003     0.999954    0.00000901
   46       -6.2857858254      -0.0000000002     0.999954    0.00000742
   47       -6.2857858256      -0.0000000001     0.999954    0.00000612
   48       -6.2857858256      -0.0000000001     0.999954    0.00000504
   49       -6.2857858257      -0.0000000001     0.999954    0.00000415
   50       -6.2857858257      -0.0000000000     0.999954    0.00000342
   51       -6.2857858258      -0.0000000000     0.999954    0.00000282
   52       -6.2857858258      -0.0000000000     0.999954    0.00000232
   53       -6.2857858258      -0.0000000000     0.999954    0.00000192
   54       -6.2857858258      -0.0000000000     0.999954    0.00000158
   55       -6.2857858258      -0.0000000000     0.999954    0.00000130
   56       -6.2857858258      -0.0000000000     0.999954    0.00000107
   57       -6.2857858258      -0.0000000000     0.999954    0.00000088
  
--------------------------------------------------
 Final SA-REKS(2,2) energy:      -6.28578583
  
 State     Energy      FON(1)    FON(2)   Spin
  PPS   -6.41227708   1.999908  0.000092  0.00
  OSS   -6.15929457   1.000000  1.000000  0.00
 Trip   -6.23983207   1.000000  1.000000  1.00
--------------------------------------------------

 Lagrangian Wab:   0.00535771  0.00535753

--------------------------------------------------
 SSR: 2SI-2SA-REKS(2,2) Hamiltonian matrix
               PPS           OSS
   PPS    -6.41227708    0.00752530
   OSS     0.00752530   -6.15929457
--------------------------------------------------

----------------------------------------------------------------
 SSR: 2SI-2SA-REKS(2,2) states
                    E_n       C_{PPS}    C_{OSS}
 SSR state  1   -6.41250073  -0.999559   0.029707
 SSR state  2   -6.15907092  -0.029707  -0.999559
----------------------------------------------------------------

 unrelaxed SSR FONs for S0:  1.999025  0.000975

Total Energy:                       -6.4125007329 H         -174.4930 eV
Extrapolated to 0:                  -6.4125007329 H         -174.4930 eV

----------------------------------------------------------------------------------
 Solving CP-REKS equation for  1 state vector...
----------------------------------------------------------------------------------
  CG solver: Constructing Y initial guess
  CG solver: Iteration    1    eps =    0.000086159272
  CG solver: Iteration    2    eps =    0.000049239592
  CG solver: Iteration    3    eps =    0.000002570591
  CG solver: Iteration    4    eps =    0.000000635072
  CG solver: Iteration    5    eps =    0.000000014765
  CG solver: Iteration    6    eps =    0.000000002261
  Convergence reached in CG solver after    6 iterations
  CG solver: Calculating converged R, Z, Q2 matrix
----------------------------------------------------------------------------------

----------------------------------------------------------------------------------
 Solving CP-REKS equation for SI between  1 and  2 state vectors...
----------------------------------------------------------------------------------
  CG solver: Constructing Y initial guess
  CG solver: Iteration    1    eps =    0.001947598743
  CG solver: Iteration    2    eps =    0.002532888012
  CG solver: Iteration    3    eps =    0.000408985426
  CG solver: Iteration    4    eps =    0.000004920070
  CG solver: Iteration    5    eps =    0.000000691763
  CG solver: Iteration    6    eps =    0.000000012507
  CG solver: Iteration    7    eps =    0.000000000410
  Convergence reached in CG solver after    7 iterations
  CG solver: Calculating converged R, Z, Q2 matrix
----------------------------------------------------------------------------------

--------------------------------------------------
 Gradient Information
--------------------------------------------------
           1 st state (SSR)
     0.00786278    -0.00179978    -0.00522048
     0.00503549     0.00713600    -0.00019435
     0.00075980     0.01059626    -0.00072321
    -0.00263835    -0.01422375    -0.00229123
    -0.00756974     0.00984896     0.00096571
    -0.00344997    -0.01155769     0.00746356

           2 st state (SSR)
    -0.00301644    -0.00185867     0.09955290
     0.00156065    -0.00144278    -0.12074596
    -0.00875068    -0.01049431     0.01522058
    -0.00279460     0.01281449    -0.00884937
    -0.00048867    -0.00635299    -0.00866504
     0.01348973     0.00733426     0.02348689
--------------------------------------------------
 Coupling Information
--------------------------------------------------
 between  1 and  2 states
--------------------------------------------------
 g vector - difference gradient
     0.00534807     0.00013704    -0.05330279
     0.00192126     0.00441876     0.06102079
     0.00476474     0.01114748    -0.00787020
    -0.00016118    -0.01427896     0.00324122
    -0.00343938     0.00876033     0.00494180
    -0.00843351    -0.01018466    -0.00803081

 h vector - derivative coupling
    -0.00170033     0.00180775    -0.01384166
     0.00303854     0.00204710     0.01073080
     0.00001839     0.00980882     0.00194631
    -0.00402469    -0.01237028    -0.00073360
     0.00180551     0.01084227     0.00198181
     0.00086258    -0.01213567    -0.00008367

 G vector - GDV
     0.00543961     0.00002944    -0.05238669
     0.00173742     0.00428939     0.06027581
     0.00475524     0.01054528    -0.00797190
     0.00007812    -0.01351912     0.00327907
    -0.00354054     0.00810097     0.00481538
    -0.00846985    -0.00944597    -0.00801167

 H vector - DCV - non-adiabatic coupling
    -0.00544420     0.00715267    -0.06701167
     0.01241873     0.00909879     0.05656692
     0.00118897     0.04124824     0.00582205
    -0.01589063    -0.05207136    -0.00213004
     0.00630577     0.04475949     0.00896420
     0.00142135    -0.05018782    -0.00221147
--------------------------------------------------


--------------------------------------------------------------------------------
DFTB+ running times                          cpu [s]             wall clock [s]
--------------------------------------------------------------------------------
SCC                                    +     0.03  ( 69.4%)      0.03  ( 65.1%)
Post-SCC processing                    +     0.01  ( 26.8%)      0.01  ( 25.6%)
  Force calculation                          0.01  ( 26.2%)      0.01  ( 23.3%)
--------------------------------------------------------------------------------
Missing                                +     0.00  (  3.8%)      0.00  (  9.3%)
Total                                  =     0.04  (100.0%)      0.04  (100.0%)
--------------------------------------------------------------------------------
