 Fermi distribution function

Calculation with static geometry


********************************************************************************
 iSCC Total electronic   Diff electronic      SCC error    
    9   -0.53946797E+01   -0.46963589E-09    0.82807845E-06
********************************************************************************

 Total charge:     1.00000000

 Atomic gross charges (e)
 Atom           Charge
    1       0.25400881
    2      -0.13765715
    3       0.15815473
    4       0.29935146
    5       0.26713923
    6       0.15900292

Nr. of electrons (up):     12.00000000
Atom populations (up)
 Atom       Population
    1       3.74599119
    2       5.13765715
    3       0.84184527
    4       0.70064854
    5       0.73286077
    6       0.84099708

l-shell populations (up)
 Atom Sh.   l       Population
    1   1   0       1.29868959
    1   2   1       2.44730160
    2   1   0       1.42493653
    2   2   1       3.71272062
    3   1   0       0.84184527
    4   1   0       0.70064854
    5   1   0       0.73286077
    6   1   0       0.84099708

Orbital populations (up)
 Atom Sh.   l   m       Population  Label
    1   1   0   0       1.29868959  s
    1   2   1  -1       0.55666347  p_y
    1   2   1   0       0.89691984  p_z
    1   2   1   1       0.99371829  p_x
    2   1   0   0       1.42493653  s
    2   2   1  -1       1.33481230  p_y
    2   2   1   0       1.11153967  p_z
    2   2   1   1       1.26636865  p_x
    3   1   0   0       0.84184527  s
    4   1   0   0       0.70064854  s
    5   1   0   0       0.73286077  s
    6   1   0   0       0.84099708  s

Fermi level:                        -0.4911629521 H          -13.3652 eV
Band energy:                        -8.9075207418 H         -242.3860 eV
TS:                                  0.0000000000 H            0.0000 eV
Band free energy (E-TS):            -8.9075207418 H         -242.3860 eV
Extrapolated E(0K):                 -8.9075207418 H         -242.3860 eV
Input / Output electrons (q):     12.0000000000     12.0000000000

Energy H0:                          -5.5297940669 H         -150.4734 eV
Energy SCC:                          0.1351143321 H            3.6766 eV
Total Electronic energy:            -5.3946797348 H         -146.7967 eV
Repulsive energy:                    0.1961664103 H            5.3380 eV
Total energy:                       -5.1985133245 H         -141.4587 eV
Extrapolated to 0:                  -5.1985133245 H         -141.4587 eV
Total Mermin free energy:           -5.1985133245 H         -141.4587 eV
Force related energy:               -5.1985133245 H         -141.4587 eV

SCC converged

Excitation Energy:                   0.1109419932 H            3.0189 eV

Total Forces
    1     -0.016684710780      0.002928828368     -0.000245308216
    2      0.008703570984      0.014467244597     -0.006772161083
    3     -0.000647104735     -0.014250433368      0.004840383671
    4     -0.005408897846      0.005646761167      0.008600618321
    5      0.007993878800     -0.016025884367     -0.005162127060
    6      0.006043263577      0.007233483603     -0.001261405632

Maximal derivative component:        0.166847E-01 au


