    14
  Step:     0            Position(A)                                  Velocity(au)
C        -6.02111348    -0.63385447    -0.06497397     0.00026169    -0.00008139     0.00004974
C        -4.71789756    -0.81182250     0.10640331    -0.00015867    -0.00020392    -0.00017851
H        -6.48581275     0.21416696    -0.56775306    -0.00061042     0.00044397     0.00024034
H        -6.70437765    -1.54506724     0.05703097    -0.00090121     0.00011115    -0.00015565
H        -4.29991508    -1.75517250     0.42500511     0.00131920     0.00048710     0.00095721
C        -3.88181513     0.34434869    -0.07470953    -0.00002040     0.00007572     0.00007673
C        -2.49035738     0.45778951     0.15838870     0.00002216     0.00062898    -0.00015257
H        -4.53721329     1.17554392    -0.44221381     0.00025198    -0.00132834     0.00020649
H        -1.99154671    -0.49571811     0.40242344    -0.00087801     0.00123276     0.00068943
C        -1.86773985     1.69471500     0.02113798    -0.00035791    -0.00038111    -0.00007959
H        -2.38298339     2.64685784    -0.19947871    -0.00043357     0.00108947    -0.00021884
N        -0.53632930     1.86989016     0.20474223     0.00014650    -0.00012835     0.00020200
H        -0.08232937     2.79827376     0.23637210     0.00149612     0.00026415    -0.00018380
H         0.11776540     1.09146876     0.51453716     0.00073629    -0.00097281    -0.00095564
    14
  Step:     1            Position(A)                                  Velocity(au)
C        -6.01881335    -0.63497653    -0.06454915     0.00015462    -0.00012239     0.00002678
C        -4.71913937    -0.81393198     0.10451376    -0.00006433    -0.00018231    -0.00016577
H        -6.49220805     0.21937303    -0.56465575    -0.00054255     0.00048846     0.00033642
H        -6.71346954    -1.54217240     0.05542989    -0.00074947     0.00042026    -0.00013580
H        -4.28533499    -1.75023073     0.43572092     0.00133128     0.00042383     0.00099403
C        -3.88254083     0.34510295    -0.07395552    -0.00011163     0.00005941     0.00006172
C        -2.48989006     0.46468517     0.15673393     0.00006011     0.00062901    -0.00014946
H        -4.53296362     1.16103110    -0.43960125     0.00050025    -0.00128651     0.00025576
H        -2.00072869    -0.48140352     0.40987976    -0.00078208     0.00135826     0.00067922
C        -1.87162217     1.69059043     0.02029908    -0.00034915    -0.00036457    -0.00007484
H        -2.38796079     2.65786324    -0.20189665    -0.00045677     0.00088431    -0.00021521
N        -0.53449076     1.86842894     0.20702308     0.00019019    -0.00013788     0.00021492
H        -0.06671493     2.80039280     0.23416986     0.00133528     0.00008916    -0.00021932
H         0.12414740     1.08230459     0.50336511     0.00041953    -0.00068985    -0.00108807
    14
  Step:     2            Position(A)                                  Velocity(au)
C        -6.01773083    -0.63653190    -0.06438812     0.00004132    -0.00016020     0.00000187
C        -4.71930491    -0.81581084     0.10277687     0.00003638    -0.00016189    -0.00015074
H        -6.49768211     0.22485294    -0.56039333    -0.00044449     0.00049677     0.00045072
H        -6.72077382    -1.53587324     0.05406014    -0.00058147     0.00072442    -0.00011271
H        -4.27079084    -1.74590032     0.44675131     0.00131249     0.00037742     0.00101375
C        -3.88425734     0.34564831    -0.07335932    -0.00020006     0.00003723     0.00004826
C        -2.48904234     0.47155021     0.15511898     0.00009108     0.00062339    -0.00014543
H        -4.52626935     1.14739913    -0.43661857     0.00069149    -0.00116213     0.00027094
H        -2.00865621    -0.46600359     0.41728258    -0.00064818     0.00142793     0.00068089
C        -1.87537826     1.68673925     0.01950070    -0.00033444    -0.00033178    -0.00007205
H        -2.39297608     2.66620385    -0.20418687    -0.00044465     0.00061183    -0.00019765
N        -0.53216845     1.86687374     0.20944394     0.00023355    -0.00014539     0.00022716
H        -0.05311751     2.80022440     0.23157398     0.00113423    -0.00014107    -0.00025505
H         0.12694339     1.07637701     0.49073347     0.00009314    -0.00039511    -0.00121706
    14
  Step:     3            Position(A)                                  Velocity(au)
C        -6.01790937    -0.63848118    -0.06450818    -0.00007352    -0.00019410    -0.00002420
C        -4.71834358    -0.81747369     0.10121613     0.00013978    -0.00014283    -0.00013375
H        -6.50193211     0.23024080    -0.55479538    -0.00032198     0.00047538     0.00057742
H        -6.72619027    -1.52632443     0.05296423    -0.00041177     0.00100536    -0.00008510
H        -4.25662177    -1.74197395     0.45789862     0.00126350     0.00035054     0.00101499
C        -3.88691762     0.34591741    -0.07289978    -0.00028274     0.00000883     0.00003704
C        -2.48789759     0.47832293     0.15355229     0.00011383     0.00061197    -0.00014075
H        -4.51783599     1.13560725    -0.43367397     0.00081286    -0.00094751     0.00024668
H        -2.01490889    -0.45016480     0.42477561    -0.00047672     0.00143752     0.00069641
C        -1.87893877     1.68333207     0.01872274    -0.00031304    -0.00028414    -0.00007097
H        -2.39768839     2.67124822    -0.20622056    -0.00040562     0.00029187    -0.00017051
N        -0.52938150     1.86524823     0.21199257     0.00027370    -0.00015065     0.00023790
H        -0.04190153     2.79730662     0.22859018     0.00090762    -0.00039977    -0.00028970
H         0.12618508     1.07366089     0.47673966    -0.00021798    -0.00011680    -0.00133246
    14
  Step:     4            Position(A)                                  Velocity(au)
C        -6.01933920    -0.64077815    -0.06491754    -0.00018501    -0.00022348    -0.00005061
C        -4.71624704    -0.81893544     0.09985081     0.00024198    -0.00012503    -0.00011525
H        -6.50472611     0.23525281    -0.54776127    -0.00018193     0.00043237     0.00070990
H        -6.72978203    -1.51387912     0.05219847    -0.00025586     0.00124484    -0.00005163
H        -4.24314936    -1.73823156     0.46895617     0.00118679     0.00034302     0.00099751
C        -3.89044286     0.34584146    -0.07254895    -0.00035708    -0.00002558     0.00002854
C        -2.48655215     0.48493828     0.15203977     0.00012737     0.00059433    -0.00013559
H        -4.50848644     1.12667044    -0.43122191     0.00085737    -0.00064189     0.00018078
H        -2.01908543    -0.43455517     0.43251780    -0.00027102     0.00138792     0.00072633
C        -1.88222659     1.68052321     0.01794806    -0.00028430    -0.00022324    -0.00007131
H        -2.40184975     2.67258903    -0.20791713    -0.00034803    -0.00005503    -0.00013813
N        -0.52618073     1.86357799     0.21464854     0.00030775    -0.00015347     0.00024647
H        -0.03326167     2.79147858     0.22523624     0.00067138    -0.00065935    -0.00032237
H         0.12217463     1.07382178     0.46158331    -0.00048936     0.00011669    -0.00142573
    14
  Step:     5            Position(A)                                  Velocity(au)
C        -6.02195681    -0.64337033    -0.06561538    -0.00028835    -0.00024775    -0.00007658
C        -4.71304972    -0.82020900     0.09869489     0.00033920    -0.00010828    -0.00009573
H        -6.50591222     0.23969962    -0.53926490    -0.00003179     0.00037662     0.00084142
H        -6.73178778    -1.49909123     0.05183484    -0.00013040     0.00142426    -0.00001071
H        -4.23065841    -1.73446976     0.47972095     0.00108649     0.00035233     0.00096216
C        -3.89472941     0.34535782    -0.07227551    -0.00042133    -0.00006492     0.00002280
C        -2.48511110     0.49132497     0.15058607     0.00013123     0.00056979    -0.00012997
H        -4.49907929     1.12156466    -0.42971907     0.00082704    -0.00025502     0.00007595
H        -2.02083806    -0.41980135     0.44066543    -0.00003767     0.00128616     0.00076932
C        -1.88515830     1.67844834     0.01716279    -0.00024776    -0.00015096    -0.00007274
H        -2.40530226     2.67004430    -0.20924245    -0.00028001    -0.00040822    -0.00010469
N        -0.52264897     1.86189068     0.21738463     0.00033281    -0.00015368     0.00025232
H        -0.02721370     2.78288199     0.22153763     0.00044206    -0.00089243    -0.00035261
H         0.11547934     1.07621367     0.44554901    -0.00069743     0.00027723    -0.00149006
    14
  Step:     6            Position(A)                                  Velocity(au)
C        -6.02564746    -0.64619821    -0.06659286    -0.00037915    -0.00026625    -0.00010145
C        -4.70882640    -0.82130419     0.09775653     0.00042803    -0.00009225    -0.00007573
H        -6.50542160     0.24349211    -0.52935356     0.00012081     0.00031737     0.00096551
H        -6.73263470    -1.48272070     0.05196427    -0.00005277     0.00152519     0.00003948
H        -4.21938035    -1.73052377     0.49000536     0.00096792     0.00037424     0.00091084
C        -3.89966028     0.34442113    -0.07205027    -0.00047492    -0.00010709     0.00001933
C        -2.48368132     0.49740346     0.14919651     0.00012559     0.00053759    -0.00012375
H        -4.49039336     1.12109130    -0.42956038     0.00073477     0.00019024    -0.00005891
H        -2.01990952    -0.40641805     0.44934820     0.00021362     0.00114529     0.00082179
C        -1.88764675     1.67722067     0.01635670    -0.00020318    -0.00006959    -0.00007491
H        -2.40797562     2.66365839    -0.21020745    -0.00020968    -0.00074682    -0.00007431
N        -0.51889979     1.86021594     0.22016860     0.00034627    -0.00015117     0.00025512
H        -0.02359087     2.77195507     0.21752224     0.00023611    -0.00107268    -0.00038046
H         0.10691692     1.07988666     0.42898532    -0.00082149     0.00033911    -0.00152105
    14
  Step:     7            Position(A)                                  Velocity(au)
C        -6.03025142    -0.64919505    -0.06783469    -0.00045372    -0.00027837    -0.00012470
C        -4.70368584    -0.82222715     0.09703818     0.00050569    -0.00007665    -0.00005575
H        -6.50326924     0.24664270    -0.51814246     0.00026840     0.00026377     0.00107631
H        -6.73294216    -1.46572469     0.05269862    -0.00003978     0.00153101     0.00010090
H        -4.20948326    -1.72628246     0.49964738     0.00083720     0.00040346     0.00084621
C        -3.90511917     0.34301510    -0.07185261    -0.00051842    -0.00014895     0.00001712
C        -2.48236356     0.50308579     0.14787887     0.00011137     0.00049708    -0.00011663
H        -4.48300468     1.12572652    -0.43100788     0.00060328     0.00065855    -0.00020893
H        -2.01616478    -0.39474583     0.45864375     0.00047067     0.00098307     0.00087809
C        -1.88960333     1.67692585     0.01552402    -0.00015059     0.00001805    -0.00007737
H        -2.40988941     2.65370618    -0.21086803    -0.00014547    -0.00104943    -0.00005114
N        -0.51507359     1.85858358     0.22296584     0.00034607    -0.00014613     0.00025480
H        -0.02204826     2.75941514     0.21321426     0.00006909    -0.00117629    -0.00040654
H         0.09750762     1.08363244     0.41227311    -0.00084719     0.00028340    -0.00151771
    14
  Step:     8            Position(A)                                  Velocity(au)
C        -6.03557337    -0.65228801    -0.06932082    -0.00050943    -0.00028375    -0.00014597
C        -4.69776336    -0.82298110     0.09653691     0.00057016    -0.00006127    -0.00003625
H        -6.49954975     0.24926247    -0.50580713     0.00040404     0.00022449     0.00116879
H        -6.73350493    -1.44922699     0.05417171    -0.00010484     0.00142996     0.00017535
H        -4.20106493    -1.72169724     0.50851783     0.00070086     0.00043409     0.00077151
C        -3.91100165     0.34116266    -0.07167584    -0.00055314    -0.00018673     0.00001477
C        -2.48124484     0.50827802     0.14664494     0.00009009     0.00044794    -0.00010824
H        -4.47719548     1.13549823    -0.43413104     0.00046041     0.00110677    -0.00035545
H        -2.00961274    -0.38491150     0.46855816     0.00072003     0.00081934     0.00093124
C        -1.89094126     1.67761561     0.01466410    -0.00009027     0.00010861    -0.00007962
H        -2.41115798     2.64070010    -0.21132632    -0.00009639    -0.00129405    -0.00003953
N        -0.51132880     1.85701917     0.22574293     0.00033120    -0.00013929     0.00025168
H        -0.02207950     2.74622153     0.20862829    -0.00004591    -0.00118428    -0.00043197
H         0.08838298     1.08608647     0.39578249    -0.00077107     0.00010393    -0.00148338
    14
  Step:     9            Position(A)                                  Velocity(au)
C        -6.04139608    -0.65540273    -0.07102796    -0.00054509    -0.00028269    -0.00016500
C        -4.69121240    -0.82356760     0.09624503     0.00062017    -0.00004602    -0.00001764
H        -6.49443007     0.25155381    -0.49257301     0.00052161     0.00020727     0.00123903
H        -6.73523582    -1.43444147     0.05653481    -0.00025376     0.00121981     0.00026374
H        -4.19415060    -1.71678584     0.51652564     0.00056543     0.00046009     0.00069036
C        -3.91722022     0.33892995    -0.07152956    -0.00058055    -0.00021670     0.00001087
C        -2.48039277     0.51288525     0.14551100     0.00006364     0.00039039    -0.00009817
H        -4.47293231     1.14993920    -0.43878394     0.00033255     0.00149198    -0.00047988
H        -2.00041273    -0.37682109     0.47901634     0.00094845     0.00067304     0.00097391
C        -1.89157825     1.67930185     0.01378218    -0.00002273     0.00019826    -0.00008110
H        -2.41199805     2.62539629    -0.21173279    -0.00007197    -0.00145877    -0.00004386
N        -0.50782791     1.85553641     0.22847174     0.00030212    -0.00013212     0.00024638
H        -0.02305256     2.73350679     0.20376407    -0.00010031    -0.00108615    -0.00045825
H         0.08063909     1.08590609     0.37982127    -0.00060465    -0.00018654    -0.00142586
    14
  Step:    10            Position(A)                                  Velocity(au)
C        -6.04749833    -0.65847234    -0.07293046    -0.00056130    -0.00027639    -0.00018158
C        -4.68419604    -0.82398796     0.09615096     0.00065516    -0.00003096    -0.00000023
H        -6.48813862     0.25379701    -0.47870106     0.00061619     0.00021823     0.00128459
H        -6.73905633    -1.42254130     0.05994151    -0.00048034     0.00091206     0.00036511
H        -4.18869509    -1.71163181     0.52362078     0.00043711     0.00047565     0.00060657
C        -3.92370238     0.33642199    -0.07143797    -0.00060171    -0.00023578     0.00000432
C        -2.47985267     0.51681861     0.14449721     0.00003411     0.00032539    -0.00008616
H        -4.46992033     1.16813809    -0.44462925     0.00023873     0.00177973    -0.00056761
H        -1.98886353    -0.37018750     0.48986439     0.00114433     0.00055929     0.00099953
C        -1.89143848     1.68195284     0.01288995     0.00005132     0.00028295    -0.00008121
H        -2.41273237     2.60878672    -0.21228583    -0.00008164    -0.00152340    -0.00006836
N        -0.50471928     1.85412880     0.23113305     0.00026102    -0.00012671     0.00023982
H        -0.02427390     2.72245990     0.19860326    -0.00009249    -0.00088398    -0.00048692
H         0.07515503     1.08200562     0.36458906    -0.00037550    -0.00055376    -0.00135610
    14
  Step:    11            Position(A)                                  Velocity(au)
C        -6.05367558    -0.66144919    -0.07500038    -0.00056048    -0.00026715    -0.00019548
C        -4.67687949    -0.82424493     0.09624009     0.00067521    -0.00001629     0.00001576
H        -6.48094967     0.25632803    -0.46447008     0.00068451     0.00026095     0.00130480
H        -6.74574413    -1.41448839     0.06452220    -0.00076385     0.00053406     0.00047579
H        -4.18458791    -1.70638006     0.52979562     0.00032147     0.00047556     0.00052393
C        -3.93038389     0.33377173    -0.07143502    -0.00061701    -0.00024207    -0.00000550
C        -2.47964661     0.52000368     0.14362613     0.00000354     0.00025457    -0.00007207
H        -4.46770971     1.18887421    -0.45120160     0.00018786     0.00194942    -0.00061040
H        -1.97537831    -0.36458553     0.50088295     0.00129880     0.00048760     0.00100318
C        -1.89045562     1.68549195     0.01200552     0.00013084     0.00035882    -0.00007943
H        -2.41378412     2.59206895    -0.21322827    -0.00013327    -0.00147272    -0.00011639
N        -0.50211767     1.85276436     0.23371817     0.00021163    -0.00012528     0.00023288
H        -0.02507588     2.71416813     0.19311171    -0.00002956    -0.00059537    -0.00051905
H         0.07242440     1.07379156     0.35015403    -0.00012316    -0.00094587    -0.00128561
    14
  Step:    12            Position(A)                                  Velocity(au)
C        -6.05975993    -0.66431676    -0.07720689    -0.00054664    -0.00025811    -0.00020639
C        -4.66942449    -0.82434429     0.09649570     0.00068081    -0.00000236     0.00003016
H        -6.47316358     0.25950589    -0.45015605     0.00072521     0.00033565     0.00130089
H        -6.75576709    -1.41085763     0.07035030    -0.00107051     0.00012645     0.00058913
H        -4.18166235    -1.70122811     0.53508267     0.00022308     0.00045561     0.00044586
C        -3.93720055     0.33112631    -0.07155828    -0.00062614    -0.00023484    -0.00001867
C        -2.47977518     0.52238788     0.14292050    -0.00002623     0.00018020    -0.00005600
H        -4.46581061     1.21078533    -0.45798284     0.00017938     0.00199533    -0.00060657
H        -1.96044980    -0.35952041     0.51181080     0.00140630     0.00046123     0.00098223
C        -1.88857613     1.68980281     0.01115227     0.00021443     0.00042276    -0.00007538
H        -2.41564789     2.57656823    -0.21483204    -0.00023059    -0.00130102    -0.00018931
N        -0.50008940     1.85138803     0.23622774     0.00015868    -0.00012943     0.00022624
H        -0.02492054     2.70943513     0.18724809     0.00007240    -0.00025356    -0.00055459
H         0.07246072     1.06131280     0.33646398     0.00010925    -0.00130394    -0.00122346
    14
  Step:    13            Position(A)                                  Velocity(au)
C        -6.06563431    -0.66709586    -0.07951560    -0.00052458    -0.00025255    -0.00021401
C        -4.66198557    -0.82429646     0.09689980     0.00067268     0.00001035     0.00004289
H        -6.46508428     0.26367111    -0.43601053     0.00073904     0.00043841     0.00127605
H        -6.76916369    -1.41172210     0.07741055    -0.00135986    -0.00026449     0.00069623
H        -4.17970760    -1.69641265     0.53954970     0.00014529     0.00041309     0.00037522
C        -3.94408198     0.32863420    -0.07184344    -0.00062842    -0.00021439    -0.00003485
C        -2.48022039     0.52394594     0.14240099    -0.00005368     0.00010488    -0.00003822
H        -4.46378538     1.23252591    -0.46447142     0.00020618     0.00192411    -0.00055978
H        -1.94461273    -0.35449534     0.52237114     0.00146454     0.00047793     0.00093635
C        -1.88576447     1.69474059     0.01035634     0.00030010     0.00047292    -0.00006901
H        -2.41882861     2.56360669    -0.21736982    -0.00037022    -0.00101665    -0.00028527
N        -0.49864623     1.84993285     0.23866771     0.00010697    -0.00013949     0.00022017
H        -0.02349192     2.70862109     0.18097889     0.00019069     0.00009698    -0.00059204
H         0.07481449     1.04526536     0.32338850     0.00028484    -0.00157534    -0.00117430
    14
  Step:    14            Position(A)                                  Velocity(au)
C        -6.07123621    -0.66984178    -0.08188874    -0.00049902    -0.00025307    -0.00021809
C        -4.65470842    -0.82411794     0.09743395     0.00065167     0.00002120     0.00005395
H        -6.45699566     0.26909685    -0.42224003     0.00072881     0.00056076     0.00123513
H        -6.78551657    -1.41664376     0.08558177    -0.00159373    -0.00059659     0.00078764
H        -4.17848390    -1.69219104     0.54329128     0.00008994     0.00034713     0.00031391
C        -3.95094837     0.32643603    -0.07232059    -0.00062296    -0.00018170    -0.00005343
C        -2.48094943     0.52468239     0.14208435    -0.00007763     0.00003134    -0.00001915
H        -4.46129993     1.25287899    -0.47022901     0.00025801     0.00175043    -0.00047691
H        -1.92841011    -0.34906473     0.53229521     0.00147410     0.00053126     0.00086718
C        -1.88201078     1.70014893     0.00964265     0.00038511     0.00050913    -0.00006062
H        -2.42374717     2.55432700    -0.22107278    -0.00053937    -0.00064448    -0.00039821
N        -0.49774924     1.84833645     0.24104446     0.00006059    -0.00015435     0.00021452
H        -0.02074876     2.71155670     0.17429603     0.00030043     0.00040873    -0.00062843
H         0.07869225     1.02684932     0.31077385     0.00038009    -0.00172463    -0.00113811
    14
  Step:    15            Position(A)                                  Velocity(au)
C        -6.07655140    -0.67263217    -0.08428666    -0.00047372    -0.00026092    -0.00021856
C        -4.64772915    -0.82383269     0.09808011     0.00061865     0.00002950     0.00006342
H        -6.44914012     0.27593891    -0.40898974     0.00069899     0.00069019     0.00118409
H        -6.80402949    -1.42477359     0.09464175    -0.00174434    -0.00084012     0.00085531
H        -4.17774009    -1.68881843     0.54641703     0.00005723     0.00025912     0.00026266
C        -3.95771045     0.32465921    -0.07301240    -0.00060901    -0.00013812    -0.00007372
C        -2.48191863     0.52463162     0.14198203    -0.00009725    -0.00003777     0.00000069
H        -4.45814097     1.27081994    -0.47490469     0.00032398     0.00149317    -0.00036634
H        -1.91236400    -0.34287309     0.54134231     0.00143794     0.00061190     0.00077795
C        -1.87733946     1.70587888     0.00903014     0.00046599     0.00053277    -0.00005097
H        -2.43062837     2.54950755    -0.22608151    -0.00071580    -0.00022387    -0.00051801
N        -0.49732070     1.84655613     0.24336064     0.00002239    -0.00017184     0.00020884
H        -0.01691941     2.71756273     0.16723077     0.00037977     0.00064056    -0.00065992
H         0.08312960     1.00753578     0.29849015     0.00038698    -0.00173797    -0.00111148
    14
  Step:    16            Position(A)                                  Velocity(au)
C        -6.08159964    -0.67554992    -0.08667024    -0.00045104    -0.00027586    -0.00021560
C        -4.64117417    -0.82347255     0.09882144     0.00057456     0.00003455     0.00007144
H        -6.44170384     0.28419597    -0.39633575     0.00065498     0.00081138     0.00112913
H        -6.82367734    -1.43502298     0.10429330    -0.00179818    -0.00098125     0.00089404
H        -4.17723194    -1.68652240     0.54903756     0.00004572     0.00015272     0.00022088
C        -3.96427166     0.32341447    -0.07393339    -0.00058606    -0.00008527    -0.00009497
C        -2.48307706     0.52385603     0.14209933    -0.00011205    -0.00010008     0.00002071
H        -4.45421229     1.28554500    -0.47824348     0.00039406     0.00117267    -0.00023674
H        -1.89695247    -0.33567830     0.54931442     0.00136082     0.00070911     0.00067299
C        -1.87181629     1.71180430     0.00852767     0.00053891     0.00054626    -0.00004106
H        -2.43940664     2.54942940    -0.23240534    -0.00087123     0.00019835    -0.00063190
N        -0.49725939     1.84457709     0.24561321    -0.00000618    -0.00018941     0.00020263
H        -0.01244066     2.72557020     0.15985891     0.00041398     0.00076516    -0.00068270
H         0.08715811     0.98882785     0.28645810     0.00031083    -0.00162104    -0.00108949
    14
  Step:    17            Position(A)                                  Velocity(au)
C        -6.08641871    -0.67866715    -0.08900335    -0.00043199    -0.00029641    -0.00020954
C        -4.63515963    -0.82307685     0.09964296     0.00052036     0.00003573     0.00007819
H        -6.43481117     0.29368938    -0.38428782     0.00060221     0.00090840     0.00107575
H        -6.84336812    -1.44624036     0.11420068    -0.00175524    -0.00102067     0.00090196
H        -4.17673994    -1.68547744     0.55124927     0.00005243     0.00003383     0.00018662
C        -3.97053170     0.32279371    -0.07509004    -0.00055394    -0.00002501    -0.00011645
C        -2.48436996     0.52244216     0.14243516    -0.00012181    -0.00015357     0.00004035
H        -4.44952016     1.29647441    -0.48008387     0.00045955     0.00080933    -0.00009647
H        -1.88259348    -0.32736001     0.55606530     0.00124879     0.00081174     0.00055727
C        -1.86554984     1.71782929     0.00813190     0.00060014     0.00055226    -0.00003199
H        -2.44968811     2.55384693    -0.23990551    -0.00097727     0.00057786    -0.00072701
N        -0.49745581     1.84241234     0.24779355    -0.00002488    -0.00020479     0.00019546
H        -0.00786289     2.73430200     0.15229536     0.00039719     0.00077196    -0.00069378
H         0.08992969     0.97207251     0.27465544     0.00016591    -0.00139327    -0.00106728
    14
  Step:    18            Position(A)                                  Velocity(au)
C        -6.09105015    -0.68203437    -0.09125438    -0.00041648    -0.00032039    -0.00020082
C        -4.62979040    -0.82269084     0.10053206     0.00045718     0.00003263     0.00008391
H        -6.42852943     0.30406903    -0.37280165     0.00054531     0.00096702     0.00102804
H        -6.86207667    -1.45735206     0.12402540    -0.00162535    -0.00096929     0.00088003
H        -4.17608492    -1.68578232     0.55312016     0.00007319    -0.00008990     0.00015680
C        -3.97639023     0.32286734    -0.07648091    -0.00051283     0.00004055    -0.00013743
C        -2.48574183     0.52049648     0.14298202    -0.00012657    -0.00019659     0.00005901
H        -4.44415886     1.30325069    -0.48035393     0.00051293     0.00042339     0.00004644
H        -1.86963286    -0.31791988     0.56150574     0.00110884     0.00090883     0.00043611
C        -1.85868713     1.72388597     0.00782793     0.00064663     0.00055291    -0.00002467
H        -2.46078639     2.56207117    -0.24831001    -0.00101174     0.00088149    -0.00079305
N        -0.49780359     1.84009698     0.24988917    -0.00003435    -0.00021630     0.00018707
H        -0.00375130     2.74245832     0.14468124     0.00033181     0.00066592    -0.00069150
H         0.09078760     0.95834746     0.26310921    -0.00002894    -0.00108175    -0.00104097
    14
  Step:    19            Position(A)                                  Velocity(au)
C        -6.09552990    -0.68567641    -0.09339671    -0.00040375    -0.00034555    -0.00018987
C        -4.62515805    -0.82236296     0.10147873     0.00038633     0.00002514     0.00008882
H        -6.42288156     0.31484470    -0.36179759     0.00048755     0.00097668     0.00098826
H        -6.87892580    -1.46744537     0.13345292    -0.00142369    -0.00084343     0.00083118
H        -4.17513869    -1.68744424     0.55467953     0.00010310    -0.00020987     0.00012766
C        -3.98175073     0.32368073    -0.07809649    -0.00046322     0.00010891    -0.00015715
C        -2.48713885     0.51814129     0.14372619    -0.00012659    -0.00022793     0.00007616
H        -4.43829876     1.30573686    -0.47906788     0.00054758     0.00003516     0.00018417
H        -1.85833538    -0.30747755     0.56560606     0.00094870     0.00098998     0.00031499
C        -1.85140366     1.72992527     0.00759230     0.00067635     0.00054946    -0.00001970
H        -2.47182182     2.57313113    -0.25725502    -0.00096249     0.00109151    -0.00082396
N        -0.49820732     1.83768043     0.25188597    -0.00003583    -0.00022294     0.00017741
H        -0.00060382     2.74887017     0.13716745     0.00022645     0.00046362    -0.00067569
H         0.08929665     0.94840726     0.25188213    -0.00025315    -0.00071674    -0.00100798
    14
  Step:    20            Position(A)                                  Velocity(au)
C        -6.09988292    -0.68959392    -0.09540819    -0.00039269    -0.00036985    -0.00017706
C        -4.62133867    -0.82214085     0.10247527     0.00030933     0.00001354     0.00009311
H        -6.41786333     0.32543569    -0.35118160     0.00043068     0.00093165     0.00095690
H        -6.89322253    -1.47580369     0.14220898    -0.00116747    -0.00066133     0.00075950
H        -4.17382943    -1.69037354     0.55591301     0.00013704    -0.00031747     0.00009529
C        -3.98652395     0.32524998    -0.07991889    -0.00040589     0.00017719    -0.00017483
C        -2.48851129     0.51551017     0.14464816    -0.00012235    -0.00024673     0.00009128
H        -4.43217951     1.30401982    -0.47632488     0.00055722    -0.00033440     0.00030885
H        -1.84887819    -0.29626208     0.56839669     0.00077656     0.00104570     0.00019933
C        -1.84389072     1.73590645     0.00739691     0.00068843     0.00054228    -0.00001734
H        -2.48184265     2.58595001    -0.26633571    -0.00082806     0.00120497    -0.00081814
N        -0.49858734     1.83521967     0.25377040    -0.00003087    -0.00022424     0.00016662