     6
  Step:     0            Position(A)                                  Velocity(au)
C        -0.03589276     0.00987361     0.00608878     0.00010019     0.00007722     0.00007600
N        -0.04564667    -0.04667695     1.31279833    -0.00011287     0.00002469    -0.00004912
H         0.90772799     0.00576986    -0.55862587    -0.00019982    -0.00034715     0.00015467
H         0.88894858    -0.15210636     1.88008122     0.00049633    -0.00041139     0.00058843
H        -0.94434040    -0.10118491     1.76352273     0.00117059    -0.00009691    -0.00031458
H        -1.00325141     0.10872801    -0.50859892    -0.00109248    -0.00040773    -0.00065156
     6
  Step:     1            Position(A)                                  Velocity(au)
C        -0.03533658     0.01029501     0.00643697     0.00010250     0.00007705     0.00005079
N        -0.04620481    -0.04654311     1.31261281    -0.00009003     0.00002429    -0.00001888
H         0.90671672     0.00387741    -0.55797644    -0.00016917    -0.00034517     0.00008139
H         0.89103557    -0.15430930     1.88303662     0.00026268    -0.00039371     0.00048860
H        -0.93818876    -0.10178485     1.76214241     0.00106439    -0.00012358    -0.00018227
H        -1.00935010     0.10654243    -0.51239457    -0.00112815    -0.00039310    -0.00073055
     6
  Step:     2            Position(A)                                  Velocity(au)
C        -0.03477196     0.01071610     0.00664415     0.00010345     0.00007721     0.00002457
N        -0.04663116    -0.04641135     1.31259185    -0.00006502     0.00002398     0.00001096
H         0.90587816     0.00199551    -0.55773586    -0.00013718    -0.00034381     0.00000541
H         0.89182097    -0.15641147     1.88542403     0.00002230    -0.00037528     0.00038249
H        -0.93270148    -0.10253619     1.76152968     0.00093082    -0.00015242    -0.00003500
H        -1.01558751     0.10442956    -0.51658736    -0.00114502    -0.00038161    -0.00079804
     6
  Step:     3            Position(A)                                  Velocity(au)
C        -0.03420623     0.01113865     0.00670548     0.00010310     0.00007770    -0.00000248
N        -0.04691531    -0.04628113     1.31273257    -0.00003834     0.00002378     0.00004027
H         0.90521782     0.00012068    -0.55791731    -0.00010445    -0.00034316    -0.00007291
H         0.89127920    -0.15840992     1.88721605    -0.00022154    -0.00035655     0.00027235
H        -0.92801783    -0.10345032     1.76175997     0.00077404    -0.00018333     0.00012503
H        -1.02186159     0.10237268    -0.52111461    -0.00114376    -0.00037313    -0.00085454
     6
  Step:     4            Position(A)                                  Velocity(au)
C        -0.03364635     0.01156439     0.00661711     0.00010152     0.00007850    -0.00003020
N        -0.04704977    -0.04615177     1.31303149    -0.00001054     0.00002371     0.00006896
H         0.90473782    -0.00175102    -0.55853192    -0.00007159    -0.00034328    -0.00015323
H         0.88940227    -0.16030420     1.88839749    -0.00046573    -0.00033793     0.00016031
H        -0.92425076    -0.10453774     1.76289476     0.00059915    -0.00021610     0.00029508
H        -1.02807478     0.10035583    -0.52591701    -0.00112512    -0.00036749    -0.00090065
     6
  Step:     5            Position(A)                                  Velocity(au)
C        -0.03309881     0.01199493     0.00637607     0.00009879     0.00007958    -0.00005842
N        -0.04703029    -0.04602251     1.31348482     0.00001777     0.00002379     0.00009700
H         0.90443695    -0.00362381    -0.55958871    -0.00003919    -0.00034415    -0.00023512
H         0.88619901    -0.16209607     1.88896473    -0.00070710    -0.00031978     0.00004848
H        -0.92148223    -0.10580755     1.76497876     0.00041208    -0.00025041     0.00047184
H        -1.03413446     0.09836412    -0.53093897    -0.00108987    -0.00036442    -0.00093693
     6
  Step:     6            Position(A)                                  Velocity(au)
C        -0.03256970     0.01243173     0.00598036     0.00009494     0.00008090    -0.00008696
N        -0.04685610    -0.04589253     1.31408863     0.00004591     0.00002401     0.00012432
H         0.90431072    -0.00550184    -0.56109442    -0.00000786    -0.00034571    -0.00031809
H         0.88169569    -0.16378943     1.88892590    -0.00094215    -0.00030249    -0.00006087
H        -0.91975961    -0.10726688     1.76803719     0.00021936    -0.00028580     0.00065143
H        -1.03995299     0.09638406    -0.53612845    -0.00103870    -0.00036364    -0.00096385
     6
  Step:     7            Position(A)                                  Velocity(au)
C        -0.03206478     0.01287603     0.00542902     0.00009004     0.00008240    -0.00011558
N        -0.04653029    -0.04576100     1.31483875     0.00007313     0.00002439     0.00015084
H         0.90435135    -0.00738888    -0.56305299     0.00002177    -0.00034782    -0.00040150
H         0.87593825    -0.16539040     1.88830176    -0.00116671    -0.00028644    -0.00016522
H        -0.91909319    -0.10892019     1.77207336     0.00002799    -0.00032170     0.00082951
H        -1.04544677     0.09440379    -0.54143606    -0.00097221    -0.00036478    -0.00098168
     6
  Step:     8            Position(A)                                  Velocity(au)
C        -0.03158958     0.01332870     0.00472227     0.00008412     0.00008401    -0.00014400
N        -0.04606009    -0.04562707     1.31573054     0.00009861     0.00002491     0.00017640
H         0.90454764    -0.00928791    -0.56546479     0.00004903    -0.00035028    -0.00048450
H         0.86899588    -0.16690741     1.88712743    -0.00137583    -0.00027210    -0.00026163
H        -0.91945492    -0.11076862     1.77706655    -0.00015488    -0.00035736     0.00100133
H        -1.05053568     0.09241336    -0.54681415    -0.00089099    -0.00036744    -0.00099056
     6
  Step:     9            Position(A)                                  Velocity(au)
C        -0.03114935     0.01379027     0.00386190     0.00007722     0.00008563    -0.00017188
N        -0.04545717    -0.04548988     1.31675841     0.00012149     0.00002559     0.00020073
H         0.90488488    -0.01120082    -0.56832557     0.00007324    -0.00035282    -0.00056602
H         0.86096562    -0.16835158     1.88545459    -0.00156364    -0.00025999    -0.00034669
H        -0.92077874    -0.11280923     1.78297050    -0.00032227    -0.00039194     0.00116192
H        -1.05514304     0.09040503    -0.55221595    -0.00079569    -0.00037117    -0.00099051
     6
  Step:    10            Position(A)                                  Velocity(au)
C        -0.03074914     0.01426074     0.00285154     0.00006939     0.00008718    -0.00019880
N        -0.04473783    -0.04534856     1.31791528     0.00014088     0.00002642     0.00022347
H         0.90534480    -0.01312802    -0.57162529     0.00009373    -0.00035515    -0.00064478
H         0.85197732    -0.16973715     1.88335402    -0.00172344    -0.00025074    -0.00041660
H        -0.92296252    -0.11503447     1.78971280    -0.00046771    -0.00042449     0.00130630
H        -1.05919589     0.08837352    -0.55759482    -0.00068713    -0.00037549    -0.00098146
     6
  Step:    11            Position(A)                                  Velocity(au)
C        -0.03039372     0.01473961     0.00169707     0.00006070     0.00008854    -0.00022429
N        -0.04392306    -0.04520218     1.31919191     0.00015594     0.00002741     0.00024415
H         0.90590555    -0.01506827    -0.57534693     0.00010983    -0.00035694    -0.00071932
H         0.84219808    -0.17108201     1.88091796    -0.00184806    -0.00024505    -0.00046725
H        -0.92587189    -0.11743177     1.79719559    -0.00058566    -0.00045405     0.00142986
H        -1.06262562     0.08631612    -0.56290371    -0.00056643    -0.00037989    -0.00096339
     6
  Step:    12            Position(A)                                  Velocity(au)
C        -0.03008748     0.01522581     0.00040681     0.00005126     0.00008962    -0.00024788
N        -0.04303818    -0.04504975     1.32057643     0.00016591     0.00002859     0.00026224
H         0.90654195    -0.01701857    -0.57946567     0.00012100    -0.00035787    -0.00078814
H         0.83183414    -0.17240807     1.87826113    -0.00193039    -0.00024369    -0.00049456
H        -0.92934605    -0.11998347     1.80529773    -0.00067187    -0.00047970     0.00152861
H        -1.06536974     0.08423280    -0.56809538    -0.00043510    -0.00038393    -0.00093639
     6
  Step:    13            Position(A)                                  Velocity(au)
C        -0.02983423     0.01571773    -0.00100824     0.00004120     0.00009033    -0.00026908
N        -0.04211240    -0.04489013     1.32205397     0.00017020     0.00002998     0.00027721
H         0.90722611    -0.01897400    -0.58394854     0.00012679    -0.00035766    -0.00084974
H         0.82113015    -0.17374154     1.87552042    -0.00196411    -0.00024744    -0.00049482
H        -0.93320453    -0.12266715     1.81387858    -0.00072370    -0.00050066     0.00159963
H        -1.06737420     0.08212594    -0.57312326    -0.00029509    -0.00038718    -0.00090083
     6
  Step:    14            Position(A)                                  Velocity(au)
C        -0.02963708     0.01621328    -0.00253465     0.00003068     0.00009061    -0.00028750
N        -0.04117767    -0.04472203     1.32360669     0.00016847     0.00003160     0.00028856
H         0.90792790    -0.02092834    -0.58875455     0.00012691    -0.00035614    -0.00090282
H         0.81036364    -0.17511293     1.87285202    -0.00194447    -0.00025702    -0.00046518
H        -0.93725711    -0.12545642     1.82278397    -0.00074038    -0.00051636     0.00164126
H        -1.06859549     0.08000036    -0.57794269    -0.00014871    -0.00038928    -0.00085735
     6
  Step:    15            Position(A)                                  Velocity(au)
C        -0.02949824     0.01671003    -0.00415678     0.00001988     0.00009040    -0.00030281
N        -0.04026743    -0.04454400     1.32521413     0.00016063     0.00003350     0.00029593
H         0.90861603    -0.02287429    -0.59383583     0.00012132    -0.00035319    -0.00094637
H         0.79983519    -0.17655636     1.87042593    -0.00186903    -0.00027299    -0.00040406
H        -0.94131282    -0.12832213     1.83185292    -0.00072285    -0.00052650     0.00165322
H        -1.06900285     0.07786274    -0.58251255     0.00000144    -0.00038998    -0.00080690
     6
  Step:    16            Position(A)                                  Velocity(au)
C        -0.02941892     0.01720530    -0.00585738     0.00000901     0.00008971    -0.00031482
N        -0.03941503    -0.04435446     1.32685396     0.00014692     0.00003568     0.00029913
H         0.90925918    -0.02480394    -0.59913923     0.00011015    -0.00034879    -0.00097978
H         0.78985454    -0.17810850     1.86841819    -0.00173824    -0.00029563    -0.00031152
H        -0.94518901    -0.13123376     1.84092501    -0.00067359    -0.00053104     0.00163659
H        -1.06857969     0.07572103    -0.58679689     0.00015268    -0.00038916    -0.00075069
     6
  Step:    17            Position(A)                                  Velocity(au)
C        -0.02939922     0.01769634    -0.00761820    -0.00000175     0.00008852    -0.00032347
N        -0.03865203    -0.04415174     1.32850303     0.00012785     0.00003815     0.00029816
H         0.90982714    -0.02670928    -0.60460848     0.00009373    -0.00034302    -0.00100281
H         0.78072330    -0.17980678     1.86700073    -0.00155566    -0.00032486    -0.00018950
H        -0.94871892    -0.13416093     1.84984727    -0.00059629    -0.00053022     0.00159358
H        -1.06732418     0.07358390    -0.59076643     0.00030234    -0.00038678    -0.00069014
     6
  Step:    18            Position(A)                                  Velocity(au)
C        -0.02943815     0.01818045    -0.00942077    -0.00001219     0.00008688    -0.00032882
N        -0.03800659    -0.04393419     1.33013854     0.00010421     0.00004090     0.00029325
H         0.91029174    -0.02858270    -0.61018630     0.00007253    -0.00033600    -0.00101558
H         0.77271716    -0.18168717     1.86633066    -0.00132793    -0.00036018    -0.00004182
H        -0.95175779    -0.13707477     1.85848009    -0.00049546    -0.00052449     0.00152724
H        -1.06524908     0.07146019    -0.59439952     0.00044794    -0.00038289    -0.00062671
     6
  Step:    19            Position(A)                                  Velocity(au)
C        -0.02953369     0.01865511    -0.01124697    -0.00002214     0.00008482    -0.00033100
N        -0.03750200    -0.04370036     1.33173925     0.00007698     0.00004389     0.00028479
H         0.91062759    -0.03041728    -0.61581628     0.00004713    -0.00032788    -0.00101850
H         0.76606853    -0.18378162     1.86653926    -0.00106436    -0.00040061     0.00012591
H        -0.95418670    -0.13994906     1.86670157    -0.00037600    -0.00051442     0.00144112
H        -1.06238083     0.06935845    -0.59768265     0.00058721    -0.00037756    -0.00056189
     6
  Step:    20            Position(A)                                  Velocity(au)
C        -0.02968284     0.01911799    -0.01307952    -0.00003144     0.00008238    -0.00033020
N        -0.03715563    -0.04344908     1.33328651     0.00004731     0.00004703     0.00027333
H         0.91081268    -0.03220698    -0.62144442     0.00001817    -0.00031884    -0.00101211
H         0.76095214    -0.18611542     1.86772244    -0.00077630    -0.00044474     0.00030663
H        -0.95591400    -0.14276092     1.87440970    -0.00024286    -0.00050066     0.00133893
H        -1.05875825     0.06728673    -0.60061046     0.00071812    -0.00037092    -0.00049709
     6
  Step:    21            Position(A)                                  Velocity(au)
C        -0.02988171     0.01956703    -0.01490222    -0.00003995     0.00007961    -0.00032663
N        -0.03697824    -0.04317972     1.33476497     0.00001641     0.00005024     0.00025951
H         0.91082868    -0.03394669    -0.62701994    -0.00001367    -0.00030901    -0.00099702
H         0.75747519    -0.18870477     1.86993353    -0.00047635    -0.00049073     0.00049226
H        -0.95687513    -0.14549115     1.88152304    -0.00010083    -0.00048387     0.00122430
H        -1.05443143     0.06525248    -0.60318523     0.00083881    -0.00036304    -0.00043358
     6
  Step:    22            Position(A)                                  Velocity(au)
C        -0.03012563     0.02000037    -0.01670001    -0.00004948     0.00007944    -0.00037385
N        -0.03697372    -0.04289223     1.33616296    -0.00001455     0.00005181     0.00028592
H         0.91066114    -0.03563211    -0.63249568    -0.00006872    -0.00034604    -0.00092811
H         0.75567217    -0.19155481     1.87317881    -0.00018772    -0.00048845     0.00066078
H        -0.95703164    -0.14812422     1.88798016     0.00006355    -0.00051648     0.00107869
H        -1.04946065     0.06326267    -0.60541633     0.00098471    -0.00031551    -0.00032969
     6
  Step:    23            Position(A)                                  Velocity(au)
C        -0.03043095     0.02044872    -0.01905175    -0.00005941     0.00008177    -0.00047202
N        -0.03713972    -0.04260465     1.33793844    -0.00004468     0.00005154     0.00035358
H         0.91006589    -0.03778748    -0.63732133    -0.00014541    -0.00041488    -0.00080566
H         0.75539163    -0.19412629     1.87726779     0.00007686    -0.00045157     0.00079873
H        -0.95616974    -0.15122374     1.89349581     0.00024679    -0.00058162     0.00090503
H        -1.04350177     0.06175049    -0.60684459     0.00115058    -0.00024242    -0.00018704
     6
  Step:    24            Position(A)                                  Velocity(au)
C        -0.03078625     0.02090950    -0.02194827    -0.00006726     0.00008342    -0.00056471
N        -0.03747045    -0.04231916     1.34009437    -0.00007292     0.00005088     0.00041878
H         0.90904435    -0.04024503    -0.64145366    -0.00021974    -0.00046007    -0.00067774
H         0.75652680    -0.19657567     1.88205971     0.00031778    -0.00043339     0.00091033
H        -0.95428769    -0.15459113     1.89804304     0.00042481    -0.00061888     0.00072882
H        -1.03666763     0.06056727    -0.60749597     0.00129193    -0.00018868    -0.00005177
     6
  Step:    25            Position(A)                                  Velocity(au)
C        -0.03118058     0.02137849    -0.02534594    -0.00007299     0.00008416    -0.00064694
N        -0.03795248    -0.04203753     1.34260607    -0.00009798     0.00004984     0.00047763
H         0.90761671    -0.04291532    -0.64487528    -0.00028835    -0.00049067    -0.00054842
H         0.75893355    -0.19895680     1.88741422     0.00052758    -0.00042098     0.00099371
H        -0.95143481    -0.15812170     1.90161911     0.00058904    -0.00063938     0.00055461
H        -1.02910211     0.05964745    -0.60742166     0.00140306    -0.00014441     0.00007179
     6
  Step:    26            Position(A)                                  Velocity(au)
C        -0.03160238     0.02185055    -0.02918209    -0.00007651     0.00008388    -0.00071580
N        -0.03856602    -0.04176184     1.34543500    -0.00011881     0.00004839     0.00052802
H         0.90582015    -0.04573144    -0.64758583    -0.00034828    -0.00050982    -0.00042114
H         0.76242594    -0.20128284     1.89317095     0.00069940    -0.00040864     0.00104591
H        -0.94770129    -0.16174034     1.90424439     0.00073242    -0.00064740     0.00038715
H        -1.02097928     0.05895252    -0.60669326     0.00147920    -0.00010604     0.00017994
     6
  Step:    27            Position(A)                                  Velocity(au)
C        -0.03203935     0.02231999    -0.03338020    -0.00007779     0.00008258    -0.00076974
N        -0.03928605    -0.04149439     1.34853274    -0.00013471     0.00004655     0.00056884
H         0.90370751    -0.04863770    -0.64960229    -0.00039721    -0.00051967    -0.00029943
H         0.76678384    -0.20354347     1.89915372     0.00082899    -0.00039335     0.00106595
H        -0.94321392    -0.16538824     1.90596456     0.00084948    -0.00064605     0.00023138
H        -1.01249918     0.05845725    -0.60540198     0.00151772    -0.00007178     0.00026957
     6
  Step:    28            Position(A)                                  Velocity(au)
C        -0.03247904     0.02278121    -0.03785653    -0.00007696     0.00008043    -0.00080908
N        -0.04008411    -0.04123730     1.35184543    -0.00014546     0.00004442     0.00060024
H         0.90134389    -0.05158773    -0.65096022    -0.00043391    -0.00052245    -0.00018664
H         0.77176800    -0.20571556     1.90518340     0.00091590    -0.00037399     0.00105598
H        -0.93812834    -0.16902082     1.90685187     0.00093723    -0.00063857     0.00009178
H        -1.00387571     0.05814362    -0.60365540     0.00151924    -0.00004068     0.00033877
     6
  Step:    29            Position(A)                                  Velocity(au)
C        -0.03290964     0.02322953    -0.04252966    -0.00007429     0.00007771    -0.00083606
N        -0.04093101    -0.04099202     1.35532052    -0.00015138     0.00004221     0.00062376
H         0.89880060    -0.05454582    -0.65171288    -0.00045852    -0.00052084    -0.00008529
H         0.77714129    -0.20777277     1.91109526     0.00096383    -0.00035090     0.00102110
H        -0.93261526    -0.17260945     1.90700250     0.00099578    -0.00062864    -0.00002848
H        -0.99531887     0.05799717    -0.60157104     0.00148776    -0.00001215     0.00038722
     6
  Step:    30            Position(A)                                  Velocity(au)
C        -0.03332090     0.02366191    -0.04733114    -0.00007013     0.00007479    -0.00085425
N        -0.04179962    -0.04075898     1.35891414    -0.00015315     0.00004011     0.00064190
H         0.89614767    -0.05749018    -0.65192672    -0.00047219    -0.00051777     0.00000338
H         0.78269064    -0.20969219     1.91675507     0.00097934    -0.00032514     0.00096794
H        -0.92684364    -0.17614485     1.90652915     0.00102757    -0.00062008    -0.00012805
H        -0.98701565     0.05800594    -0.59926723     0.00142915     0.00001444     0.00041605
     6
  Step:    31            Position(A)                                  Velocity(au)
C        -0.03370457     0.02407722    -0.05221256    -0.00006479     0.00007193    -0.00086724
N        -0.04266690    -0.04053733     1.36259636    -0.00015150     0.00003833     0.00065717
H         0.89344837    -0.06041465    -0.65167456    -0.00047625    -0.00051571     0.00007936
H         0.78824202    -0.21145821     1.92206682     0.00096951    -0.00029777     0.00090255
H        -0.92096785    -0.17963806     1.90555104     0.00103557    -0.00061612    -0.00020710
H        -0.97911958     0.05816086    -0.59685516     0.00134855     0.00003979     0.00042694
     6
  Step:    32            Position(A)                                  Velocity(au)
C        -0.03405411     0.02447593    -0.05714531    -0.00005843     0.00006930    -0.00087729
N        -0.04351410    -0.04032517     1.36635109    -0.00014696     0.00003698     0.00067117
H         0.89075815    -0.06332626    -0.65102864    -0.00047140    -0.00051615     0.00014330
H         0.79366215    -0.21306192     1.92696881     0.00093989    -0.00026936     0.00082893
H        -0.91512450    -0.18311717     1.90418548     0.00102151    -0.00061870    -0.00026641
H        -0.97175463     0.05845622    -0.59443577     0.00124854     0.00006460     0.00042122
     6
  Step:    33            Position(A)                                  Velocity(au)
C        -0.03436401     0.02485932    -0.06211350    -0.00005109     0.00006689    -0.00088496
N        -0.04432552    -0.04011998     1.37017104    -0.00013975     0.00003609     0.00068417
H         0.88812827    -0.06623988    -0.65005726    -0.00045737    -0.00051947     0.00019582
H         0.79884944    -0.21449815     1.93142204     0.00089387    -0.00023996     0.00074905
H        -0.90943925    -0.18662060     1.90254434     0.00098523    -0.00062847    -0.00030663
H        -0.96502878     0.05888991    -0.59210138     0.00112904     0.00008943     0.00039951
     6
  Step:    34            Position(A)                                  Velocity(au)
C        -0.03462908     0.02522866    -0.06710450    -0.00004277     0.00006460    -0.00088955
N        -0.04508678    -0.03991904     1.37405062    -0.00012988     0.00003565     0.00069550
H         0.88561093    -0.06917228    -0.64882490    -0.00043333    -0.00052528     0.00023715
H         0.80372157    -0.21576243     1.93539853     0.00083341    -0.00020941     0.00066375
H        -0.90403684    -0.19018992     1.90073476     0.00092552    -0.00064513    -0.00032803
H        -0.95904861     0.05946264    -0.58993973     0.00098892     0.00011461     0.00036209
     6
  Step:    35            Position(A)                                  Velocity(au)
C        -0.03484431     0.02558473    -0.07210198    -0.00003354     0.00006235    -0.00088994
N        -0.04578386    -0.03971966     1.37798062    -0.00011739     0.00003565     0.00070413
H         0.88326251    -0.07213805    -0.64739439    -0.00039842    -0.00053290     0.00026725
H         0.80820757    -0.21684960     1.93887513     0.00076014    -0.00017764     0.00057379
H        -0.89904688    -0.19386459     1.89886098     0.00084145    -0.00066791    -0.00033094
H        -0.95392447     0.06017682    -0.58803559     0.00082784     0.00014022     0.00030953
     6
  Step:    36            Position(A)                                  Velocity(au)
C        -0.03500521     0.02592776    -0.07708369    -0.00002356     0.00006003    -0.00088521
N        -0.04640311    -0.03951933     1.38194632    -0.00010245     0.00003604     0.00070916
H         0.88114325    -0.07514789    -0.64582807    -0.00035224    -0.00054169     0.00028612
H         0.81224530    -0.21775436     1.94183268     0.00067600    -0.00014480     0.00048035
H        -0.89460132    -0.19767945     1.89702382     0.00073345    -0.00069592    -0.00031615
H        -0.94976577     0.06103502    -0.58646882     0.00064718     0.00016618     0.00024316
     6
  Step:    37            Position(A)                                  Velocity(au)
C        -0.03510834     0.02625755    -0.08202267    -0.00001309     0.00005763    -0.00087495
N        -0.04693201    -0.03931570     1.38592828    -0.00008538     0.00003683     0.00071004
H         0.87931489    -0.07820888    -0.64418786    -0.00029497    -0.00055120     0.00029390
H         0.81578362    -0.21847238     1.94425848     0.00058354    -0.00011128     0.00038512
H        -0.89082696    -0.20166387     1.89531782     0.00060364    -0.00072828    -0.00028523
H        -0.94667140     0.06203918    -0.58531043     0.00045032     0.00019228     0.00016516
     6
  Step:    38            Position(A)                                  Velocity(au)
C        -0.03515192     0.02657368    -0.08688981    -0.00000249     0.00005513    -0.00085924
N        -0.04736007    -0.03910659     1.38990421    -0.00006668     0.00003797     0.00070663
H         0.87783731    -0.08132547    -0.64253415    -0.00022743    -0.00056114     0.00029111
H         0.81878539    -0.21900154     1.94614895     0.00048574    -0.00007762     0.00029012
H        -0.88783602    -0.20584166     1.89382708     0.00045573    -0.00076410    -0.00024054
H        -0.94471871     0.06319006    -0.58461775     0.00024231     0.00021831     0.00007849
     6
  Step:    39            Position(A)                                  Velocity(au)
C        -0.03513627     0.02687571    -0.09165670     0.00000784     0.00005256    -0.00083859
N        -0.04767969    -0.03889000     1.39385120    -0.00004694     0.00003944     0.00069911
H         0.87676493    -0.08450049    -0.64092392    -0.00015096    -0.00057139     0.00027858
H         0.82122980    -0.21934267     1.94751135     0.00038578    -0.00004444     0.00019746
H        -0.88571719    -0.21023109     1.89262084     0.00029480    -0.00080248    -0.00018515
H        -0.94395456     0.06448697    -0.58443039     0.00002931     0.00024402    -0.00001338
     6
  Step:    40            Position(A)                                  Velocity(au)
C        -0.03506396     0.02716333    -0.09629786     0.00001750     0.00004995    -0.00081375
N        -0.04788674    -0.03866416     1.39774752    -0.00002682     0.00004119     0.00068791
H         0.87614368    -0.08773589    -0.63940874    -0.00006738    -0.00058191     0.00025751
H         0.82311341    -0.21950005     1.94836421     0.00028684    -0.00001235     0.00010916
H        -0.88452867    -0.21484465     1.89174990     0.00012678    -0.00084247    -0.00012261
H        -0.94438985     0.06592771    -0.58476786    -0.00018199     0.00026916    -0.00010677
     6
  Step:    41            Position(A)                                  Velocity(au)
C        -0.03493982     0.02743642    -0.10079206     0.00002611     0.00004734    -0.00078564
N        -0.04798083    -0.03842756     1.40157381    -0.00000700     0.00004319     0.00067357
H         0.87600856    -0.09103314    -0.63803308     0.00002123    -0.00059267     0.00022929
H         0.82444993    -0.21948132     1.94873680     0.00019190     0.00001805     0.00002704
H        -0.88429398    -0.21968886     1.89124437    -0.00004201    -0.00088304    -0.00005669
H        -0.94599762     0.06750857    -0.58562901    -0.00038499     0.00029348    -0.00019809
     6
  Step:    42            Position(A)                                  Velocity(au)
C        -0.03477066     0.02769506    -0.10512305     0.00003336     0.00004476    -0.00075518
N        -0.04796535    -0.03817903     1.40531381     0.00001189     0.00004536     0.00065670
H         0.87638212    -0.09439341    -0.63683310     0.00011255    -0.00060364     0.00019549
H         0.82526907    -0.21929728     1.94866792     0.00010364     0.00004625    -0.00004738
H        -0.88500061    -0.22476394     1.89111308    -0.00020529    -0.00092311     0.00000891
H        -0.94871444     0.06922441    -0.58699302    -0.00057360     0.00031678    -0.00028408
     6
  Step:    43            Position(A)                                  Velocity(au)
C        -0.03456488     0.02793954    -0.10927960     0.00003901     0.00004226    -0.00072323
N        -0.04784724    -0.03791777     1.40895459     0.00002924     0.00004764     0.00063789
H         0.87727354    -0.09781748    -0.63583597     0.00020422    -0.00061473     0.00015773
H         0.82561481    -0.21896152     1.94820432     0.00002439     0.00007180    -0.00011285
H        -0.88660127    -0.23006380     1.89134453    -0.00035723    -0.00096158     0.00007079
H        -0.95244437     0.07106885    -0.58882183    -0.00074263     0.00033884    -0.00036199
     6
  Step:    44            Position(A)                                  Velocity(au)
C        -0.03433198     0.02817028    -0.11325516     0.00004293     0.00003985    -0.00069057
N        -0.04763656    -0.03764332     1.41248637     0.00004456     0.00004998     0.00061767
H         0.87867840    -0.10130554    -0.63505960     0.00029387    -0.00062583     0.00011762
H         0.82554328    -0.21848993     1.94739900    -0.00004393     0.00009435    -0.00016844
H        -0.88901731    -0.23557608     1.89190906    -0.00049276    -0.00099740     0.00012602
H        -0.95706465     0.07303435    -0.59106330    -0.00088798     0.00035950    -0.00042968
     6