|===============================================================================
|
|  DFTB+ release 20.1
|
|  Copyright (C) 2006 - 2020  DFTB+ developers group
|
|===============================================================================
|
|  When publishing results obtained with DFTB+, please cite the following
|  reference:
|
|  * DFTB+, a software package for efficient approximate density functional
|    theory based atomistic simulations, J. Chem. Phys. 152, 124101 (2020).
|    [doi: 10.1063/1.5143190]
|
|  You should also cite additional publications crediting the parametrization
|  data you use. Please consult the documentation of the SK-files for the
|  references.
|
|===============================================================================

Reading input file 'dftb_in.hsd'
Parser version: 8

--------------------------------------------------------------------------------
Reading SK-files:
Done.


Processed input in HSD format written to 'dftb_pin.hsd'

Starting initialization...
--------------------------------------------------------------------------------
OpenMP threads:              1
Chosen random seed:          509730536
Mode:                        Static calculation
Self consistent charges:     Yes
SCC-tolerance:                 0.100000E-05
Max. scc iterations:                   1000
Shell resolved Hubbard:      No
Spin polarisation:           No
Nr. of up electrons:             6.000000
Nr. of down electrons:           6.000000
Periodic boundaries:         No
Electronic solver:           Relatively robust
Maximal SCC-cycles:                    1000
Initial charges:             Set automatically (system chrg:   0.100E+01)
Included shells:             C:  s, p
                             N:  s, p
                             H:  s
Spin coupling constants:     C   1(s)-1(s):  -0.455900E-01
                             C   1(s)-2(p):  -0.293000E-01
                             C   2(p)-1(s):  -0.293000E-01
                             C   2(p)-2(p):  -0.275500E-01
                             N   1(s)-1(s):  -0.468700E-01
                             N   1(s)-2(p):  -0.317000E-01
                             N   2(p)-1(s):  -0.317000E-01
                             N   2(p)-2(p):  -0.307200E-01
                             H   1(s)-1(s):  -0.792500E-01
Range separated hybrid:      Yes
  Screening parameter omega:   0.300000E+00
  Range separated algorithm:   MatrixBased
Extra options:
                             Mulliken analysis
                             Force calculation
Force type                   original
                             Eigenvector printing


REKS Calcuation:             Yes
SSR(2,2) Calcuation:         Yes
Energy Functional:           (PPS+OSS)/2
Number of Core Orbitals:                  5
Number of Active Orbitals:                2
Number of Basis:                         12
Number of States:                         2
State-Averaging Weight:          0.500000
                                 0.500000
State of Interest:                        1
Initial Guess:               Diagonalize H0 matrix
Newton-Raphson for FON opt:  Yes
NR max. Iterations:                      50
Level Shifting:              Yes
Shift Value:                     0.300000
W Scale Factor:              C  =    3.000000
                             N  =    3.000000
                             H  =    3.000000
Transition Dipole:           No
Gradient of Microstate:      No
CP-REKS Solver:              Preconditioned Conjugate-Gradient
CG max. Iterations:                     100
CG Tolerance:                  0.100000E-07
Memory for A and Hxc:        Direct Updating Without Saving
Non-Adiabatic Coupling:      Yes

--------------------------------------------------------------------------------

***  Geometry step: 0

  iSCC       reks energy        Diff energy         x_a       SCC error   
    1       -6.2607365375       0.0000000000     0.999236    1.18222160
    2       -6.2741997988      -0.0134632614     0.999697    0.10536109
    3       -6.2783551694      -0.0041553706     0.999835    0.04775882
    4       -6.2804114348      -0.0020562654     0.999893    0.02388736
    5       -6.2816175880      -0.0012061531     0.999921    0.01250181
    6       -6.2823907252      -0.0007731372     0.999936    0.00730745
    7       -6.2829050667      -0.0005143415     0.999945    0.00664362
    8       -6.2832501031      -0.0003450364     0.999950    0.00579030
    9       -6.2834806790      -0.0002305758     0.999954    0.00490989
   10       -6.2836336496      -0.0001529707     0.999956    0.00408397
   11       -6.2837344368      -0.0001007872     0.999958    0.00334957
   12       -6.2838004976      -0.0000660608     0.999959    0.00271876
   13       -6.2838436557      -0.0000431580     0.999960    0.00220293
   14       -6.2838718065      -0.0000281508     0.999960    0.00182572
   15       -6.2838901631      -0.0000183567     0.999961    0.00153909
   16       -6.2839021405      -0.0000119773     0.999961    0.00129109
   17       -6.2839099645      -0.0000078240     0.999961    0.00107860
   18       -6.2839150827      -0.0000051183     0.999961    0.00089793
   19       -6.2839184361      -0.0000033534     0.999961    0.00074529
   20       -6.2839206364      -0.0000022003     0.999961    0.00061700
   21       -6.2839220821      -0.0000014457     0.999961    0.00050965
   22       -6.2839230332      -0.0000009511     0.999961    0.00042015
   23       -6.2839236595      -0.0000006263     0.999961    0.00034578
   24       -6.2839240723      -0.0000004128     0.999961    0.00028415
   25       -6.2839243446      -0.0000002723     0.999961    0.00023320
   26       -6.2839245243      -0.0000001797     0.999961    0.00019117
   27       -6.2839246430      -0.0000001187     0.999961    0.00015656
   28       -6.2839247214      -0.0000000784     0.999961    0.00012810
   29       -6.2839247732      -0.0000000518     0.999961    0.00010474
   30       -6.2839248074      -0.0000000342     0.999961    0.00008558
   31       -6.2839248301      -0.0000000226     0.999961    0.00006994
   32       -6.2839248450      -0.0000000150     0.999961    0.00005726
   33       -6.2839248549      -0.0000000099     0.999961    0.00004685
   34       -6.2839248614      -0.0000000065     0.999961    0.00003829
   35       -6.2839248658      -0.0000000043     0.999961    0.00003128
   36       -6.2839248686      -0.0000000029     0.999961    0.00002554
   37       -6.2839248705      -0.0000000019     0.999961    0.00002084
   38       -6.2839248718      -0.0000000013     0.999961    0.00001700
   39       -6.2839248726      -0.0000000008     0.999961    0.00001386
   40       -6.2839248732      -0.0000000005     0.999961    0.00001130
   41       -6.2839248735      -0.0000000004     0.999961    0.00000921
   42       -6.2839248738      -0.0000000002     0.999961    0.00000750
   43       -6.2839248739      -0.0000000002     0.999961    0.00000611
   44       -6.2839248740      -0.0000000001     0.999961    0.00000498
   45       -6.2839248741      -0.0000000001     0.999961    0.00000405
   46       -6.2839248741      -0.0000000000     0.999961    0.00000330
   47       -6.2839248742      -0.0000000000     0.999961    0.00000269
   48       -6.2839248742      -0.0000000000     0.999961    0.00000219
   49       -6.2839248742      -0.0000000000     0.999961    0.00000178
   50       -6.2839248742      -0.0000000000     0.999961    0.00000145
   51       -6.2839248742      -0.0000000000     0.999961    0.00000118
   52       -6.2839248742      -0.0000000000     0.999961    0.00000096
  
--------------------------------------------------
 Final SA-REKS(2,2) energy:      -6.28392487
  
 State     Energy      FON(1)    FON(2)   Spin
  PPS   -6.41228319   1.999922  0.000078  0.00
  OSS   -6.15556655   1.000000  1.000000  0.00
 Trip   -6.23561499   1.000000  1.000000  1.00
--------------------------------------------------

 Lagrangian Wab:  -0.00493350 -0.00493330

--------------------------------------------------
 SSR: 2SI-2SA-REKS(2,2) Hamiltonian matrix
               PPS           OSS
   PPS    -6.41228319   -0.00693336
   OSS    -0.00693336   -6.15556655
--------------------------------------------------

----------------------------------------------------------------
 SSR: 2SI-2SA-REKS(2,2) states
                    E_n       C_{PPS}    C_{OSS}
 SSR state  1   -6.41247031  -0.999636  -0.026978
 SSR state  2   -6.15537944   0.026978  -0.999636
----------------------------------------------------------------

 unrelaxed SSR FONs for S0:  1.999194  0.000806

Total Energy:                       -6.4124703125 H         -174.4922 eV
Extrapolated to 0:                  -6.4124703125 H         -174.4922 eV

----------------------------------------------------------------------------------
 Solving CP-REKS equation for  1 state vector...
----------------------------------------------------------------------------------
  CG solver: Constructing Y initial guess
  CG solver: Iteration    1    eps =    0.000089112682
  CG solver: Iteration    2    eps =    0.000034209097
  CG solver: Iteration    3    eps =    0.000001436301
  CG solver: Iteration    4    eps =    0.000000454398
  CG solver: Iteration    5    eps =    0.000000009818
  Convergence reached in CG solver after    5 iterations
  CG solver: Calculating converged R, Z, Q2 matrix
----------------------------------------------------------------------------------

----------------------------------------------------------------------------------
 Solving CP-REKS equation for SI between  1 and  2 state vectors...
----------------------------------------------------------------------------------
  CG solver: Constructing Y initial guess
  CG solver: Iteration    1    eps =    0.001582425670
  CG solver: Iteration    2    eps =    0.001698314908
  CG solver: Iteration    3    eps =    0.000345974467
  CG solver: Iteration    4    eps =    0.000003845336
  CG solver: Iteration    5    eps =    0.000000515746
  CG solver: Iteration    6    eps =    0.000000009695
  Convergence reached in CG solver after    6 iterations
  CG solver: Calculating converged R, Z, Q2 matrix
----------------------------------------------------------------------------------

--------------------------------------------------
 Gradient Information
--------------------------------------------------
           1 st state (SSR)
     0.00182249     0.00848130     0.01580107
    -0.00318761     0.00245622    -0.01338680
     0.01180550     0.00295709    -0.00198888
     0.01223644    -0.01039817    -0.00217863
    -0.01028904     0.00219265    -0.00526787
    -0.01238779    -0.00568909     0.00702112

           2 st state (SSR)
    -0.00429931    -0.00826556     0.12372454
     0.00505407     0.01212972    -0.13850454
    -0.00942058    -0.00383109     0.01464739
    -0.00873511    -0.00140125    -0.00951770
     0.00787067    -0.00555695    -0.01343206
     0.00953026     0.00692512     0.02308236
--------------------------------------------------
 Coupling Information
--------------------------------------------------
 between  1 and  2 states
--------------------------------------------------
 g vector - difference gradient
     0.00315523     0.00834137    -0.05453549
    -0.00415691    -0.00486163     0.06303775
     0.01111132     0.00331883    -0.00828518
     0.01109756    -0.00446891     0.00371908
    -0.00966259     0.00386360     0.00410673
    -0.01154461    -0.00619327    -0.00804288

 h vector - derivative coupling
    -0.00166374     0.00081938     0.00916556
     0.00055663     0.00032996    -0.00717729
    -0.00893828     0.00148493    -0.00083460
    -0.01104314    -0.00066840    -0.00081814
     0.01054328     0.00031181    -0.00034582
     0.01054526    -0.00227769     0.00001029

 G vector - GDV
     0.00306090     0.00837343    -0.05396174
    -0.00412084    -0.00483675     0.06255887
     0.01061304     0.00339409    -0.00831814
     0.01048577    -0.00449846     0.00366953
    -0.00907985     0.00387480     0.00408209
    -0.01095902    -0.00630711    -0.00803062

 H vector - DCV - non-adiabatic coupling
    -0.00712395     0.00143250     0.04704054
     0.00303407     0.00230153    -0.04110185
    -0.03704753     0.00507120    -0.00150337
    -0.04521993    -0.00165850    -0.00395791
     0.04297741     0.00040050    -0.00220476
     0.04337994    -0.00754724     0.00172735
--------------------------------------------------


--------------------------------------------------------------------------------
DFTB+ running times                          cpu [s]             wall clock [s]
--------------------------------------------------------------------------------
SCC                                    +     0.02  ( 69.0%)      0.03  ( 62.5%)
Post-SCC processing                    +     0.01  ( 27.0%)      0.01  ( 25.0%)
--------------------------------------------------------------------------------
Missing                                +     0.00  (  4.0%)      0.00  ( 12.5%)
Total                                  =     0.03  (100.0%)      0.04  (100.0%)
--------------------------------------------------------------------------------
