 Fermi distribution function

Calculation with static geometry


********************************************************************************
 iSCC Total electronic   Diff electronic      SCC error    
   10   -0.54230363E+01   -0.20428104E-12    0.29371820E-06
********************************************************************************

 Total charge:     1.00000000

 Atomic gross charges (e)
 Atom           Charge
    1       0.20701512
    2      -0.09561185
    3       0.14343671
    4       0.29691070
    5       0.27135089
    6       0.17689844

Nr. of electrons (up):     12.00000000
Atom populations (up)
 Atom       Population
    1       3.79298488
    2       5.09561185
    3       0.85656329
    4       0.70308930
    5       0.72864911
    6       0.82310156

l-shell populations (up)
 Atom Sh.   l       Population
    1   1   0       1.28730858
    1   2   1       2.50567630
    2   1   0       1.40608538
    2   2   1       3.68952647
    3   1   0       0.85656329
    4   1   0       0.70308930
    5   1   0       0.72864911
    6   1   0       0.82310156

Orbital populations (up)
 Atom Sh.   l   m       Population  Label
    1   1   0   0       1.28730858  s
    1   2   1  -1       0.59082976  p_y
    1   2   1   0       0.89927550  p_z
    1   2   1   1       1.01557103  p_x
    2   1   0   0       1.40608538  s
    2   2   1  -1       1.33634603  p_y
    2   2   1   0       1.10188534  p_z
    2   2   1   1       1.25129510  p_x
    3   1   0   0       0.85656329  s
    4   1   0   0       0.70308930  s
    5   1   0   0       0.72864911  s
    6   1   0   0       0.82310156  s

Fermi level:                        -0.4846213774 H          -13.1872 eV
Band energy:                        -8.9458628177 H         -243.4293 eV
TS:                                  0.0000000000 H            0.0000 eV
Band free energy (E-TS):            -8.9458628177 H         -243.4293 eV
Extrapolated E(0K):                 -8.9458628177 H         -243.4293 eV
Input / Output electrons (q):     12.0000000000     12.0000000000

Energy H0:                          -5.5569679118 H         -151.2128 eV
Energy SCC:                          0.1339315899 H            3.6445 eV
Total Electronic energy:            -5.4230363219 H         -147.5683 eV
Repulsive energy:                    0.2136868050 H            5.8147 eV
Total energy:                       -5.2093495169 H         -141.7536 eV
Extrapolated to 0:                  -5.2093495169 H         -141.7536 eV
Total Mermin free energy:           -5.2093495169 H         -141.7536 eV
Force related energy:               -5.2093495169 H         -141.7536 eV

SCC converged

Excitation Energy:                   0.1163107334 H            3.1650 eV

Total Forces
    1     -0.012081010238      0.008813622587     -0.033315358910
    2     -0.002026791099      0.002315868734      0.021349076280
    3     -0.000598813322     -0.012670269608      0.003184191975
    4     -0.006893704569      0.007300046875      0.005440841566
    5      0.013040954452     -0.010311109838      0.000984287897
    6      0.008559364776      0.004551841251      0.002356961193

Maximal derivative component:        0.333154E-01 au


