     6
  Step:   300            Position(A)                                  Velocity(au)
C        -0.04747318     0.02133869     0.02582296     0.00005340     0.00004751     0.00012296
N        -0.04850143    -0.05109828     1.29031487    -0.00019793    -0.00002947    -0.00012153
H         0.09139141    -0.93158151    -0.48314248    -0.00160543     0.00001867    -0.00014484
H         0.11382172     0.73802788     1.92117848    -0.00052351    -0.00044520     0.00060273
H         0.05527131    -0.96752205     1.74704785     0.00275566     0.00046931     0.00048467
H        -0.23372768     0.94708110    -0.53140694     0.00148753    -0.00019938    -0.00071894
