     6
  Step:   600            Position(A)                                  Velocity(au)
C        -0.06864675    -0.06275700    -0.25280037    -0.00002567     0.00012284    -0.00086650
N        -0.02846979    -0.01359771     1.52789629    -0.00068557    -0.00044451     0.00087438
H        -0.95837305    -0.00499517    -0.79634272     0.00261554    -0.00227744    -0.00083761
H        -0.01436424     1.05584953     1.93868329     0.00578412     0.00332010     0.00104038
H        -0.14146994    -1.00658175     1.94764048     0.00120110     0.00095977     0.00159437
H         1.11455853     0.22200978    -0.41708344     0.00023212     0.00271081    -0.00362246
