     6
  Step:     0            Position(A)                                  Velocity(au)
C        -0.03053654     0.00974736     0.02146008     0.00004219     0.00010623     0.00030328
N        -0.05270455    -0.07049616     1.30166228    -0.00011962    -0.00005299    -0.00028408
H         0.90520344     0.04735067    -0.59097623    -0.00118802    -0.00065913     0.00079723
H         0.88674313    -0.02887905     1.85557597     0.00021204     0.00047684     0.00050989
H        -0.91636274     0.03717464     1.76694347     0.00189437    -0.00009955    -0.00084383
H        -0.99224507     0.13806606    -0.48357870     0.00024119    -0.00024769    -0.00012940
     6
  Step:     1            Position(A)                                  Velocity(au)
C        -0.03028325     0.01033637     0.02298159     0.00004997     0.00010926     0.00025208
N        -0.05328182    -0.07080454     1.30023159    -0.00008945    -0.00006012    -0.00023866
H         0.89865349     0.04374940    -0.58667665    -0.00119746    -0.00065757     0.00076833
H         0.88733450    -0.02625543     1.85816488     0.00000133     0.00048226     0.00043324
H        -0.90650919     0.03672778     1.76280852     0.00168070    -0.00006023    -0.00065217
H        -0.99113609     0.13675694    -0.48458061     0.00016298    -0.00023102    -0.00023653
     6
  Step:     2            Position(A)                                  Velocity(au)
C        -0.02998985     0.01094262     0.02421780     0.00005669     0.00011251     0.00019916
N        -0.05368309    -0.07115383     1.29905134    -0.00005563    -0.00006790    -0.00019262
H         0.89210328     0.04015691    -0.58257073    -0.00118719    -0.00065580     0.00072581
H         0.88675766    -0.02360320     1.86031554    -0.00021304     0.00048723     0.00035077
H        -0.89797599     0.03651577     1.75980873     0.00141474    -0.00001405    -0.00043071
H        -0.99046206     0.13553875    -0.48616628     0.00008310    -0.00021452    -0.00034214
     6
  Step:     3            Position(A)                                  Velocity(au)
C        -0.02966301     0.01156739     0.02516067     0.00006206     0.00011605     0.00014512
N        -0.05389051    -0.07154747     1.29812399    -0.00001907    -0.00007629    -0.00014634
H         0.88566378     0.03657388    -0.57873507    -0.00115672    -0.00065429     0.00066933
H         0.88500355    -0.02092441     1.86200282    -0.00042718     0.00049212     0.00026508
H        -0.89102965     0.03657404     1.75809582     0.00110585     0.00003800    -0.00018475
H        -0.99022685     0.13440975    -0.48832418     0.00000352    -0.00019856    -0.00044520
     6
  Step:     4            Position(A)                                  Velocity(au)
C        -0.02931081     0.01221226     0.02580554     0.00006586     0.00011992     0.00009051
N        -0.05389174    -0.07198850     1.29745023     0.00001919    -0.00008520    -0.00010002
H         0.87944774     0.03299839    -0.57524766    -0.00110577    -0.00065344     0.00059863
H         0.88208392    -0.01821897     1.86321579    -0.00063753     0.00049729     0.00017866
H        -0.88587698     0.03693158     1.75778738     0.00076575     0.00009463     0.00007897
H        -0.99042351     0.13336630    -0.49103712    -0.00007389    -0.00018344    -0.00054475
     6
  Step:     5            Position(A)                                  Velocity(au)
C        -0.02894261     0.01287909     0.02615070     0.00006785     0.00012415     0.00003580
N        -0.05368060    -0.07247948     1.29702992     0.00005799    -0.00009454    -0.00005372
H         0.87356838     0.02942627    -0.57218702    -0.00103428    -0.00065356     0.00051362
H         0.87802999    -0.01548481     1.86395709    -0.00084057     0.00050305     0.00009391
H        -0.88265348     0.03760917     1.75895967     0.00040796     0.00015422     0.00035254
H        -0.99103506     0.13240317    -0.49428292    -0.00014740    -0.00016939    -0.00063992
     6
  Step:     6            Position(A)                                  Velocity(au)
C        -0.02856884     0.01356989     0.02619697     0.00006786     0.00012876    -0.00001858
N        -0.05325765    -0.07302232     1.29686274     0.00009607    -0.00010416    -0.00000745
H         0.86813772     0.02585153    -0.56963108    -0.00094249    -0.00065490     0.00041449
H         0.87289210    -0.01271797     1.86424275    -0.00103269     0.00050969     0.00001330
H        -0.88141585     0.03861801     1.76164244     0.00004703     0.00021492     0.00062718
H        -0.99203537     0.13151398    -0.49803483    -0.00021541    -0.00015657    -0.00072985
     6
  Step:     7            Position(A)                                  Velocity(au)
C        -0.02820078     0.01428668     0.02594755     0.00006574     0.00013371    -0.00007219
N        -0.05263039    -0.07361819     1.29694845     0.00013215    -0.00011391     0.00003879
H         0.86326499     0.02226690    -0.56765584    -0.00083109    -0.00065755     0.00030173
H         0.86674056    -0.00991281     1.86410245    -0.00120994     0.00051746    -0.00006061
H        -0.88213939     0.03995872     1.76581606    -0.00030232     0.00027474     0.00089377
H        -0.99338993     0.13069153    -0.50226166    -0.00027642    -0.00014509    -0.00081361
     6
  Step:     8            Position(A)                                  Velocity(au)
C        -0.02785029     0.01503137     0.02540789     0.00006143     0.00013897    -0.00012459
N        -0.05181324    -0.07426736     1.29728676     0.00016497    -0.00012361     0.00008493
H         0.85905390     0.01866444    -0.56633316    -0.00070137    -0.00066155     0.00017640
H         0.85966744    -0.00706213     1.86358027    -0.00136794     0.00052659    -0.00012504
H        -0.88472017     0.04162089     1.77141136    -0.00062604     0.00033162     0.00114329
H        -0.99505662     0.12992818    -0.50692760    -0.00032904    -0.00013498    -0.00089024
     6
  Step:     9            Position(A)                                  Velocity(au)
C        -0.02752938     0.01580558     0.02458583     0.00005492     0.00014444    -0.00017527
N        -0.05082730    -0.07496919     1.29787677     0.00019333    -0.00013306     0.00013074
H         0.85559910     0.01503618    -0.56572781    -0.00055541    -0.00066680     0.00004018
H         0.85178907    -0.00415726     1.86273581    -0.00150187     0.00053731    -0.00017700
H        -0.88898202     0.04358331     1.77831220    -0.00091173     0.00038361     0.00136742
H        -0.99698634     0.12921616    -0.51199196    -0.00037202    -0.00012627    -0.00095873
     6
  Step:    10            Position(A)                                  Velocity(au)
C        -0.02724984     0.01661049     0.02349174     0.00004633     0.00015003    -0.00022372
N        -0.04969965    -0.07572208     1.29871604     0.00021620    -0.00014210     0.00017579
H         0.85298186     0.01137470    -0.56589389    -0.00039620    -0.00067310    -0.00010452
H         0.84324821    -0.00118802     1.86164521    -0.00160668     0.00054987    -0.00021341
H        -0.89468771     0.04581474     1.78636074    -0.00114932     0.00042896     0.00155903
H        -0.99912376     0.12854774    -0.51740891    -0.00040425    -0.00011891    -0.00101802
     6
  Step:    11            Position(A)                                  Velocity(au)
C        -0.02702267     0.01744664     0.02213874     0.00003583     0.00015560    -0.00026938
N        -0.04846242    -0.07652348     1.29979964     0.00023276    -0.00015054     0.00021951
H         0.85126539     0.00767372    -0.56687105    -0.00022761    -0.00068020    -0.00025458
H         0.83421500     0.00185729     1.86040145    -0.00167733     0.00056455    -0.00023123
H        -0.90155347     0.04827530     1.79536516    -0.00133161     0.00046621     0.00171261
H        -1.00140812     0.12791552    -0.52312727    -0.00042484    -0.00011283    -0.00106714
     6
  Step:    12            Position(A)                                  Velocity(au)
C        -0.02685763     0.01831388     0.02054279     0.00002372     0.00016102    -0.00031171
N        -0.04715165    -0.07737004     1.30111907     0.00024241    -0.00015825     0.00026115
H         0.85049024     0.00392858    -0.56868079    -0.00005428    -0.00068776    -0.00040628
H         0.82488643     0.00499211     1.85911393    -0.00170927     0.00058166    -0.00022765
H        -0.90926487     0.05091836     1.80510870    -0.00145456     0.00049434     0.00182453
H        -1.00377445     0.12731254    -0.52909090    -0.00043316    -0.00010795    -0.00110523
     6
  Step:    13            Position(A)                                  Velocity(au)
C        -0.02676271     0.01921124     0.01872274     0.00001038     0.00016613    -0.00035017
N        -0.04580584    -0.07825770     1.30266160     0.00024488    -0.00016511     0.00029987
H         0.85067049     0.00013661    -0.57132347     0.00011856    -0.00069541    -0.00055547
H         0.81548314     0.00823175     1.85790660    -0.00169892     0.00060155    -0.00020047
H        -0.91749402     0.05369273     1.81536021    -0.00151731     0.00051274     0.00189323
H        -1.00615510     0.12673245    -0.53523945    -0.00042895    -0.00010415    -0.00113167
     6
  Step:    14            Position(A)                                  Velocity(au)
C        -0.02674373     0.02013694     0.01670011    -0.00000376     0.00017080    -0.00038433
N        -0.04446438    -0.07918189     1.30440980     0.00024020    -0.00017106     0.00033484
H         0.85179126    -0.00370263    -0.57477638     0.00028548    -0.00070276    -0.00069786
H         0.80624290     0.01159332     1.85691402    -0.00164425     0.00062452    -0.00014836
H        -0.92591546     0.05654504     1.82588450    -0.00152189     0.00052129     0.00191910
H        -1.00848168     0.12616962    -0.54150958    -0.00041235    -0.00010129    -0.00114618
     6
  Step:    15            Position(A)                                  Velocity(au)
C        -0.02680405     0.02108844     0.01449873    -0.00001823     0.00017491    -0.00041384
N        -0.04316592    -0.08013773     1.30634172     0.00022868    -0.00017607     0.00036531
H         0.85380815    -0.00758723    -0.57899347     0.00044122    -0.00070945    -0.00082934
H         0.79741170     0.01509564     1.85627600    -0.00154518     0.00065086    -0.00007118
H        -0.93422060     0.05942209     1.83645235    -0.00147273     0.00052029     0.00190428
H        -1.01068709     0.12561925    -0.54783669    -0.00038385    -0.00009921    -0.00114879
     6
  Step:    16            Position(A)                                  Velocity(au)
C        -0.02694447     0.02206250     0.01214412    -0.00003257     0.00017835    -0.00043849
N        -0.04194679    -0.08112026     1.30843152     0.00021095    -0.00018015     0.00039069
H         0.85664871    -0.01151303    -0.58390667     0.00058104    -0.00071510    -0.00094624
H         0.78923180     0.01875871     1.85613035    -0.00140396     0.00068071     0.00002978
H        -0.94212899     0.06227294     1.84684897    -0.00137604     0.00051035     0.00185233
H        -1.01270759     0.12507740    -0.55415674    -0.00034437    -0.00009778    -0.00113993
     6
  Step:    17            Position(A)                                  Velocity(au)
C        -0.02716325     0.02305533     0.00966290    -0.00004634     0.00018106    -0.00045821
N        -0.04083947    -0.08212451     1.31065045     0.00018787    -0.00018334     0.00041065
H         0.86021612    -0.01547361    -0.58942900     0.00070108    -0.00071943    -0.00104563
H         0.78192827     0.02260285     1.85660443    -0.00122522     0.00071406     0.00015174
H        -0.94939620     0.06505043     1.85688058    -0.00123923     0.00049242     0.00176784
H        -1.01448492     0.12454084    -0.56040826    -0.00029508    -0.00009685    -0.00112035
     6
  Step:    18            Position(A)                                  Velocity(au)
C        -0.02745640     0.02406281     0.00708194    -0.00005917     0.00018301    -0.00047307
N        -0.03987130    -0.08314576     1.31296827     0.00016048    -0.00018570     0.00042509
H         0.86439407    -0.01946110    -0.59545854     0.00079854    -0.00072226    -0.00112544
H         0.77569585     0.02664748     1.85780672    -0.00101582     0.00075063     0.00029046
H        -0.95581971     0.06771307     1.86637970    -0.00107026     0.00046764     0.00165608
H        -1.01596759     0.12400742    -0.56653410    -0.00023743    -0.00009623    -0.00109111
     6
  Step:    19            Position(A)                                  Velocity(au)
C        -0.02781805     0.02508060     0.00442769    -0.00007077     0.00018420    -0.00048327
N        -0.03906353    -0.08417958     1.31535472     0.00012997    -0.00018730     0.00043420
H         0.86905314    -0.02346648    -0.60188363     0.00087183    -0.00072348    -0.00118457
H         0.77068665     0.03090974     1.85981884    -0.00078448     0.00078992     0.00044050
H        -0.96124021     0.07022561     1.87520759    -0.00087708     0.00043725     0.00152252
H        -1.01711243     0.12347590    -0.57248309    -0.00017303    -0.00009577    -0.00105352
     6
  Step:    20            Position(A)                                  Velocity(au)
C        -0.02824082     0.02610442     0.00172543    -0.00008093     0.00018465    -0.00048911
N        -0.03843073    -0.08522183     1.31778093     0.00009756    -0.00018822     0.00043839
H         0.87405744    -0.02748011    -0.60858827     0.00092055    -0.00072308    -0.00122288
H         0.76700067     0.03540292     1.86268917    -0.00054112     0.00083115     0.00059555
H        -0.96554122     0.07255956     1.88325530    -0.00066723     0.00040250     0.00137261
H        -1.01788541     0.12294587    -0.57821127    -0.00010358    -0.00009534    -0.00100902
     6
  Step:    21            Position(A)                                  Velocity(au)
C        -0.02871634     0.02713016    -0.00100121    -0.00008952     0.00018444    -0.00049098
N        -0.03798062    -0.08626875     1.32022071     0.00006447    -0.00018852     0.00043828
H         0.87927080    -0.03149240    -0.61545711     0.00094526    -0.00072116    -0.00124104
H         0.76468041     0.04013513     1.86642916    -0.00029611     0.00087335     0.00074898
H        -0.96864618     0.07469317     1.89044292    -0.00044754     0.00036460     0.00121145
H        -1.01826207     0.12241766    -0.58368277    -0.00003077    -0.00009481    -0.00095916
     6
  Step:    22            Position(A)                                  Velocity(au)
C        -0.02923564     0.02815406    -0.00373080    -0.00009649     0.00018364    -0.00048934
N        -0.03771427    -0.08731688     1.32265142     0.00003181    -0.00018828     0.00043456
H         0.88456192    -0.03549429    -0.62237970     0.00094738    -0.00071790    -0.00124035
H         0.76371007     0.04510834     1.87101248    -0.00005944     0.00091544     0.00089435
H        -0.97051470     0.07661125     1.89671798    -0.00022403     0.00032468     0.00104375
H        -1.01822736     0.12189231    -0.58887022     0.00004377    -0.00009405    -0.00090547
     6
  Step:    23            Position(A)                                  Velocity(au)
C        -0.02978960     0.02917284    -0.00644430    -0.00010184     0.00018235    -0.00048465
N        -0.03762674    -0.08836310     1.32505447     0.00000057    -0.00018757     0.00042801
H         0.88980881    -0.03947787    -0.62925403     0.00092894    -0.00071355    -0.00122266
H         0.76401924     0.05031794     1.87637737     0.00015995     0.00095635     0.00102589
H        -0.97113812     0.07830474     1.90205296    -0.00000180     0.00028378     0.00087366
H        -1.01777524     0.12137149    -0.59375469     0.00011855    -0.00009298    -0.00084946
     6
  Step:    24            Position(A)                                  Velocity(au)
C        -0.03036924     0.03018377    -0.00912532    -0.00010565     0.00018068    -0.00047738
N        -0.03770790    -0.08940468     1.32741549    -0.00002845    -0.00018645     0.00041936
H         0.89490183    -0.04343676    -0.63598892     0.00089236    -0.00070844    -0.00119006
H         0.76549043     0.05575328     1.88243146     0.00035473     0.00099504     0.00113885
H        -0.97053476     0.07977002     1.90644255     0.00021490     0.00024282     0.00070475
H        -1.01690780     0.12085737    -0.59832540     0.00019226    -0.00009150    -0.00079249
     6
  Step:    25            Position(A)                                  Velocity(au)
C        -0.03096600     0.03118471    -0.01176000    -0.00010799     0.00017873    -0.00046800
N        -0.03794351    -0.09043921     1.32972405    -0.00005463    -0.00018499     0.00040928
H         0.89974535    -0.04736641    -0.64250541     0.00084018    -0.00070290    -0.00114476
H         0.76796920     0.06139783     1.88905860     0.00051950     0.00103065     0.00122980
H        -0.96874523     0.08100853     1.90990043     0.00042262     0.00020259     0.00054004
H        -1.01563437     0.12035263    -0.60257908     0.00026377    -0.00008953    -0.00073579
     6
  Step:    26            Position(A)                                  Velocity(au)
C        -0.03157185     0.03217413    -0.01433695    -0.00010898     0.00017661    -0.00045689
N        -0.03831630    -0.09146469     1.33197321    -0.00007756    -0.00018326     0.00039832
H         0.90425812    -0.05126427    -0.64873697     0.00077490    -0.00069728    -0.00108891
H         0.77127565     0.06723069     1.89612657     0.00065087     0.00106254     0.00129659
H        -0.96582844     0.08202602     1.91245642     0.00061855     0.00016377     0.00038203
H        -1.01397046     0.11986036    -0.60651916     0.00033211    -0.00008699    -0.00068042
     6
  Step:    27            Position(A)                                  Velocity(au)
C        -0.03217939     0.03315107    -0.01684697    -0.00010873     0.00017440    -0.00044441
N        -0.03880702    -0.09247955     1.33415884    -0.00009696    -0.00018133     0.00038689
H         0.90837301    -0.05512978    -0.65462919     0.00069889    -0.00069189    -0.00102452
H         0.77521593     0.07322801     1.90349465     0.00074732     0.00109030     0.00133833
H        -0.96185838     0.08283196     1.91415394     0.00080031     0.00012698     0.00023286
H        -1.01193673     0.11938406    -0.61015478     0.00039647    -0.00008381    -0.00062726
     6
  Step:    28            Position(A)                                  Velocity(au)
C        -0.03278187     0.03411502    -0.01928273    -0.00010734     0.00017218    -0.00043082
N        -0.03939532    -0.09348265     1.33627880    -0.00011270    -0.00017927     0.00037525
H         0.91203600    -0.05896425    -0.66013873     0.00061426    -0.00068704    -0.00095335
H         0.77959250     0.07936444     1.91102058     0.00080892     0.00111374     0.00135515
H        -0.95692189     0.08343915     1.91504790     0.00096579     0.00009274     0.00009435
H        -1.00955816     0.11892766    -0.61349980     0.00045618    -0.00007989    -0.00057700
     6
  Step:    29            Position(A)                                  Velocity(au)
C        -0.03337312     0.03506591    -0.02163833    -0.00010489     0.00016998    -0.00041631
N        -0.04006039    -0.09447332     1.33833216    -0.00012474    -0.00017716     0.00036353
H         0.91520445    -0.06277060    -0.66523177     0.00052281    -0.00068292    -0.00087684
H         0.78421232     0.08561435     1.91856583     0.00083695     0.00113284     0.00134797
H        -0.95111738     0.08386336     1.91520323     0.00111296     0.00006155    -0.00003186
H        -1.00686335     0.11849554    -0.61657182     0.00051062    -0.00007515    -0.00053018
     6
  Step:    30            Position(A)                                  Velocity(au)
C        -0.03394743     0.03600391    -0.02390891    -0.00010146     0.00016785    -0.00040101
N        -0.04078147    -0.09545130     1.34031847    -0.00013310    -0.00017505     0.00035173
H         0.91784554    -0.06655306    -0.66988242     0.00042609    -0.00067973    -0.00079622
H         0.78889293     0.09195283     1.92599956     0.00083359     0.00114774     0.00131829
H        -0.94455443     0.08412314     1.91469389     0.00123974     0.00003390    -0.00014419
H        -1.00388405     0.11809259    -0.61939126     0.00055922    -0.00006947    -0.00048720
     6
  Step:    31            Position(A)                                  Velocity(au)
C        -0.03449952     0.03692938    -0.02609028    -0.00009710     0.00016579    -0.00038497
N        -0.04153806    -0.09641674     1.34223708    -0.00013783    -0.00017301     0.00033975
H         0.91993483    -0.07031686    -0.67407133     0.00032545    -0.00067757    -0.00071247
H         0.79346679     0.09835640     1.93320132     0.00080160     0.00115865     0.00126794
H        -0.93735389     0.08423974     1.91360240     0.00134396     0.00001028    -0.00024112
H        -1.00065495     0.11772433    -0.62198062     0.00060144    -0.00006272    -0.00044834
     6
  Step:    32            Position(A)                                  Velocity(au)
C        -0.03502441     0.03784272    -0.02817858    -0.00009186     0.00016380    -0.00036821
N        -0.04231013    -0.09737019     1.34408667    -0.00013899    -0.00017110     0.00032742
H         0.92145506    -0.07406796    -0.67778445     0.00022206    -0.00067653    -0.00062641
H         0.79778351     0.10480346     1.94006237     0.00074405     0.00116589     0.00119899
H        -0.92964857     0.08423713     1.91201966     0.00142328    -0.00000882    -0.00032106
H        -0.99721345     0.11739693    -0.62436383     0.00063675    -0.00005478    -0.00041382
     6
  Step:    33            Position(A)                                  Velocity(au)
C        -0.03551739     0.03874435    -0.03017005    -0.00008578     0.00016188    -0.00035072
N        -0.04307808    -0.09831257     1.34586491    -0.00013665    -0.00016938     0.00031452
H         0.92239525    -0.07781286    -0.68101205     0.00011699    -0.00067668    -0.00053874
H         0.80171092     0.11127466     1.94648629     0.00066417     0.00116985     0.00111359
H        -0.92158374     0.08414201     1.91004506     0.00147538    -0.00002289    -0.00038247
H        -0.99359963     0.11711735    -0.62656581     0.00066464    -0.00004549    -0.00038378
     6
  Step:    34            Position(A)                                  Velocity(au)
C        -0.03597397     0.03963462    -0.03206088    -0.00007889     0.00015999    -0.00033248
N        -0.04382283    -0.09924514     1.34756824    -0.00013091    -0.00016790     0.00030082
H         0.92275006    -0.08155849    -0.68374812     0.00001122    -0.00067809    -0.00045009
H         0.80513560     0.11775322     1.95238931     0.00056526     0.00117097     0.00101394
H        -0.91331675     0.08398370     1.90778590     0.00149805    -0.00003148    -0.00042392
H        -0.98985614     0.11689334    -0.62861210     0.00068464    -0.00003470    -0.00035831
     6
  Step:    35            Position(A)                                  Velocity(au)
C        -0.03638985     0.04051380    -0.03384716    -0.00007122     0.00015814    -0.00031348
N        -0.04452586    -0.10016950     1.34919186    -0.00012185    -0.00016673     0.00028611
H         0.92251936    -0.08531228    -0.68598990    -0.00009429    -0.00068086    -0.00036104
H         0.80796252     0.12422521     1.95770014     0.00045055     0.00116981     0.00090226
H        -0.90501588     0.08379388     1.90535662     0.00148942    -0.00003417    -0.00044420
H        -0.98602780     0.11673359    -0.63052854     0.00069636    -0.00002223    -0.00033744
     6
  Step:    36            Position(A)                                  Velocity(au)
C        -0.03676101     0.04138212    -0.03552495    -0.00006284     0.00015631    -0.00029372
N        -0.04516934    -0.10108760     1.35072989    -0.00010963    -0.00016594     0.00027022
H         0.92170808    -0.08908223    -0.68773773    -0.00019864    -0.00068513    -0.00027215
H         0.81011436     0.13067995     1.96235961     0.00032316     0.00116696     0.00078070
H        -0.89685815     0.08360614     1.90287731     0.00144821    -0.00003068    -0.00044246
H        -0.98216115     0.11664775    -0.63234091     0.00069954    -0.00000789    -0.00032114
     6
  Step:    37            Position(A)                                  Velocity(au)
C        -0.03708374     0.04223973    -0.03709035    -0.00005381     0.00015450    -0.00027323
N        -0.04573632    -0.10200170     1.35217559    -0.00009441    -0.00016556     0.00025303
H         0.92032602    -0.09287720    -0.68899489    -0.00030092    -0.00069107    -0.00018398
H         0.81153074     0.13711042     1.96632036     0.00018607     0.00116316     0.00065136
H        -0.88902527     0.08345507     1.90047108     0.00137394    -0.00002093    -0.00041840
H        -0.97830368     0.11664650    -0.63407451     0.00069408     0.00000852    -0.00030931
     6
  Step:    38            Position(A)                                  Velocity(au)
C        -0.03735470     0.04308680    -0.03853963    -0.00004420     0.00015271    -0.00025205
N        -0.04621102    -0.10291436     1.35352170    -0.00007645    -0.00016567     0.00023447
H         0.91838782    -0.09670712    -0.68976763    -0.00040026    -0.00069892    -0.00009706
H         0.81216735     0.14351369     1.96954638     0.00004210     0.00115919     0.00051626
H        -0.88169879     0.08337520     1.89826094     0.00126713    -0.00000504    -0.00037233
H        -0.97450298     0.11674174    -0.63575368     0.00068003     0.00002722    -0.00030173
     6
  Step:    39            Position(A)                                  Velocity(au)
C        -0.03757104     0.04392352    -0.03986937    -0.00003409     0.00015096    -0.00023024
N        -0.04657921    -0.10382835     1.35476084    -0.00005605    -0.00016629     0.00021457
H         0.91591280    -0.10058337    -0.69006503    -0.00049582    -0.00070902    -0.00001192
H         0.81199496     0.14989148     1.97201254    -0.00010610     0.00115596     0.00037731
H        -0.87505408     0.08339949     1.89636578     0.00112954     0.00001654    -0.00030542
H        -0.97080579     0.11694666    -0.63740134     0.00065758     0.00004852    -0.00029812
