    14
  Step:   600            Position(A)                                  Velocity(au)
C        -5.42185697    -0.22239754     0.85001349    -0.00044852     0.00018138     0.00012850
C        -4.80111166    -0.56512482    -0.23558206    -0.00026135    -0.00041753     0.00032451
H        -5.24442447     0.89452633     0.96286680     0.00151267     0.00123068     0.00103153
H        -5.92077249    -0.98516113     1.48058999    -0.00127448    -0.00039070    -0.00025621
H        -4.46390211    -1.52920182    -0.68560315     0.00149062     0.00127650     0.00040232
C        -3.94583501     0.37677564    -0.97463767    -0.00032444     0.00010006    -0.00000782
C        -2.69602094     0.75031377    -0.53136070     0.00070700     0.00061247    -0.00106640
H        -4.15079289     0.55976117    -2.05550372    -0.00146979    -0.00158340    -0.00007241
H        -2.04434531     0.88857939    -1.44556108     0.00016968    -0.00022858    -0.00227151
C        -2.02830486     1.15916141     0.65336293     0.00058573    -0.00130234     0.00023594
H        -2.57505399     1.45935978     1.63076010     0.00019473    -0.00036451    -0.00075361
N        -0.72675318     1.44939359     0.51837167    -0.00015226     0.00077976     0.00038174
H        -0.17630852     2.09592072     1.13146780    -0.00131968     0.00061372    -0.00041269
H        -0.16771647     1.25767215    -0.37019571    -0.00026736    -0.00154705     0.00161874
