    14
  Step:     0            Position(A)                                  Velocity(au)
C        -6.00475202    -0.79439534    -0.01802740    -0.00009143    -0.00025671     0.00027341
C        -4.70738731    -0.70268889     0.09470473     0.00000167     0.00028851    -0.00003352
H        -6.63278369     0.06455510    -0.35559984     0.00086046    -0.00025211    -0.00106652
H        -6.64660551    -1.67218521     0.27220201    -0.00024060    -0.00028023    -0.00079720
H        -4.14145860    -1.55388972     0.47597342     0.00051761     0.00101930    -0.00073806
C        -3.90927100     0.44767295    -0.19834474     0.00005496     0.00003697    -0.00002279
C        -2.54158577     0.50444842     0.19191034    -0.00014706    -0.00003080    -0.00002547
H        -4.36890945     1.37602505    -0.63756126    -0.00003330    -0.00054478     0.00022204
H        -2.07014405    -0.41494891     0.52237098    -0.00090113    -0.00058020    -0.00073001
C        -1.84954502     1.70349653     0.00682566     0.00019468     0.00005474     0.00010606
H        -2.41810570     2.61938995    -0.30285821     0.00051857    -0.00047531     0.00000612
N        -0.51860574     1.78276203     0.23750887    -0.00011890    -0.00001158    -0.00012504
H         0.05999066     2.67053882     0.16980823     0.00055311    -0.00028013     0.00020829
H         0.00590133     0.97235533     0.65057917     0.00022468     0.00044976     0.00108566
    14
  Step:     1            Position(A)                                  Velocity(au)
C        -6.00650761    -0.79720800    -0.01509304    -0.00022643    -0.00025672     0.00026196
C        -4.70675452    -0.69949344     0.09439359     0.00011166     0.00029559    -0.00002359
H        -6.62270667     0.06123349    -0.36706810     0.00097002    -0.00035135    -0.00102674
H        -6.64800863    -1.67458525     0.26311138    -0.00002007    -0.00016499    -0.00085767
H        -4.13574234    -1.54290766     0.46805188     0.00053519     0.00096781    -0.00069951
C        -3.90906354     0.44808357    -0.19866637    -0.00001714     0.00003808    -0.00003592
C        -2.54295763     0.50420262     0.19161893    -0.00010317    -0.00001386    -0.00002792
H        -4.36887519     1.36892629    -0.63478442     0.00003253    -0.00073285     0.00027677
H        -2.07962125    -0.42128756     0.51446382    -0.00082538    -0.00057822    -0.00071326
C        -1.84748617     1.70410830     0.00801977     0.00018079     0.00005489     0.00011254
H        -2.41146033     2.61327562    -0.30262804     0.00068404    -0.00062315     0.00003020
N        -0.51967105     1.78269922     0.23619926    -0.00007389    -0.00000059    -0.00011356
H         0.06447700     2.66570905     0.17209304     0.00026414    -0.00059485     0.00020621
H         0.00734608     0.97853520     0.66169139     0.00003306     0.00068006     0.00094131
    14
  Step:     2            Position(A)                                  Velocity(au)
C        -6.00970568    -0.80001160    -0.01229647    -0.00035238    -0.00025478     0.00024840
C        -4.70494450    -0.69622234     0.09418871     0.00021485     0.00030208    -0.00001420
H        -6.61156262     0.05686858    -0.37806173     0.00105124    -0.00043819    -0.00098217
H        -6.64704450    -1.67579474     0.25343880     0.00018555    -0.00006948    -0.00090161
H        -4.12975025    -1.53271707     0.46067038     0.00056809     0.00087594    -0.00064002
C        -3.90964588     0.44850595    -0.19913053    -0.00008871     0.00003858    -0.00004846
C        -2.54384283     0.50414522     0.19129947    -0.00005821     0.00000354    -0.00003061
H        -4.36819770     1.35999247    -0.63150644     0.00008027    -0.00087343     0.00031046
H        -2.08820092    -0.42759858     0.50676710    -0.00073813    -0.00057359    -0.00069227
C        -1.84558992     1.70469741     0.00928763     0.00016569     0.00005009     0.00011975
H        -2.40314092     2.60575731    -0.30219762     0.00082018    -0.00072566     0.00004035
N        -0.52022212     1.78274921     0.23502458    -0.00002659     0.00000871    -0.00010076
H         0.06576919     2.65752536     0.17431946    -0.00001955    -0.00087744     0.00019653
H         0.00662468     0.98723298     0.67117208    -0.00016307     0.00089850     0.00079349
    14
  Step:     3            Position(A)                                  Velocity(au)
C        -6.01421655    -0.80278170    -0.00965886    -0.00046412    -0.00025031     0.00023309
C        -4.70205429    -0.69288490     0.09408284     0.00030756     0.00030737    -0.00000551
H        -6.59970883     0.05164716    -0.38855496     0.00109621    -0.00050374    -0.00093773
H        -6.64394931    -1.67610537     0.24338692     0.00036324    -0.00000744    -0.00092546
H        -4.12331431    -1.52374486     0.45405032     0.00061522     0.00074814    -0.00056168
C        -3.91100423     0.44892758    -0.19972650    -0.00015835     0.00003741    -0.00005965
C        -2.54423104     0.50428003     0.19094928    -0.00001241     0.00002118    -0.00003355
H        -4.36711905     1.34981827    -0.62799250     0.00010219    -0.00095354     0.00031702
H        -2.09576924    -0.43383591     0.49931909    -0.00064164    -0.00056317    -0.00066855
C        -1.84386141     1.70520421     0.01063962     0.00015085     0.00003943     0.00012811
H        -2.39351741     2.59740039    -0.30174520     0.00091867    -0.00077117     0.00003210
N        -0.52025286     1.78288973     0.23399488     0.00001949     0.00001562    -0.00008748
H         0.06404939     2.64651348     0.17639246    -0.00027501    -0.00109625     0.00017722
H         0.00377871     0.99819151     0.67905057    -0.00034708     0.00108220     0.00065490
    14
  Step:     4            Position(A)                                  Velocity(au)
C        -6.01985909    -0.80548760    -0.00719726    -0.00055757    -0.00024276     0.00021639
C        -4.69821596    -0.68949796     0.09406820     0.00038721     0.00031073     0.00000254
H        -6.58758097     0.04584829    -0.39857645     0.00109880    -0.00054038    -0.00089823
H        -6.63909790    -1.67595744     0.23319263     0.00050108     0.00000809    -0.00092662
H        -4.11629123    -1.51635007     0.44838256     0.00067310     0.00059234    -0.00046793
C        -3.91311014     0.44932431    -0.20043545    -0.00022484     0.00003357    -0.00006880
C        -2.54411422     0.50460866     0.19056552     0.00003402     0.00003887    -0.00003676
H        -4.36596215     1.33913205    -0.62457104     0.00009176    -0.00096268     0.00029145
H        -2.10223803    -0.43991896     0.49214140    -0.00053823    -0.00054396    -0.00064355
C        -1.84228980     1.70556007     0.01209022     0.00013764     0.00002229     0.00013791
H        -2.38304318     2.58888643    -0.30149528     0.00097325    -0.00075116     0.00000186
N        -0.51979581     1.78309090     0.23311079     0.00006089     0.00001946    -0.00007459
H         0.05975277     2.63354279     0.17819653    -0.00047961    -0.00122097     0.00014661
H        -0.00096844     1.01090817     0.68549928    -0.00050278     0.00120970     0.00053869
    14
  Step:     5            Position(A)                                  Velocity(au)
C        -6.02641443    -0.80809261    -0.00492494    -0.00063007    -0.00023166     0.00019864
C        -4.69358337    -0.68608706     0.09413834     0.00045243     0.00031135     0.00001012
H        -6.57567039     0.03982524    -0.40820555     0.00105529    -0.00054267    -0.00086788
H        -6.63298718    -1.67592838     0.22311531     0.00058949    -0.00003386    -0.00090381
H        -4.10858890    -1.51078637     0.44381353     0.00073606     0.00041949    -0.00036329
C        -3.91592299     0.44966200    -0.20123166    -0.00028717     0.00002633    -0.00007538
C        -2.54348668     0.50513040     0.19014511     0.00008078     0.00005636    -0.00004028
H        -4.36511163     1.32875784    -0.62161638     0.00004478    -0.00089491     0.00023092
H        -2.10754407    -0.44573618     0.48524020    -0.00043008    -0.00051347    -0.00061856
C        -1.84085031     1.70569185     0.01365671     0.00012717    -0.00000143     0.00014932
H        -2.37222573     2.58096724    -0.30170445     0.00098086    -0.00066223    -0.00005228
N        -0.51892075     1.78331543     0.23236311     0.00009446     0.00001963    -0.00006297
H         0.05355696     2.61980246     0.17959981    -0.00061303    -0.00122526     0.00010349
H        -0.00722068     1.02465596     0.69083548    -0.00061547     0.00126238     0.00045761
    14
  Step:     6            Position(A)                                  Velocity(au)
C        -6.03364297    -0.81055556    -0.00285164    -0.00068057    -0.00021671     0.00018015
C        -4.68831812    -0.68268656     0.09428968     0.00050310     0.00030843     0.00001757
H        -6.56449457     0.03397631    -0.41756300     0.00096490    -0.00050829    -0.00084973
H        -6.62620173    -1.67669812     0.21342009     0.00062282    -0.00013998    -0.00085744
H        -4.10018853    -1.50717299     0.44043486     0.00079687     0.00024256    -0.00025300
C        -3.91939247     0.44990043    -0.20208450    -0.00034452     0.00001546    -0.00007907
C        -2.54234702     0.50584156     0.18968437     0.00012729     0.00007330    -0.00004419
H        -4.36498246     1.31955419    -0.61951920    -0.00003946    -0.00075103     0.00013588
H        -2.11164681    -0.45115218     0.47860918    -0.00031912    -0.00046996    -0.00059447
C        -1.83950769     1.70552874     0.01535693     0.00012016    -0.00003109     0.00016223
H        -2.36158506     2.57439896    -0.30263904     0.00094291    -0.00050805    -0.00012973
N        -0.51772936     1.78352025     0.23173330     0.00011778     0.00001579    -0.00005339
H         0.04634165     2.60673783     0.18046053    -0.00066082    -0.00109170     0.00004743
H        -0.01443306     1.03852518     0.69551043    -0.00067352     0.00122679     0.00042250
    14
  Step:     7            Position(A)                                  Velocity(au)
C        -6.04130316    -0.81283360    -0.00098389    -0.00070969    -0.00019799     0.00016120
C        -4.68257701    -0.67933950     0.09452271     0.00054005     0.00030121     0.00002526
H        -6.55456142     0.02870538    -0.42679510     0.00083012    -0.00043882    -0.00084511
H        -6.61936170    -1.67899061     0.20435721     0.00060099    -0.00031019    -0.00078999
H        -4.09115594    -1.50547994     0.43827873     0.00084774     0.00007501    -0.00014241
C        -3.92345998     0.45000031    -0.20296137    -0.00039615     0.00000149    -0.00007986
C        -2.54070199     0.50673408     0.18917837     0.00017253     0.00008921    -0.00004866
H        -4.36597479     1.31232765    -0.61864379    -0.00015711    -0.00054054     0.00001118
H        -2.11452539    -0.45601745     0.47223503    -0.00020697    -0.00041262    -0.00057164
C        -1.83822162     1.70501181     0.01720585     0.00011683    -0.00006507     0.00017621
H        -2.35159768     2.56985277    -0.30454255     0.00086604    -0.00030084    -0.00022668
N        -0.51634415     1.78366091     0.23119519     0.00012973     0.00000814    -0.00004639
H         0.03910034     2.59591949     0.18063738    -0.00061905    -0.00081820    -0.00002086
H        -0.02195529     1.05149429     0.70007839    -0.00067062     0.00109776     0.00044000
    14
  Step:     8            Position(A)                                  Velocity(au)
C        -6.04916883    -0.81488699     0.00067492    -0.00071950    -0.00017604     0.00014208
C        -4.67650353    -0.67609693     0.09484221     0.00056461     0.00028897     0.00003358
H        -6.54633400     0.02437628    -0.43605139     0.00065671    -0.00034021    -0.00085313
H        -6.61305384    -1.68348408     0.19613764     0.00053058    -0.00053530    -0.00070609
H        -4.08164263    -1.50553206     0.43731928     0.00088145    -0.00007087    -0.00003653
C        -3.92805912     0.44993303    -0.20383165    -0.00044133    -0.00001412    -0.00007813
C        -2.53857261     0.50779323     0.18861994     0.00021495     0.00010338    -0.00005392
H        -4.36841957     1.30772878    -0.61927463    -0.00029954    -0.00028212    -0.00013362
H        -2.11617467    -0.46017903     0.46610351    -0.00009493    -0.00034167    -0.00054987
C        -1.83695187     1.70410514     0.01921192     0.00011690    -0.00010088     0.00019050
H        -2.34263882     2.56781759    -0.30759815     0.00076163    -0.00006098    -0.00033603
N        -0.51489119     1.78369838     0.23071846     0.00013100    -0.00000242    -0.00004212
H         0.03279885     2.58883813     0.18000411    -0.00049827    -0.00042384    -0.00009917
H        -0.02910417     1.06254083     0.70513631    -0.00060787     0.00088152     0.00051018
    14
  Step:     9            Position(A)                                  Velocity(au)
C        -6.05704360    -0.81668471     0.00212434    -0.00071311    -0.00015189     0.00012302
C        -4.67022519    -0.67301779     0.09525733     0.00057814     0.00027100     0.00004291
H        -6.54019472     0.02126266    -0.44545893     0.00045328    -0.00022262    -0.00087049
H        -6.60775436    -1.69070137     0.18891022     0.00042461    -0.00079638    -0.00061215
H        -4.07187248    -1.50703039     0.43747955     0.00089241    -0.00018535     0.00006054
C        -3.93311494     0.44969131    -0.20467065    -0.00047929    -0.00002905    -0.00007458
C        -2.53599952     0.50899576     0.18799881     0.00025266     0.00011502    -0.00006027
H        -4.37252778     1.30615564    -0.62156703    -0.00045414    -0.00000193    -0.00028519
H        -2.11660215    -0.46349213     0.46020553     0.00001601    -0.00025834    -0.00052854
C        -1.83566424     1.70280497     0.02137340     0.00011963    -0.00013534     0.00020406
H        -2.33493548     2.56851862    -0.31189388     0.00064429     0.00018538    -0.00044806
N        -0.51347824     1.78360794     0.23027364     0.00012421    -0.00001428    -0.00004023
H         0.02819972     2.58664711     0.17846785    -0.00032432     0.00004963    -0.00018363
H        -0.03525368     1.07077914     0.71123953    -0.00049491     0.00059718     0.00062467
    14
  Step:    10            Position(A)                                  Velocity(au)
C        -6.06476944    -0.81820995     0.00336620    -0.00069417    -0.00012703     0.00010419
C        -4.66385568    -0.67016822     0.09578089     0.00058171     0.00024672     0.00005354
H        -6.53641769     0.01950609    -0.45509511     0.00023041    -0.00009929    -0.00089171
H        -6.60376469    -1.70090643     0.18274579     0.00030071    -0.00106648    -0.00051553
H        -4.06211940    -1.50958700     0.43864370     0.00087728    -0.00026218     0.00014589
C        -3.93854456     0.44929740    -0.20546325    -0.00050939    -0.00004044    -0.00007018
C        -2.53304528     0.51030956     0.18730150     0.00028376     0.00012341    -0.00006797
H        -4.37835465     1.30768657    -0.62551375    -0.00060628     0.00027018    -0.00042839
H        -2.11582442    -0.46583077     0.45454063     0.00012511    -0.00016482    -0.00050680
C        -1.83433478     1.70114426     0.02367615     0.00012399    -0.00016522     0.00021576
H        -2.32854366     2.57187310    -0.31740022     0.00052924     0.00041049    -0.00055185
N        -0.51217381     1.78338605     0.22983830     0.00011356    -0.00002538    -0.00003982
H         0.02570371     2.58992393     0.17598675    -0.00013417     0.00054321    -0.00026899
H        -0.03993125     1.07560520     0.71880209    -0.00034921     0.00027566     0.00076650
    14
  Step:    11            Position(A)                                  Velocity(au)
C        -6.07222986    -0.81946379     0.00440368    -0.00066633    -0.00010311     0.00008565
C        -4.65749906    -0.66762039     0.09642863     0.00057599     0.00021566     0.00006569
H        -6.53515412     0.01909044    -0.46496686    -0.00000061     0.00001522    -0.00090981
H        -6.60117581    -1.71403277     0.17763200     0.00017785    -0.00131483    -0.00042343
H        -4.05268029    -1.51276615     0.44067115     0.00083513    -0.00029881     0.00021791
C        -3.94425885     0.44880651    -0.20620604    -0.00053116    -0.00004543    -0.00006600
C        -2.52979178     0.51169565     0.18651181     0.00030672     0.00012804    -0.00007723
H        -4.38579133     1.31206628    -0.63093885    -0.00074197     0.00050574    -0.00054888
H        -2.11386519    -0.46709780     0.44911837     0.00023181    -0.00006406    -0.00048377
C        -1.83295182     1.69919053     0.02609356     0.00012891    -0.00018766     0.00022455
H        -2.32335729     2.57749895    -0.32396666     0.00042961     0.00058974    -0.00063715
N        -0.51099393     1.78305263     0.22940244     0.00010388    -0.00003380    -0.00003961
H         0.02526448     2.59853089     0.17258320     0.00003249     0.00099247    -0.00034924
H        -0.04289331     1.07680977     0.72800828    -0.00019312    -0.00004496     0.00091244
    14
  Step:    12            Position(A)                                  Velocity(au)
C        -6.07934672    -0.82046577     0.00523997    -0.00063277    -0.00008169     0.00006735
C        -4.65125474    -0.66545027     0.09721793     0.00056124     0.00017764     0.00007944
H        -6.53643112     0.01983911    -0.47499892    -0.00022898     0.00010716    -0.00091734
H        -6.59987379    -1.72967088     0.17348251     0.00007279    -0.00151240    -0.00034168
H        -4.04384928    -1.51612413     0.44341098     0.00076727    -0.00029616     0.00027626
C        -3.95016463     0.44830355    -0.20690708    -0.00054433    -0.00004168    -0.00006298
C        -2.52633524     0.51311076     0.18561186     0.00032052     0.00012868    -0.00008815
H        -4.39458660     1.31875054    -0.63752146    -0.00085013     0.00068234    -0.00063547
H        -2.11075319    -0.46723225     0.44395720     0.00033570     0.00004036    -0.00045873
C        -1.83151471     1.69703874     0.02858854     0.00013354    -0.00020065     0.00022962
H        -2.31914517     2.58477481    -0.33133909     0.00035446     0.00070541    -0.00069594
N        -0.50990124     1.78264662     0.22897185     0.00009955    -0.00003821    -0.00003815
H         0.02641453     2.61163610     0.16834642     0.00014285     0.00134177    -0.00041867
H        -0.04415615     1.07462169     0.73876343    -0.00004936    -0.00032646     0.00103730
    14
  Step:    13            Position(A)                                  Velocity(au)
C        -6.08607301    -0.82125083     0.00587703    -0.00059591    -0.00006392     0.00004912
C        -4.64522090    -0.66373428     0.09816649     0.00053747     0.00013281     0.00009475
H        -6.54016349     0.02143486    -0.48503543    -0.00044529     0.00016539    -0.00090753
H        -6.59958331    -1.74711940     0.17015706    -0.00000263    -0.00163689    -0.00027406
H        -4.03589474    -1.51924519     0.44671495     0.00067688    -0.00025810     0.00032170
C        -3.95616708     0.44789477    -0.20758379    -0.00054883    -0.00002775    -0.00006180
C        -2.52277978     0.51451067     0.18458334     0.00032470     0.00012534    -0.00010071
H        -4.40438947     1.32699376    -0.64484100    -0.00092403     0.00078637    -0.00068154
H        -2.10652109    -0.46621478     0.43908282     0.00043643     0.00014456    -0.00043112
C        -1.83003035     1.69480099     0.03111686     0.00013741    -0.00020310     0.00023050
H        -2.31560271     2.59293114    -0.33919173     0.00030805     0.00074862    -0.00072347
N        -0.50881619     1.78221667     0.22856793     0.00010357    -0.00003819    -0.00003418
H         0.02838955     2.62788471     0.16342395     0.00017753     0.00155493    -0.00047277
H        -0.04397308     1.06966777     0.75070119     0.00006356    -0.00053767     0.00111914
    14
  Step:    14            Position(A)                                  Velocity(au)
C        -6.09238346    -0.82186406     0.00631463    -0.00055731    -0.00005045     0.00003079
C        -4.63949651    -0.66254484     0.09929074     0.00050464     0.00008175     0.00011144
H        -6.54617276     0.02345737    -0.49485291    -0.00064228     0.00018267    -0.00087526
H        -6.59993130    -1.76548097     0.16748697    -0.00004258    -0.00167565    -0.00022212
H        -4.02904133    -1.52177057     0.45044874     0.00056846    -0.00019079     0.00035584
C        -3.96217143     0.44769649    -0.20825905    -0.00054478    -0.00000328    -0.00006278
C        -2.51923173     0.51585283     0.18340859     0.00031932     0.00011833    -0.00011483
H        -4.41480151     1.33595399    -0.65243140    -0.00096148     0.00081363    -0.00068527
H        -2.10120548    -0.46406977     0.43452568     0.00053359     0.00024453    -0.00040061
C        -1.82850870     1.69259547     0.03363121     0.00014039    -0.00019492     0.00022709
H        -2.31240591     2.60115224    -0.34716644     0.00029026     0.00071903    -0.00071834
N        -0.50763553     1.78181110     0.22822420     0.00011720    -0.00003412    -0.00002685
H         0.03029828     2.64565322     0.15800368     0.00013233     0.00161888    -0.00050874
H        -0.04276556     1.06285906     0.76324681     0.00013439    -0.00065926     0.00114324
    14
  Step:    15            Position(A)                                  Velocity(au)
C        -6.09826530    -0.82235456     0.00655057    -0.00051779    -0.00004143     0.00001218
C        -4.63418091    -0.66194593     0.10060439     0.00046281     0.00002548     0.00012918
H        -6.55421455     0.02543107    -0.50418340    -0.00081503     0.00015613    -0.00081764
H        -6.60051482    -1.78377745     0.16529785    -0.00004684    -0.00162608    -0.00018551
H        -4.02345862    -1.52341904     0.45449964     0.00044737    -0.00010192     0.00038094
C        -3.96808526     0.44782307    -0.20895727    -0.00053253     0.00003106    -0.00006589
C        -2.51579405     0.51709935     0.18207123     0.00030486     0.00010815    -0.00013036
H        -4.42542367     1.34479349    -0.65983258    -0.00096398     0.00076785    -0.00064892
H        -2.09484776    -0.46086515     0.43031871     0.00062669     0.00033646    -0.00036706
C        -1.82695911     1.69053676     0.03608490     0.00014268    -0.00017676     0.00021957
H        -2.30925276     2.60866132    -0.35490673     0.00029777     0.00062310    -0.00068199
N        -0.50625228     1.78147026     0.22798057     0.00014005    -0.00002689    -0.00001586
H         0.03128445     2.66330087     0.15229419     0.00001559     0.00154081    -0.00052561
H        -0.04103310     1.05524519     0.77571185     0.00015989    -0.00068505     0.00110378
    14
  Step:    16            Position(A)                                  Velocity(au)
C        -6.10371102    -0.82277046     0.00658114    -0.00047761    -0.00003662    -0.00000678
C        -4.62937155    -0.66198734     0.10211681     0.00041233    -0.00003443     0.00014751
H        -6.56400316     0.02687291    -0.51274036    -0.00096079     0.00008693    -0.00073409
H        -6.60095595    -1.80105448     0.16342868    -0.00001930    -0.00149387    -0.00016250
H        -4.01925419    -1.52400016     0.45878243     0.00031942    -0.00000014     0.00039969
C        -3.97382155     0.44837590    -0.20970061    -0.00051271     0.00007364    -0.00007079
C        -2.51256226     0.51821888     0.18055674     0.00028216     0.00009548    -0.00014712
H        -4.43589042     1.35275210    -0.66662774    -0.00093563     0.00065845    -0.00057763
H        -2.08749533    -0.45670912     0.42649552     0.00071510     0.00041694    -0.00033051
C        -1.82538732     1.68872851     0.03843478     0.00014468    -0.00014986     0.00020837
H        -2.30589166     2.61478370    -0.36208628     0.00032530     0.00047197    -0.00061808
N        -0.50457169     1.78122282     0.22787731     0.00017052    -0.00001758    -0.00000140
H         0.03063929     2.67936134     0.14650491    -0.00015646     0.00134188    -0.00052397
H        -0.03926772     1.04787235     0.78739416     0.00014382    -0.00062049     0.00100337
    14
  Step:    17            Position(A)                                  Velocity(au)
C        -6.10871400    -0.82315567     0.00640215    -0.00043675    -0.00003555    -0.00002610
C        -4.62516050    -0.66269922     0.10383144     0.00035382    -0.00009599     0.00016582
H        -6.57523363     0.02733286    -0.52024302    -0.00107867    -0.00002040    -0.00062615
H        -6.60093709    -1.81645880     0.16174292     0.00003365    -0.00129062    -0.00015062
H        -4.01647059    -1.52342212     0.46324355     0.00019059     0.00010535     0.00041511
C        -3.97930172     0.44943414    -0.21050583    -0.00048622     0.00012214    -0.00007686
C        -2.50962131     0.51918807     0.17885273     0.00025228     0.00008108    -0.00016491
H        -4.44589236     1.35919837    -0.67246930    -0.00088200     0.00049837    -0.00047831
H        -2.07920364    -0.45174378     0.42308815     0.00079794     0.00048329    -0.00029121
C        -1.82379388     1.68725823     0.04064330     0.00014689    -0.00011585     0.00019404
H        -2.30213616     2.61898664    -0.36842845     0.00036672     0.00027947    -0.00053164
N        -0.50252187     1.78108559     0.22794987     0.00020626    -0.00000723     0.00001591
H         0.02786151     2.69265706     0.14083124    -0.00036389     0.00105098    -0.00050559
H        -0.03788684     1.04167075     0.79766255     0.00009487    -0.00047945     0.00085111
    14
  Step:    18            Position(A)                                  Velocity(au)
C        -6.11326572    -0.82354821     0.00601020    -0.00039499    -0.00003768    -0.00004564
C        -4.62163116    -0.66408739     0.10574445     0.00028822    -0.00015681     0.00018340
H        -6.58760107     0.02642662    -0.52643861    -0.00116930    -0.00015884    -0.00049711
H        -6.60021983    -1.82928930     0.16013362     0.00010458    -0.00103132    -0.00014710
H        -4.01508469    -1.52169540     0.46786374     0.00006679     0.00020526     0.00043041
C        -3.98445849     0.45104805    -0.21138207    -0.00045418     0.00017371    -0.00008335
C        -2.50704322     0.51999263     0.17694905     0.00021646     0.00006579    -0.00018352
H        -4.45518591     1.36365481    -0.67709166    -0.00080935     0.00030222    -0.00035873
H        -2.07003889    -0.44613615     0.42012481     0.00087408     0.00053376    -0.00024961
C        -1.82217392     1.68619406     0.04267977     0.00014978    -0.00007658     0.00017726
H        -2.29786900     2.62089766    -0.37371702     0.00041567     0.00006069    -0.00042857
N        -0.50005936     1.78106461     0.22822540     0.00024459     0.00000325     0.00003524
H         0.02267842     2.70235347     0.13544417    -0.00058597     0.00070026    -0.00047306
H        -0.03719220     1.03738354     0.80601378     0.00002458    -0.00028085     0.00066029
    14
  Step:    19            Position(A)                                  Velocity(au)
C        -6.11735510    -0.82398003     0.00540372    -0.00035208    -0.00004245    -0.00006520
C        -4.61885522    -0.66612977     0.10784377     0.00021669    -0.00021427     0.00019949
H        -6.60081428     0.02385788    -0.53111832    -0.00123443    -0.00031975    -0.00035152
H        -6.59864920    -1.83902082     0.15852487     0.00018590    -0.00073262    -0.00014914
H        -4.01500939    -1.51893170     0.47265957    -0.00004632     0.00029058     0.00044883
C        -3.98923780     0.45323448    -0.21232921    -0.00041785     0.00022520    -0.00008936
C        -2.50488579     0.52062730     0.17483787     0.00017607     0.00005043    -0.00020274
H        -4.46359842     1.36580994    -0.68031723    -0.00072421     0.00008538    -0.00022705
H        -2.06008140    -0.44006665     0.41762742     0.00094208     0.00056771    -0.00020642
C        -1.82051705     1.68558280     0.04452113     0.00015385    -0.00003407     0.00015873
H        -2.29304260     2.62031438    -0.37780419     0.00046589    -0.00016869    -0.00031530
N        -0.49717100     1.78115674     0.22872075     0.00028274     0.00001307     0.00005560
H         0.01504240     2.70797650     0.13048220    -0.00080258     0.00032285    -0.00042962
H        -0.03734918     1.03552659     0.81210762    -0.00005428    -0.00004627     0.00044661
    14
  Step:    20            Position(A)                                  Velocity(au)
C        -6.12096825    -0.82447693     0.00458388    -0.00030778    -0.00004930    -0.00008450
C        -4.61689066    -0.66877493     0.11010860     0.00014052    -0.00026573     0.00021328
H        -6.61460659     0.01943147    -0.53412889    -0.00127665    -0.00049361    -0.00019476
H        -6.59615293    -1.84531678     0.15687100     0.00027024    -0.00041194    -0.00015402
H        -4.01609799    -1.51533833     0.47768278    -0.00014365     0.00035312     0.00047346
C        -3.99359974     0.45597468    -0.21333699    -0.00037849     0.00027334    -0.00009396
C        -2.50319146     0.52109577     0.17251376     0.00013250     0.00003577    -0.00022234
H        -4.47102941     1.36552266    -0.68205873    -0.00063322    -0.00013655    -0.00009153
H        -2.04942916    -0.43371636     0.41560893     0.00100013     0.00058567    -0.00016258
C        -1.81880810     1.68544868     0.04615238     0.00015949     0.00000959     0.00013922
H        -2.28767686     2.61720718    -0.38061489     0.00051130    -0.00039287    -0.00019866
N        -0.49387397     1.78135062     0.22944170     0.00031798     0.00002149     0.00007597