 Fermi distribution function

Calculation with static geometry


********************************************************************************
 iSCC Total electronic   Diff electronic      SCC error    
   12   -0.52593367E+01   -0.13657520E-10    0.37912478E-06
********************************************************************************

 Total charge:     1.00000000

 Atomic gross charges (e)
 Atom           Charge
    1       0.28076432
    2      -0.19166131
    3       0.18572896
    4       0.26437889
    5       0.27157734
    6       0.18921180

Nr. of electrons (up):     12.00000000
Atom populations (up)
 Atom       Population
    1       3.71923568
    2       5.19166131
    3       0.81427104
    4       0.73562111
    5       0.72842266
    6       0.81078820

l-shell populations (up)
 Atom Sh.   l       Population
    1   1   0       1.43265272
    1   2   1       2.28658296
    2   1   0       1.52092850
    2   2   1       3.67073281
    3   1   0       0.81427104
    4   1   0       0.73562111
    5   1   0       0.72842266
    6   1   0       0.81078820

Orbital populations (up)
 Atom Sh.   l   m       Population  Label
    1   1   0   0       1.43265272  s
    1   2   1  -1       0.43799518  p_y
    1   2   1   0       0.83995110  p_z
    1   2   1   1       1.00863668  p_x
    2   1   0   0       1.52092850  s
    2   2   1  -1       1.45462674  p_y
    2   2   1   0       1.06886222  p_z
    2   2   1   1       1.14724385  p_x
    3   1   0   0       0.81427104  s
    4   1   0   0       0.73562111  s
    5   1   0   0       0.72842266  s
    6   1   0   0       0.81078820  s

Fermi level:                        -0.5061743385 H          -13.7737 eV
Band energy:                        -8.5795470064 H         -233.4614 eV
TS:                                  0.0000000000 H            0.0000 eV
Band free energy (E-TS):            -8.5795470064 H         -233.4614 eV
Extrapolated E(0K):                 -8.5795470064 H         -233.4614 eV
Input / Output electrons (q):     12.0000000000     12.0000000000

Energy H0:                          -5.3912165354 H         -146.7025 eV
Energy SCC:                          0.1318798369 H            3.5886 eV
Total Electronic energy:            -5.2593366985 H         -143.1138 eV
Repulsive energy:                    0.1281842756 H            3.4881 eV
Total energy:                       -5.1311524229 H         -139.6258 eV
Extrapolated to 0:                  -5.1311524229 H         -139.6258 eV
Total Mermin free energy:           -5.1311524229 H         -139.6258 eV
Force related energy:               -5.1311524229 H         -139.6258 eV

SCC converged

Excitation Energy:                   0.1113073533 H            3.0288 eV

Total Forces
    1     -0.007120022736      0.003179700568      0.007571405996
    2      0.025950408609      0.010169327564     -0.011583203491
    3     -0.002974458240     -0.004656302049      0.001515015243
    4     -0.016842814373      0.003308093206     -0.003146705399
    5     -0.006548245978     -0.012298432412      0.001344658966
    6      0.007535132718      0.000297613122      0.004298828685

Maximal derivative component:        0.259504E-01 au


