|===============================================================================
|
|  DFTB+ release 20.1
|
|  Copyright (C) 2006 - 2020  DFTB+ developers group
|
|===============================================================================
|
|  When publishing results obtained with DFTB+, please cite the following
|  reference:
|
|  * DFTB+, a software package for efficient approximate density functional
|    theory based atomistic simulations, J. Chem. Phys. 152, 124101 (2020).
|    [doi: 10.1063/1.5143190]
|
|  You should also cite additional publications crediting the parametrization
|  data you use. Please consult the documentation of the SK-files for the
|  references.
|
|===============================================================================

Reading input file 'dftb_in.hsd'
Parser version: 8

--------------------------------------------------------------------------------
Reading SK-files:
Done.


Processed input in HSD format written to 'dftb_pin.hsd'

Starting initialization...
--------------------------------------------------------------------------------
WARNING!
-> Excited state forces are not implemented yet for fractional occupations, kT=  0.3158E-02K
OpenMP threads:              1
Chosen random seed:          433864101
Mode:                        Static calculation
Self consistent charges:     Yes
SCC-tolerance:                 0.100000E-05
Max. scc iterations:                    100
Shell resolved Hubbard:      No
Spin polarisation:           No
Nr. of up electrons:             6.000000
Nr. of down electrons:           6.000000
Periodic boundaries:         No
Electronic solver:           Relatively robust
Mixer:                       Broyden mixer
Mixing parameter:                  0.200000
Maximal SCC-cycles:                     100
Nr. of chrg. vec. in memory:              0
Electronic temperature:        0.100000E-07 H      0.272114E-06 eV
Initial charges:             Set automatically (system chrg:   0.100E+01)
Included shells:             C:  s, p
                             N:  s, p
                             H:  s
Extra options:
                             Mulliken analysis
                             Force calculation
Force type                   original
                             Eigenvector printing

--------------------------------------------------------------------------------

***  Geometry step: 0

 iSCC Total electronic   Diff electronic      SCC error    
    1   -0.54550471E+01    0.00000000E+00    0.57916266E+00
    2   -0.54577563E+01   -0.27091545E-02    0.40412694E+00
    3   -0.54599122E+01   -0.21559411E-02    0.45012177E-01
    4   -0.54600825E+01   -0.17031298E-03    0.91602206E-02
    5   -0.54600810E+01    0.15120678E-05    0.43730838E-02
    6   -0.54600831E+01   -0.20861206E-05    0.86748057E-04
    7   -0.54600831E+01   -0.10820500E-09    0.16359690E-04
    8   -0.54600831E+01   -0.11475265E-10    0.12193512E-05
    9   -0.54600831E+01   -0.41744386E-13    0.36250625E-06
>> Charges saved for restart in charges.bin

Total Energy:                       -5.0699119440 H         -137.9593 eV
Extrapolated to 0:                  -5.2559020129 H         -143.0204 eV
Total Mermin free energy:           -5.0699119440 H         -137.9593 eV
Force related energy:               -5.2559020129 H         -143.0204 eV

--------------------------------------------------------------------------------
DFTB+ running times                          cpu [s]             wall clock [s]
--------------------------------------------------------------------------------
SCC                                    +     0.01  ( 42.1%)      0.03  ( 57.8%)
Post-SCC processing                    +     0.01  ( 49.4%)      0.01  ( 33.3%)
--------------------------------------------------------------------------------
Missing                                +     0.00  (  8.6%)      0.00  (  8.9%)
Total                                  =     0.02  (100.0%)      0.05  (100.0%)
--------------------------------------------------------------------------------
