     6
  Step:     0            Position(A)                                  Velocity(au)
C        -0.04405741     0.01690862     0.03194244     0.00004555     0.00000783     0.00021959
N        -0.03573769    -0.04114642     1.29151475    -0.00010272     0.00001823    -0.00025881
H         0.91872453    -0.05808431    -0.51322053    -0.00054919     0.00004847     0.00027976
H         0.80053858    -0.15766803     1.79285662    -0.00018242    -0.00022590     0.00015324
H        -0.96548797    -0.13033426     1.84964592     0.00110058     0.00006337     0.00015944
H        -0.94509895     0.04660893    -0.56521221     0.00051559    -0.00023252     0.00038736
     6
  Step:     1            Position(A)                                  Velocity(au)
C        -0.04377317     0.01699726     0.03273208     0.00005829     0.00002471     0.00006852
N        -0.03638755    -0.04103895     1.29044355    -0.00013405     0.00002104    -0.00013195
H         0.91576571    -0.05796938    -0.51164549    -0.00052752    -0.00000702     0.00029328
H         0.80025425    -0.15915819     1.79408929     0.00007453    -0.00031853     0.00029449
H        -0.95903383    -0.13008253     1.85024285     0.00125135     0.00002803     0.00006164
H        -0.94266685     0.04518300    -0.56314081     0.00036978    -0.00028916     0.00036761
     6
  Step:     2            Position(A)                                  Velocity(au)
C        -0.04341993     0.01717883     0.03269179     0.00007072     0.00004182    -0.00008335
N        -0.03720369    -0.04091637     1.29007176    -0.00016325     0.00002378    -0.00000355
H         0.91295558    -0.05816111    -0.51001316    -0.00049529    -0.00006369     0.00030052
H         0.80135360    -0.16115149     1.79607716     0.00032011    -0.00040973     0.00042781
H        -0.95180317    -0.13002776     1.85032007     0.00138372    -0.00000887    -0.00002907
H        -0.94105505     0.04344670    -0.56119202     0.00021725    -0.00034636     0.00034311
     6
  Step:     3            Position(A)                                  Velocity(au)
C        -0.04300008     0.01745441     0.03182097     0.00008258     0.00005910    -0.00023479
N        -0.03817214    -0.04077905     1.29040477    -0.00018948     0.00002646     0.00012540
H         0.91035137    -0.05866558    -0.50836030    -0.00045257    -0.00012144     0.00030062
H         0.80375357    -0.16363726     1.79876595     0.00054737    -0.00049846     0.00054951
H        -0.94390747    -0.13017950     1.84992511     0.00149328    -0.00004777    -0.00010945
H        -0.94029200     0.04139674    -0.55939007     0.00006079    -0.00040414     0.00031444
     6
  Step:     4            Position(A)                                  Velocity(au)
C        -0.04251738     0.01782470     0.03012582     0.00009360     0.00007642    -0.00038430
N        -0.03927445    -0.04062724     1.29144221    -0.00021186     0.00002908     0.00025359
H         0.90800954    -0.05948829    -0.50672770    -0.00039944    -0.00018003     0.00029287
H         0.80733564    -0.16659910     1.80208262     0.00074993    -0.00058341     0.00065617
H        -0.93548343    -0.13054982     1.84912387     0.00157470    -0.00008906    -0.00017595
H        -0.94039069     0.03902996    -0.55775561    -0.00009664    -0.00046221     0.00028222
     6
  Step:     5            Position(A)                                  Velocity(au)
C        -0.04197707     0.01828967     0.02762087     0.00010346     0.00009360    -0.00052993
N        -0.04048756    -0.04046124     1.29317629    -0.00022949     0.00003163     0.00037929
H         0.90598580    -0.06063322    -0.50515941    -0.00033608    -0.00023899     0.00027674
H         0.81194968    -0.17001346     1.80593742     0.00092205    -0.00066293     0.00074475
H        -0.92669721    -0.13115289     1.84800211     0.00162205    -0.00013300    -0.00022477
H        -0.94134821     0.03634519    -0.55630558    -0.00025191    -0.00051988     0.00024714
     6
  Step:     6            Position(A)                                  Velocity(au)
C        -0.04138609     0.01884815     0.02433124     0.00011182     0.00011033    -0.00066925
N        -0.04178379    -0.04028140     1.29558960    -0.00024151     0.00003408     0.00050030
H         0.90433467    -0.06210150    -0.50370169    -0.00026286    -0.00029753     0.00025195
H         0.81741778    -0.17384790     1.81022607     0.00105877    -0.00073508     0.00081263
H        -0.91774706    -0.13200409     1.84666612     0.00162928    -0.00017961    -0.00025218
H        -0.94314517     0.03334532    -0.55505322    -0.00040169    -0.00057607     0.00020990
     6
  Step:     7            Position(A)                                  Velocity(au)
C        -0.04075310     0.01949739     0.02029533     0.00011834     0.00012627    -0.00079930
N        -0.04313106    -0.04008821     1.29865260    -0.00024713     0.00003640     0.00061395
H         0.90310858    -0.06388992    -0.50240162    -0.00018045    -0.00035462     0.00021857
H         0.82353895    -0.17805956     1.81483245     0.00115620    -0.00079772     0.00085784
H        -0.90886324    -0.13311894     1.84524172     0.00159080    -0.00022872    -0.00025487
H        -0.94574513     0.03003958    -0.55400806    -0.00054257    -0.00062932     0.00017121
     6
  Step:     8            Position(A)                                  Velocity(au)
C        -0.04008854     0.02023261     0.01556734     0.00012271     0.00014098    -0.00091683
N        -0.04449345    -0.03988231     1.30232124    -0.00024576     0.00003855     0.00071725
H         0.90235618    -0.06598974    -0.50130516    -0.00008996    -0.00040907     0.00017711
H         0.83009486    -0.18259443     1.81963182     0.00121173    -0.00084872     0.00087914
H        -0.90030492    -0.13451183     1.84387161     0.00150228    -0.00027988    -0.00023034
H        -0.94909417     0.02644522    -0.55317598    -0.00067109    -0.00067795     0.00013184
     6
  Step:     9            Position(A)                                  Velocity(au)
C        -0.03940450     0.02104683     0.01021892     0.00012465     0.00015404    -0.00101850
N        -0.04583213    -0.03966450     1.30653554    -0.00023708     0.00004051     0.00080717
H         0.90211984    -0.06838576    -0.50045504     0.00000693    -0.00045956     0.00012851
H         0.83685641    -0.18738744     1.82449462     0.00122436    -0.00088620     0.00087622
H        -0.89235241    -0.13619497     1.84271016     0.00136175    -0.00033246    -0.00017752
H        -0.95312073     0.02258861    -0.55255913    -0.00078391    -0.00072022     0.00009254
     6
  Step:    10            Position(A)                                  Velocity(au)
C        -0.03871435     0.02193073     0.00433923     0.00012402     0.00016504    -0.00110134
N        -0.04710708    -0.03943569     1.31121957    -0.00022117     0.00004226     0.00088100
H         0.90243255    -0.07105599    -0.49988839     0.00010794    -0.00050486     0.00007416
H         0.84359239    -0.19236407     1.82929145     0.00119509    -0.00090881     0.00084994
H        -0.88529279    -0.13817696     1.84191457     0.00117058    -0.00038560    -0.00009732
H        -0.95773613     0.01850534    -0.55215584    -0.00087806    -0.00075459     0.00005410
     6
  Step:    11            Position(A)                                  Velocity(au)
C        -0.03803226     0.02287295    -0.00196714     0.00012079     0.00017369    -0.00116323
N        -0.04827933    -0.03919688     1.31628357    -0.00019860     0.00004379     0.00093682
H         0.90331423    -0.07397196    -0.49963450     0.00021025    -0.00054396     0.00001580
H         0.85007979    -0.19744324     1.83389904     0.00112707    -0.00091603     0.00080240
H        -0.87940018    -0.14046155     1.84163336     0.00093435    -0.00043826     0.00000703
H        -0.96283623     0.01423923    -0.55196051    -0.00095124    -0.00077991     0.00001732
     6
  Step:    12            Position(A)                                  Velocity(au)
C        -0.03737233     0.02386052    -0.00858493     0.00011512     0.00017984    -0.00120336
N        -0.04931367    -0.03894915     1.32162827    -0.00017047     0.00004510     0.00097392
H         0.90476859    -0.07709976    -0.49971287     0.00031071    -0.00057625    -0.00004461
H         0.85611486    -0.20254171     1.83820662     0.00102564    -0.00090839     0.00073695
H        -0.87491154    -0.14304629     1.84199271     0.00066290    -0.00048933     0.00012999
H        -0.96830496     0.00984007    -0.55196344    -0.00100224    -0.00079572    -0.00001704
     6
  Step:    13            Position(A)                                  Velocity(au)
C        -0.03674764     0.02487974    -0.01539529     0.00010738     0.00018357    -0.00122271
N        -0.05018155    -0.03869358     1.32715142    -0.00013831     0.00004623     0.00099312
H         0.90678143    -0.08040224    -0.50013227     0.00040633    -0.00060174    -0.00010514
H         0.86152472    -0.20757984     1.84212257     0.00089803    -0.00088767     0.00065804
H        -0.87200302    -0.14592191     1.84308387     0.00036940    -0.00053785     0.00026434
H        -0.97402011     0.00535991    -0.55215061    -0.00103133    -0.00080249    -0.00004820
     6
  Step:    14            Position(A)                                  Velocity(au)
C        -0.03616916     0.02591742    -0.02228546     0.00009807     0.00018521    -0.00122415
N        -0.05086345    -0.03843119     1.33275625    -0.00010393     0.00004721     0.00099692
H         0.90932150    -0.08384227    -0.50089094     0.00049475    -0.00062120    -0.00016419
H         0.86617731    -0.21248818     1.84558001     0.00075264    -0.00085683     0.00057076
H        -0.87077240    -0.14907298     1.84495463     0.00006851    -0.00058328     0.00040233
H        -0.97986113     0.00084810    -0.55250353    -0.00104043    -0.00080171    -0.00007557
     6
  Step:    15            Position(A)                                  Velocity(au)
C        -0.03564495     0.02696219    -0.02915916     0.00008781     0.00018531    -0.00121209
N        -0.05135005    -0.03816275     1.33836047    -0.00006908     0.00004814     0.00098917
H         0.91234422    -0.08738681    -0.50197835     0.00057468    -0.00063613    -0.00022071
H         0.86998710    -0.21721375     1.84854002     0.00059784    -0.00081959     0.00048018
H        -0.87123267    -0.15248008     1.84760756    -0.00022599    -0.00062562     0.00053694
H        -0.98571836    -0.00365427    -0.55300032    -0.00103298    -0.00079572    -0.00009899
     6
  Step:    16            Position(A)                                  Velocity(au)
C        -0.03517967     0.02800566    -0.03594448     0.00007716     0.00018450    -0.00119152
N        -0.05164189    -0.03788870     1.34390317    -0.00003525     0.00004910     0.00097420
H         0.91579759    -0.09101085    -0.50337807     0.00064581    -0.00064840    -0.00027419
H         0.87291440    -0.22172417     1.85099112     0.00044079    -0.00077978     0.00039057
H        -0.87331908    -0.15612311     1.85100542    -0.00050310    -0.00066538     0.00066269
H        -0.99150177    -0.00811888    -0.55361902    -0.00101315    -0.00078719    -0.00011875
     6
  Step:    17            Position(A)                                  Velocity(au)
C        -0.03477479     0.02904291    -0.04259694     0.00006658     0.00018335    -0.00116689
N        -0.05174758    -0.03760899     1.34934735    -0.00000349     0.00005017     0.00095591
H         0.91962759    -0.09469943    -0.50507064     0.00070836    -0.00065976    -0.00032445
H         0.87495829    -0.22600805     1.85294487     0.00028671    -0.00074060     0.00030504
H        -0.87690653    -0.15998415     1.85508129    -0.00075512    -0.00070316     0.00077576
H        -0.99714457    -0.01253212    -0.55433955    -0.00098482    -0.00077850    -0.00013538
     6
  Step:    18            Position(A)                                  Velocity(au)
C        -0.03442929     0.03007220    -0.04909652     0.00005636     0.00018225    -0.00114126
N        -0.05168126    -0.03732319     1.35467728     0.00002551     0.00005139     0.00093702
H         0.92378152    -0.09844705    -0.50703499     0.00076243    -0.00067136    -0.00037129
H         0.87614595    -0.23007148     1.85442922     0.00013900    -0.00070416     0.00022545
H        -0.88182997    -0.16404837     1.85974901    -0.00097691    -0.00073919     0.00087341
H        -1.00260166    -0.01689336    -0.55514489    -0.00095070    -0.00077118    -0.00014944
     6
  Step:    19            Position(A)                                  Velocity(au)
C        -0.03414053     0.03109383    -0.05543973     0.00004668     0.00018134    -0.00111599
N        -0.05146052    -0.03703066     1.35989177     0.00005131     0.00005274     0.00091879
H         0.92820735    -0.10225430    -0.50924881     0.00080760    -0.00068350    -0.00041443
H         0.87652245    -0.23393207     1.85548184    -0.00000017    -0.00067146     0.00015282
H        -0.88789984    -0.16830231     1.86490992    -0.00116459    -0.00077304     0.00095329
H        -1.00784293    -0.02121034    -0.55602127    -0.00091210    -0.00076574    -0.00016138
     6
  Step:    20            Position(A)                                  Velocity(au)
C        -0.03390503     0.03210885    -0.06163038     0.00003761     0.00018055    -0.00109111
N        -0.05110503    -0.03673083     1.36499636     0.00007354     0.00005417     0.00090136
H         0.93285185    -0.10612352    -0.51168950     0.00084292    -0.00069579    -0.00045348
H         0.87614399    -0.23761282     1.85614558    -0.00012903    -0.00064275     0.00008783
H        -0.89490970    -0.17273052     1.87045558    -0.00131474    -0.00080367     0.00101317
H        -1.01284566    -0.02549360    -0.55695739    -0.00086930    -0.00076190    -0.00017146
     6
  Step:    21            Position(A)                                  Velocity(au)
C        -0.03371891     0.03311797    -0.06767232     0.00002920     0.00017971    -0.00106601
N        -0.05063603    -0.03642340     1.36999704     0.00009191     0.00005559     0.00088426
H         0.93765741    -0.11005488    -0.51433279     0.00086711    -0.00070743    -0.00048786
H         0.87507590    -0.24113797     1.85646651    -0.00024567    -0.00061791     0.00003109
H        -0.90263954    -0.17731232     1.87626876    -0.00142453    -0.00082971     0.00105121
H        -1.01758872    -0.02975206    -0.55794356    -0.00082209    -0.00075892    -0.00017984
     6
  Step:    22            Position(A)                                  Velocity(au)
C        -0.03357807     0.03412100    -0.07356580     0.00002152     0.00017865    -0.00103992
N        -0.05007603    -0.03610842     1.37489684     0.00010615     0.00005695     0.00086682
H         0.94256031    -0.11404415    -0.51715178     0.00087897    -0.00071750    -0.00051698
H         0.87339337    -0.24453118     1.85649364    -0.00034804    -0.00059684    -0.00001674
H        -0.91085928    -0.18202030     1.88222537    -0.00149223    -0.00084988     0.00106630
H        -1.02205004    -0.03399071    -0.55897098    -0.00077029    -0.00075601    -0.00018662
     6
  Step:    23            Position(A)                                  Velocity(au)
C        -0.03347815     0.03511672    -0.07930672     0.00001462     0.00017721    -0.00101226
N        -0.04944845    -0.03578624     1.37969490     0.00011613     0.00005820     0.00084849
H         0.94749112    -0.11808218    -0.52011669     0.00087765    -0.00072521    -0.00054036
H         0.87118214    -0.24781536     1.85627922    -0.00043408    -0.00057955    -0.00005499
H        -0.91933434    -0.18682064     1.88819837    -0.00151763    -0.00086320     0.00105838
H        -1.02620663    -0.03821013    -0.56003140    -0.00071401    -0.00075251    -0.00019188
     6
  Step:    24            Position(A)                                  Velocity(au)
C        -0.03341454     0.03610307    -0.08488773     0.00000856     0.00017529    -0.00098278
N        -0.04877713    -0.03545742     1.38438705     0.00012183     0.00005933     0.00082892
H         0.95237667    -0.12215552    -0.52319555     0.00086288    -0.00072999    -0.00055774
H         0.86853828    -0.25101330     1.85587864    -0.00050203    -0.00056617    -0.00008309
H        -0.92783362    -0.19167497     1.89406317    -0.00150220    -0.00086914     0.00102848
H        -1.03003609    -0.04240733    -0.56111714    -0.00065367    -0.00074798    -0.00019578
     6
  Step:    25            Position(A)                                  Velocity(au)
C        -0.03338242     0.03707748    -0.09029988     0.00000337     0.00017286    -0.00095150
N        -0.04808568    -0.03512254     1.38896700     0.00012337     0.00006035     0.00080797
H         0.95714309    -0.12624772    -0.52635542     0.00083494    -0.00073153    -0.00056915
H         0.86556651    -0.25414846     1.85534975    -0.00055063    -0.00055697    -0.00010073
H        -0.93613766    -0.19654273     1.89970272    -0.00144898    -0.00086769     0.00097855
H        -1.03351851    -0.04657694    -0.56222130    -0.00059003    -0.00074225    -0.00019848
     6
  Step:    26            Position(A)                                  Velocity(au)
C        -0.03337679     0.03803720    -0.09553427    -0.00000091     0.00016992    -0.00091870
N        -0.04739667    -0.03478211     1.39342766     0.00012102     0.00006129     0.00078574
H         0.96171901    -0.13034077    -0.52956386     0.00079468    -0.00072977    -0.00057487
H         0.86237718    -0.25724534     1.85475151    -0.00057925    -0.00055221    -0.00010786
H        -0.94404663    -0.20138374     1.90501239    -0.00136225    -0.00085921     0.00091127
H        -1.03663807    -0.05071254    -0.56333801    -0.00052401    -0.00073532    -0.00020024
     6
  Step:    27            Position(A)                                  Velocity(au)
C        -0.03339264     0.03897953    -0.10058342    -0.00000431     0.00016655    -0.00088481
N        -0.04673108    -0.03443647     1.39776226     0.00011512     0.00006220     0.00076244
H         0.96603836    -0.13441648    -0.53279031     0.00074332    -0.00072487    -0.00057542
H         0.85908261    -0.26032967     1.85414236    -0.00058799    -0.00055215    -0.00010476
H        -0.95138612    -0.20616043     1.90990315    -0.00124706    -0.00084444     0.00082973
H        -1.03938412    -0.05480785    -0.56446267    -0.00045666    -0.00072738    -0.00020130
     6
  Step:    28            Position(A)                                  Velocity(au)
C        -0.03342503     0.03990213    -0.10544209    -0.00000684     0.00016281    -0.00085034
N        -0.04610765    -0.03408567     1.40196523     0.00010611     0.00006312     0.00073839
H         0.97004251    -0.13845766    -0.53600718     0.00068238    -0.00071714    -0.00057142
H         0.85579301    -0.26342813     1.85357844    -0.00057765    -0.00055695    -0.00009201
H        -0.95801084    -0.21083954     1.91430341    -0.00110888    -0.00082432     0.00073715
H        -1.04175164    -0.05885754    -0.56559210    -0.00038901    -0.00071871    -0.00020195
     6
  Step:    29            Position(A)                                  Velocity(au)
C        -0.03346921     0.04080306    -0.11010773    -0.00000854     0.00015879    -0.00081579
N        -0.04554256    -0.03372950     1.40603263     0.00009450     0.00006411     0.00071391
H         0.97368145    -0.14244889    -0.53919058     0.00061345    -0.00070697    -0.00056361
H         0.85261257    -0.26656782     1.85311185    -0.00054962    -0.00056665    -0.00007045
H        -0.96380630    -0.21539329     1.91815965    -0.00095323    -0.00079991     0.00063672
H        -1.04374124    -0.06285779    -0.56672462    -0.00032200    -0.00070961    -0.00020246
     6
  Step:    30            Position(A)                                  Velocity(au)
C        -0.03352074     0.04168091    -0.11458045    -0.00000949     0.00015460    -0.00078161
N        -0.04504912    -0.03336747     1.40996235     0.00008078     0.00006523     0.00068934
H         0.97691432    -0.14637704    -0.54232065     0.00053815    -0.00069480    -0.00055271
H         0.84963626    -0.26977561     1.85278929    -0.00050582    -0.00058113    -0.00004116
H        -0.96868877    -0.21980002     1.92143586    -0.00078536    -0.00077232     0.00053140
H        -1.04535860    -0.06680655    -0.56786007    -0.00025645    -0.00070043    -0.00020310
     6
  Step:    31            Position(A)                                  Velocity(au)
C        -0.03357552     0.04253478    -0.11886277    -0.00000975     0.00015031    -0.00074817
N        -0.04463773    -0.03299884     1.41375408     0.00006547     0.00006650     0.00066495
H         0.97970942    -0.15023148    -0.54538168     0.00045802    -0.00068105    -0.00053944
H         0.84694676    -0.27307717     1.85265075    -0.00044861    -0.00060010    -0.00000542
H        -0.97260334    -0.22404427     1.92411202    -0.00061009    -0.00074261     0.00042381
H        -1.04661380    -0.07070347    -0.56899964    -0.00019305    -0.00069142    -0.00020410
     6
  Step:    32            Position(A)                                  Velocity(au)
C        -0.03362991     0.04336419    -0.12295915    -0.00000940     0.00014598    -0.00071574
N        -0.04431587    -0.03262273     1.41740906     0.00004909     0.00006795     0.00064098
H         0.98204366    -0.15400406    -0.54836183     0.00037450    -0.00066615    -0.00052444
H         0.84461228    -0.27649601     1.85272859    -0.00038070    -0.00062307     0.00003538
H        -0.97552114    -0.22811646     1.92618209    -0.00043170    -0.00071177     0.00031621
H        -1.04752054    -0.07454966    -0.57014578    -0.00013234    -0.00068279    -0.00020566
     6
  Step:    33            Position(A)                                  Velocity(au)
C        -0.03368070     0.04416905    -0.12687545    -0.00000852     0.00014168    -0.00068448
N        -0.04408818    -0.03223815     1.42092982     0.00003211     0.00006958     0.00061759
H         0.98390193    -0.15768898    -0.55125280     0.00028889    -0.00065046    -0.00050827
H         0.84268483    -0.28005248     1.85304684    -0.00030501    -0.00064940     0.00007975
H        -0.97743622    -0.23201253     1.92765201    -0.00025395    -0.00068071     0.00021052
H        -1.04809530    -0.07834734    -0.57130203    -0.00007472    -0.00067468    -0.00020797
     6
  Step:    34            Position(A)                                  Velocity(au)
C        -0.03372519     0.04494959    -0.13061837    -0.00000720     0.00013744    -0.00065444
N        -0.04395656    -0.03184408     1.42431978     0.00001501     0.00007140     0.00059485
H         0.98527636    -0.16128266    -0.55404930     0.00020241    -0.00063437    -0.00049139
H         0.84119926    -0.28376278     1.85362097    -0.00022461    -0.00067824     0.00012616
H        -0.97836284    -0.23573348     1.92853779    -0.00008019    -0.00065028     0.00010836
H        -1.04835666    -0.08209930    -0.57247292    -0.00002051    -0.00066711    -0.00021118
     6
  Step:    35            Position(A)                                  Velocity(au)
C        -0.03376119     0.04570621    -0.13419470    -0.00000554     0.00013329    -0.00062558
N        -0.04392027    -0.03143958     1.42758270    -0.00000174     0.00007339     0.00057280
H         0.98616565    -0.16478378    -0.55674853     0.00011615    -0.00061829    -0.00047417
H         0.84017281    -0.28763791     1.85445787    -0.00014260    -0.00070852     0.00017314
H        -0.97833312    -0.23928524     1.92886388     0.00008656    -0.00062137     0.00001110
H        -1.04832465    -0.08580828    -0.57366383     0.00003011    -0.00065994    -0.00021545
     6
  Step:    36            Position(A)                                  Velocity(au)
C        -0.03378717     0.04643947    -0.13761101    -0.00000370     0.00012924    -0.00059786
N        -0.04397601    -0.03102376     1.43072242    -0.00001768     0.00007552     0.00055142
H         0.98657469    -0.16819380    -0.55934950     0.00003125    -0.00060291    -0.00045682
H         0.83960532    -0.29168242     1.85555634    -0.00006204    -0.00073881     0.00021937
H        -0.97739535    -0.24267896     1.92866180     0.00024350    -0.00059509    -0.00008017
H        -1.04802006    -0.08947595    -0.57488112     0.00007711    -0.00065274    -0.00022101
     6
  Step:    37            Position(A)                                  Velocity(au)
C        -0.03380254     0.04715004    -0.14087360    -0.00000204     0.00012532    -0.00057119
N        -0.04411782    -0.03059589     1.43374280    -0.00003223     0.00007776     0.00053070
H         0.98651476    -0.17151912    -0.56185187    -0.00005077    -0.00059043    -0.00043903
H         0.83947976    -0.29589145     1.85690858     0.00001414    -0.00076597     0.00026432
H        -0.97561293    -0.24593317     1.92796831     0.00038781    -0.00057401    -0.00016503
H        -1.04746328    -0.09310029    -0.57613279     0.00012096    -0.00064352    -0.00022867
     6
  Step:    38            Position(A)                                  Velocity(au)
C        -0.03380991     0.04783874    -0.14398845    -0.00000282     0.00012521    -0.00052153
N        -0.04433588    -0.03015557     1.43664772    -0.00004480     0.00008059     0.00049602
H         0.98600789    -0.17478606    -0.56425130    -0.00008245    -0.00061777    -0.00047159
H         0.83976315    -0.30023463     1.85850750     0.00009323    -0.00078150     0.00032981
H        -0.97306536    -0.24908785     1.92681918     0.00052016    -0.00056841    -0.00024191
H        -1.04666952    -0.09666093    -0.57743430     0.00012518    -0.00064424    -0.00029468
     6
  Step:    39            Position(A)                                  Velocity(au)
C        -0.03380698     0.04852647    -0.14682036     0.00000243     0.00012143    -0.00049627
N        -0.04462829    -0.02969916     1.43935457    -0.00005810     0.00008307     0.00047621
H         0.98531549    -0.17810872    -0.56687403    -0.00016368    -0.00058334    -0.00046345
H         0.84047034    -0.30475700     1.86041840     0.00015415    -0.00082859     0.00035633
H        -0.96981409    -0.25212045     1.92530661     0.00063568    -0.00053157    -0.00029992
H        -1.04590702    -0.10032063    -0.57908028     0.00015227    -0.00065788    -0.00029706
     6
  Step:    40            Position(A)                                  Velocity(au)
C        -0.03378285     0.04919305    -0.14952320     0.00000606     0.00011778    -0.00047404
N        -0.04498383    -0.02922910     1.44195880    -0.00006821     0.00008558     0.00045851
H         0.98418238    -0.18129189    -0.56942009    -0.00024060    -0.00055998    -0.00044993
H         0.84148234    -0.30947564     1.86248161     0.00020268    -0.00086143     0.00038108
H        -0.96597576    -0.25501627     1.92347425     0.00073132    -0.00051070    -0.00035256
H        -1.04497130    -0.10399815    -0.58074730     0.00018222    -0.00066056    -0.00030155
     6
  Step:    41            Position(A)                                  Velocity(au)
C        -0.03373941     0.04983934    -0.15210452     0.00000944     0.00011427    -0.00045298
N        -0.04538865    -0.02874521     1.44446563    -0.00007582     0.00008812     0.00044160
H         0.98263351    -0.18435087    -0.57188947    -0.00031284    -0.00053865    -0.00043683
H         0.84272965    -0.31435944     1.86466631     0.00023828    -0.00088916     0.00039973
H        -0.96166197    -0.25781332     1.92137658     0.00080626    -0.00049611    -0.00039482
H        -1.04387575    -0.10768397    -0.58244174     0.00020946    -0.00066222    -0.00030698
     6
  Step:    42            Position(A)                                  Velocity(au)
C        -0.03367771     0.05046621    -0.15457035     0.00001262     0.00011090    -0.00043290
N        -0.04582862    -0.02824727     1.44687913    -0.00008085     0.00009070     0.00042532
H         0.98069669    -0.18729356    -0.57428722    -0.00037982    -0.00051857    -0.00042480
H         0.84413728    -0.31938270     1.86693542     0.00026016    -0.00091227     0.00041150
H        -0.95699235    -0.26054393     1.91907516     0.00085916    -0.00048730    -0.00042572
H        -1.04263747    -0.11137659    -0.58416766     0.00023357    -0.00066376    -0.00031304
     6
  Step:    43            Position(A)                                  Velocity(au)
C        -0.03359884     0.05107451    -0.15692585     0.00001559     0.00010769    -0.00041365
N        -0.04628907    -0.02773506     1.44920263    -0.00008322     0.00009333     0.00040957
H         0.97840326    -0.19012635    -0.57662065    -0.00044091    -0.00049959    -0.00041421
H         0.84562715    -0.32451975     1.86924934     0.00026799    -0.00093072     0.00041610
H        -0.95209314    -0.26324052     1.91663517     0.00088904    -0.00048438    -0.00044478
H        -1.04127441    -0.11507653    -0.58592815     0.00025445    -0.00066544    -0.00031960
     6
  Step:    44            Position(A)                                  Velocity(au)
C        -0.03350410     0.05166513    -0.15917550     0.00001831     0.00010464    -0.00039513
N        -0.04675509    -0.02720827     1.45143888    -0.00008291     0.00009601     0.00039425
H         0.97578800    -0.19285553    -0.57889863    -0.00049552    -0.00048177    -0.00040531
H         0.84712085    -0.32974440     1.87156791     0.00026193    -0.00094445     0.00041356
H        -0.94709461    -0.26593658     1.91412337     0.00089542    -0.00048756    -0.00045186
H        -1.03980462    -0.11878499    -0.58772575     0.00027214    -0.00066734    -0.00032657
     6