|===============================================================================
|
|  DFTB+ release 20.1
|
|  Copyright (C) 2006 - 2020  DFTB+ developers group
|
|===============================================================================
|
|  When publishing results obtained with DFTB+, please cite the following
|  reference:
|
|  * DFTB+, a software package for efficient approximate density functional
|    theory based atomistic simulations, J. Chem. Phys. 152, 124101 (2020).
|    [doi: 10.1063/1.5143190]
|
|  You should also cite additional publications crediting the parametrization
|  data you use. Please consult the documentation of the SK-files for the
|  references.
|
|===============================================================================

Reading input file 'dftb_in.hsd'
Parser version: 8

--------------------------------------------------------------------------------
Reading SK-files:
Done.


Processed input in HSD format written to 'dftb_pin.hsd'

Starting initialization...
--------------------------------------------------------------------------------
OpenMP threads:              1
Chosen random seed:          497960203
Mode:                        Static calculation
Self consistent charges:     Yes
SCC-tolerance:                 0.100000E-05
Max. scc iterations:                   1000
Shell resolved Hubbard:      No
Spin polarisation:           No
Nr. of up electrons:            16.000000
Nr. of down electrons:          16.000000
Periodic boundaries:         No
Electronic solver:           Relatively robust
Maximal SCC-cycles:                    1000
Initial charges:             Set automatically (system chrg:   0.100E+01)
Included shells:             C:  s, p
                             H:  s
                             N:  s, p
Spin coupling constants:     C   1(s)-1(s):  -0.455900E-01
                             C   1(s)-2(p):  -0.293000E-01
                             C   2(p)-1(s):  -0.293000E-01
                             C   2(p)-2(p):  -0.275500E-01
                             H   1(s)-1(s):  -0.792500E-01
                             N   1(s)-1(s):  -0.468700E-01
                             N   1(s)-2(p):  -0.317000E-01
                             N   2(p)-1(s):  -0.317000E-01
                             N   2(p)-2(p):  -0.307200E-01
Range separated hybrid:      Yes
  Screening parameter omega:   0.300000E+00
  Range separated algorithm:   MatrixBased
Extra options:
                             Mulliken analysis
                             Force calculation
Force type                   original
                             Eigenvector printing


REKS Calcuation:             Yes
SSR(2,2) Calcuation:         Yes
Energy Functional:           (PPS+OSS)/2
Number of Core Orbitals:                 15
Number of Active Orbitals:                2
Number of Basis:                         32
Number of States:                         2
State-Averaging Weight:          0.500000
                                 0.500000
State of Interest:                        1
Initial Guess:               Diagonalize H0 matrix
Newton-Raphson for FON opt:  Yes
NR max. Iterations:                      50
Level Shifting:              Yes
Shift Value:                     0.300000
W Scale Factor:              C  =    3.200000
                             H  =    3.200000
                             N  =    3.200000
Transition Dipole:           No
Gradient of Microstate:      No
CP-REKS Solver:              Preconditioned Conjugate-Gradient
CG max. Iterations:                     100
CG Tolerance:                  0.100000E-07
Memory for A and Hxc:        Direct Updating Without Saving
Non-Adiabatic Coupling:      Yes

--------------------------------------------------------------------------------

***  Geometry step: 0

  iSCC       reks energy        Diff energy         x_a       SCC error   
    1      -16.4029646579       0.0000000000     0.997231    1.21717692
    2      -16.4197525174      -0.0167878595     0.999481    0.05039867
    3      -16.4229772798      -0.0032247624     0.999771    0.02009016
    4      -16.4240936855      -0.0011164057     0.999858    0.01025884
    5      -16.4245746656      -0.0004809801     0.999896    0.00682325
    6      -16.4248046898      -0.0002300242     0.999916    0.00474916
    7      -16.4249221108      -0.0001174211     0.999927    0.00340340
    8      -16.4249849540      -0.0000628431     0.999934    0.00249075
    9      -16.4250199706      -0.0000350166     0.999938    0.00185271
   10      -16.4250402536      -0.0000202830     0.999941    0.00139662
   11      -16.4250524736      -0.0000122200     0.999942    0.00106506
   12      -16.4250601355      -0.0000076619     0.999944    0.00084283
   13      -16.4250651320      -0.0000049965     0.999944    0.00071573
   14      -16.4250685133      -0.0000033812     0.999945    0.00060920
   15      -16.4250708789      -0.0000023656     0.999945    0.00051994
   16      -16.4250725820      -0.0000017032     0.999945    0.00044509
   17      -16.4250738377      -0.0000012557     0.999945    0.00038219
   18      -16.4250747814      -0.0000009437     0.999946    0.00032921
   19      -16.4250755013      -0.0000007200     0.999946    0.00028444
   20      -16.4250760571      -0.0000005558     0.999946    0.00024649
   21      -16.4250764902      -0.0000004330     0.999946    0.00021420
   22      -16.4250768300      -0.0000003398     0.999946    0.00018663
   23      -16.4250770981      -0.0000002681     0.999946    0.00016302
   24      -16.4250773106      -0.0000002125     0.999945    0.00014272
   25      -16.4250774796      -0.0000001690     0.999945    0.00012521
   26      -16.4250776144      -0.0000001348     0.999945    0.00011007
   27      -16.4250777222      -0.0000001078     0.999945    0.00009693
   28      -16.4250778085      -0.0000000864     0.999945    0.00008550
   29      -16.4250778778      -0.0000000693     0.999945    0.00007553
   30      -16.4250779335      -0.0000000557     0.999945    0.00006682
   31      -16.4250779783      -0.0000000448     0.999945    0.00005918
   32      -16.4250780144      -0.0000000361     0.999945    0.00005248
   33      -16.4250780435      -0.0000000291     0.999945    0.00004659
   34      -16.4250780670      -0.0000000235     0.999945    0.00004140
   35      -16.4250780860      -0.0000000190     0.999945    0.00003682
   36      -16.4250781014      -0.0000000153     0.999945    0.00003278
   37      -16.4250781138      -0.0000000124     0.999945    0.00002920
   38      -16.4250781238      -0.0000000100     0.999945    0.00002603
   39      -16.4250781319      -0.0000000081     0.999945    0.00002322
   40      -16.4250781385      -0.0000000066     0.999945    0.00002073
   41      -16.4250781439      -0.0000000053     0.999945    0.00001851
   42      -16.4250781482      -0.0000000043     0.999945    0.00001654
   43      -16.4250781517      -0.0000000035     0.999945    0.00001479
   44      -16.4250781545      -0.0000000028     0.999945    0.00001323
   45      -16.4250781569      -0.0000000023     0.999945    0.00001184
   46      -16.4250781587      -0.0000000019     0.999945    0.00001060
   47      -16.4250781603      -0.0000000015     0.999945    0.00000950
   48      -16.4250781615      -0.0000000012     0.999945    0.00000851
   49      -16.4250781625      -0.0000000010     0.999945    0.00000763
   50      -16.4250781633      -0.0000000008     0.999945    0.00000684
   51      -16.4250781640      -0.0000000007     0.999945    0.00000614
   52      -16.4250781645      -0.0000000005     0.999945    0.00000551
   53      -16.4250781650      -0.0000000004     0.999945    0.00000494
   54      -16.4250781653      -0.0000000004     0.999945    0.00000444
   55      -16.4250781656      -0.0000000003     0.999945    0.00000399
   56      -16.4250781659      -0.0000000002     0.999945    0.00000358
   57      -16.4250781661      -0.0000000002     0.999945    0.00000322
   58      -16.4250781662      -0.0000000002     0.999945    0.00000289
   59      -16.4250781663      -0.0000000001     0.999945    0.00000260
   60      -16.4250781664      -0.0000000001     0.999945    0.00000234
   61      -16.4250781665      -0.0000000001     0.999945    0.00000210
   62      -16.4250781666      -0.0000000001     0.999945    0.00000189
   63      -16.4250781667      -0.0000000001     0.999945    0.00000170
   64      -16.4250781667      -0.0000000000     0.999945    0.00000153
   65      -16.4250781667      -0.0000000000     0.999945    0.00000138
   66      -16.4250781668      -0.0000000000     0.999945    0.00000124
   67      -16.4250781668      -0.0000000000     0.999945    0.00000112
   68      -16.4250781668      -0.0000000000     0.999945    0.00000101
   69      -16.4250781668      -0.0000000000     0.999945    0.00000091
  
--------------------------------------------------
 Final SA-REKS(2,2) energy:     -16.42507817
  
 State     Energy      FON(1)    FON(2)   Spin
  PPS  -16.49153070   1.999890  0.000110  0.00
  OSS  -16.35862563   1.000000  1.000000  0.00
 Trip  -16.40559256   1.000000  1.000000  1.00
--------------------------------------------------

 Lagrangian Wab:   0.01077520  0.01077593

--------------------------------------------------
 SSR: 2SI-2SA-REKS(2,2) Hamiltonian matrix
               PPS           OSS
   PPS   -16.49153070    0.01512524
   OSS     0.01512524  -16.35862563
--------------------------------------------------

----------------------------------------------------------------
 SSR: 2SI-2SA-REKS(2,2) states
                    E_n       C_{PPS}    C_{OSS}
 SSR state  1  -16.49323029  -0.993746   0.111665
 SSR state  2  -16.35692604  -0.111665  -0.993746
----------------------------------------------------------------

 unrelaxed SSR FONs for S0:  1.987423  0.012577

Total Energy:                      -16.4932302935 H         -448.8036 eV
Extrapolated to 0:                 -16.4932302935 H         -448.8036 eV

----------------------------------------------------------------------------------
 Solving CP-REKS equation for  1 state vector...
----------------------------------------------------------------------------------
  CG solver: Constructing Y initial guess
  CG solver: Iteration    1    eps =    0.001586137027
  CG solver: Iteration    2    eps =    0.000595035231
  CG solver: Iteration    3    eps =    0.000027423383
  CG solver: Iteration    4    eps =    0.000021210321
  CG solver: Iteration    5    eps =    0.000003100192
  CG solver: Iteration    6    eps =    0.000001386212
  CG solver: Iteration    7    eps =    0.000000155490
  CG solver: Iteration    8    eps =    0.000000016782
  CG solver: Iteration    9    eps =    0.000000002130
  Convergence reached in CG solver after    9 iterations
  CG solver: Calculating converged R, Z, Q2 matrix
----------------------------------------------------------------------------------

----------------------------------------------------------------------------------
 Solving CP-REKS equation for SI between  1 and  2 state vectors...
----------------------------------------------------------------------------------
  CG solver: Constructing Y initial guess
  CG solver: Iteration    1    eps =    0.060707923875
  CG solver: Iteration    2    eps =    0.005529403847
  CG solver: Iteration    3    eps =    0.001481981689
  CG solver: Iteration    4    eps =    0.000386651386
  CG solver: Iteration    5    eps =    0.000108256712
  CG solver: Iteration    6    eps =    0.000022052152
  CG solver: Iteration    7    eps =    0.000003040370
  CG solver: Iteration    8    eps =    0.000000268883
  CG solver: Iteration    9    eps =    0.000000117880
  CG solver: Iteration   10    eps =    0.000000004479
  Convergence reached in CG solver after   10 iterations
  CG solver: Calculating converged R, Z, Q2 matrix
----------------------------------------------------------------------------------

--------------------------------------------------
 Gradient Information
--------------------------------------------------
           1 st state (SSR)
     0.06630722     0.02811098     0.02349352
    -0.06324248    -0.01241963    -0.02019904
    -0.00886704     0.00518941    -0.01677926
     0.01162922    -0.00357109     0.00446818
     0.02290681     0.00867009     0.02982098
     0.00168557    -0.01987349    -0.03287873
     0.00310557    -0.04498517     0.01579671
    -0.01513162     0.01146337     0.00775693
    -0.02474574     0.01469716    -0.01434542
    -0.02778120     0.01778333     0.01971685
     0.02229771    -0.00782066    -0.02522246
     0.03691774    -0.00883532    -0.02780510
    -0.02366110    -0.01657764    -0.00395188
    -0.00142066     0.02816866     0.04012871

           2 st state (SSR)
     0.09793750     0.03928453     0.03849959
    -0.11251149    -0.02938804    -0.02653854
    -0.00745210     0.00268731    -0.01669531
     0.01155555    -0.00131566     0.00485789
     0.02322161     0.00730449     0.02852441
     0.07346550     0.04011805     0.02999416
    -0.06472704    -0.08625751    -0.04766109
    -0.01050841     0.00242931     0.00459743
    -0.01965541     0.00047110    -0.01255555
     0.01948242     0.03494446    -0.01345776
     0.01751209    -0.00255222    -0.02888198
    -0.00883451    -0.01677679     0.00114640
    -0.02024027    -0.01730668    -0.00167935
     0.00075456     0.02635765     0.03984970
--------------------------------------------------
 Coupling Information
--------------------------------------------------
 between  1 and  2 states
--------------------------------------------------
 g vector - difference gradient
    -0.01260695    -0.00471129    -0.00599583
     0.02492662     0.00686369    -0.00156194
    -0.00033366     0.00070908    -0.00002609
    -0.00019462    -0.00015968     0.00004414
     0.00010770     0.00029148     0.00036055
    -0.05221123    -0.03950487    -0.04008495
     0.05270629     0.03000740     0.04290073
    -0.00321119     0.00669655     0.00221653
    -0.00462684     0.01119472    -0.00228087
    -0.02325120    -0.01404459     0.01678217
     0.00302519    -0.00279924     0.00211605
     0.01742201     0.00413430    -0.01330700
    -0.00135862     0.00069904    -0.00097998
    -0.00039351     0.00062341    -0.00018352

 h vector - derivative coupling
     0.01587226     0.00447422     0.00746498
    -0.00148470    -0.00807307    -0.02114480
     0.00172181    -0.00252170     0.00007452
    -0.00102103     0.00437977     0.00107193
     0.00118240    -0.00179600    -0.00133702
    -0.06767437    -0.03840756    -0.03446461
     0.07874242     0.03885353     0.04551795
    -0.00369256     0.00906810     0.00262018
    -0.00885981     0.01713356    -0.00598855
     0.00432766    -0.02304193    -0.00100775
     0.00250951    -0.00042899     0.00105221
    -0.02653309     0.00027244     0.00676150
     0.00173779     0.00142877     0.00081432
     0.00317172    -0.00134113    -0.00143487

 G vector - GDV
    -0.01581514    -0.00558678    -0.00750303
     0.02463450     0.00848420     0.00316975
    -0.00070747     0.00125105    -0.00004198
     0.00003683    -0.00112771    -0.00019485
    -0.00015740     0.00068280     0.00064829
    -0.03588996    -0.02999577    -0.03143645
     0.03391631     0.02063617     0.03172890
    -0.00231160     0.00451703     0.00157975
    -0.00254517     0.00711303    -0.00089493
    -0.02363181    -0.00858056     0.01658731
     0.00239281    -0.00263422     0.00182976
     0.02287612     0.00397073    -0.01447575
    -0.00171042     0.00036452    -0.00113626
    -0.00108761     0.00090551     0.00013950

 H vector - DCV - non-adiabatic coupling
     0.09301636     0.02433563     0.04363870
     0.02996515    -0.04657565    -0.15380392
     0.01177385    -0.01688464     0.00049059
    -0.00762091     0.03107102     0.00773999
     0.00863374    -0.01237323    -0.00897745
    -0.56912473    -0.33907377    -0.31181211
     0.64910680     0.32680007     0.39546769
    -0.03164352     0.07577271     0.02235263
    -0.07091276     0.14079355    -0.04655328
    -0.00689989    -0.18769975     0.02011611
     0.02287762    -0.00762660     0.01097249
    -0.16143935     0.00868049     0.02670207
     0.01021925     0.01135901     0.00422971
     0.02204840    -0.00857883    -0.01056322
--------------------------------------------------


--------------------------------------------------------------------------------
DFTB+ running times                          cpu [s]             wall clock [s]
--------------------------------------------------------------------------------
SCC                                    +     0.10  ( 26.1%)      0.10  ( 25.9%)
      Dense to sparse                        0.02  (  4.9%)      0.02  (  5.4%)
  Density matrix creation                    0.01  (  2.8%)      0.01  (  2.1%)
Post-SCC processing                    +     0.28  ( 73.4%)      0.28  ( 72.5%)
  Force calculation                          0.28  ( 73.3%)      0.28  ( 72.0%)
--------------------------------------------------------------------------------
Missing                                +     0.00  (  0.5%)      0.01  (  1.6%)
Total                                  =     0.38  (100.0%)      0.39  (100.0%)
--------------------------------------------------------------------------------
