     6
  Step:     0            Position(A)                                  Velocity(au)
C        -0.04454144     0.01935510     0.02687334    -0.00003452    -0.00008939     0.00034330
N        -0.03639339    -0.06744239     1.29471253    -0.00016965    -0.00006482    -0.00032637
H         0.95465725     0.02421592    -0.52306567     0.00037320     0.00045195    -0.00016685
H         0.82000559    -0.08312647     1.81588465     0.00147491     0.00057885     0.00077082
H        -0.97651583     0.03309449     1.83710214     0.00071106     0.00050103     0.00016905
H        -0.97459112     0.06260533    -0.54988499     0.00020973     0.00043405    -0.00032845
     6
  Step:     1            Position(A)                                  Velocity(au)
C        -0.04471429     0.01888188     0.02857529    -0.00002841    -0.00008347     0.00027685
N        -0.03737825    -0.06780970     1.29308995    -0.00018837    -0.00006969    -0.00026429
H         0.95656734     0.02670086    -0.52405250     0.00032153     0.00045650    -0.00019150
H         0.82835696    -0.07995477     1.82042459     0.00155356     0.00058160     0.00087256
H        -0.97208591     0.03581988     1.83783369     0.00090399     0.00049582     0.00010029
H        -0.97353657     0.06496626    -0.55190226     0.00017709     0.00042910    -0.00040767
     6
  Step:     2            Position(A)                                  Velocity(au)
C        -0.04485225     0.01844182     0.02990249    -0.00002177    -0.00007721     0.00020647
N        -0.03845438    -0.06820489     1.29182083    -0.00020277    -0.00007491    -0.00019740
H         0.95817523     0.02921066    -0.52516095     0.00026290     0.00046057    -0.00021135
H         0.83700358    -0.07676306     1.82543164     0.00158212     0.00058535     0.00094103
H        -0.96662505     0.03851942     1.83819941     0.00108504     0.00049133     0.00003648
H        -0.97265348     0.06730027    -0.55434546     0.00014710     0.00042376    -0.00048342
     6
  Step:     3            Position(A)                                  Velocity(au)
C        -0.04495259     0.01803665     0.03083551    -0.00001468    -0.00007068     0.00013313
N        -0.03959788    -0.06862974     1.29092910    -0.00021279    -0.00008043    -0.00012680
H         0.95944526     0.03174258    -0.52636610     0.00019838     0.00046416    -0.00022690
H         0.84567600    -0.07354708     1.83072583     0.00156323     0.00058969     0.00097752
H        -0.96020830     0.04119832     1.83823299     0.00125024     0.00048810    -0.00001981
H        -0.97192632     0.06960505    -0.55719418     0.00012015     0.00041801    -0.00055512
     6
  Step:     4            Position(A)                                  Velocity(au)
C        -0.04501301     0.01766770     0.03136048    -0.00000722    -0.00006396     0.00005786
N        -0.04078484    -0.06908578     1.29043215    -0.00021848    -0.00008620    -0.00005374
H         0.96034783     0.03429401    -0.52764590     0.00012910     0.00046728    -0.00023870
H         0.85412373    -0.07030493     1.83613726     0.00150091     0.00059417     0.00098428
H        -0.95293274     0.04386494     1.83798245     0.00139557     0.00048670    -0.00006596
H        -0.97133761     0.07187821    -0.56042504     0.00009653     0.00041182    -0.00062226
     6
  Step:     5            Position(A)                                  Velocity(au)
C        -0.04503165     0.01733589     0.03146942     0.00000053    -0.00005710    -0.00001825
N        -0.04199170    -0.06957423     1.29034030    -0.00021991    -0.00009216     0.00002046
H         0.96085976     0.03686234    -0.52898144     0.00005626     0.00046990    -0.00024733
H         0.86212090    -0.06703701     1.84151024     0.00140001     0.00059836     0.00096416
H        -0.94491758     0.04653091     1.83751032     0.00151700     0.00048773    -0.00009935
H        -0.97086863     0.07411719    -0.56401208     0.00007642     0.00040513    -0.00068440
     6
  Step:     6            Position(A)                                  Velocity(au)
C        -0.04500716     0.01704175     0.03116044     0.00000848    -0.00005020    -0.00009406
N        -0.04319545    -0.07009602     1.29065646    -0.00021720    -0.00009825     0.00009444
H         0.96096457     0.03944486    -0.53035703    -0.00001887     0.00047198    -0.00025338
H         0.86947006    -0.06374597     1.84670603     0.00126583     0.00060184     0.00092036
H        -0.93630403     0.04921122     1.83689344     0.00161051     0.00049177    -0.00011744
H        -0.97049997     0.07631909    -0.56792712     0.00005986     0.00039786    -0.00074111
     6
  Step:     7            Position(A)                                  Velocity(au)
C        -0.04493870     0.01678539     0.03043787     0.00001650    -0.00004330    -0.00016841
N        -0.04437375    -0.07065179     1.29137602    -0.00021045    -0.00010442     0.00016680
H         0.96065277     0.04203861    -0.53176027    -0.00009499     0.00047344    -0.00025744
H         0.87600344    -0.06043657     1.85160397     0.00110383     0.00060420     0.00085621
H        -0.92725485     0.05192424     1.83622239     0.00167226     0.00049941    -0.00011782
H        -0.97021217     0.07848059    -0.57213989     0.00004683     0.00038990    -0.00079198
     6
  Step:     8            Position(A)                                  Velocity(au)
C        -0.04482606     0.01656656     0.02931233     0.00002450    -0.00003649    -0.00024014
N        -0.04550489    -0.07124186     1.29248681    -0.00019980    -0.00011058     0.00023615
H         0.95992221     0.04464027    -0.53318203    -0.00017067     0.00047418    -0.00026008
H         0.88158305    -0.05711567     1.85610173     0.00091944     0.00060505     0.00077504
H        -0.91795330     0.05469157     1.83560048     0.00169870     0.00051117    -0.00009843
H        -0.96998611     0.08059774    -0.57661805     0.00003722     0.00038112    -0.00083661
     6
  Step:     9            Position(A)                                  Velocity(au)
C        -0.04466969     0.01638463     0.02780072     0.00003232    -0.00002983    -0.00030807
N        -0.04656792    -0.07186618     1.29396931    -0.00018541    -0.00011668     0.00030115
H         0.95877851     0.04724589    -0.53461633    -0.00024443     0.00047406    -0.00026186
H         0.88610038    -0.05379214     1.86011519     0.00071806     0.00060400     0.00068018
H        -0.90860044     0.05753771     1.83514143     0.00168700     0.00052748    -0.00005773
H        -0.96980346     0.08266586    -0.58132718     0.00003086     0.00037135    -0.00087455
     6
  Step:    10            Position(A)                                  Velocity(au)
C        -0.04447081     0.01623863     0.02592617     0.00003982    -0.00002339    -0.00037104
N        -0.04754287    -0.07252434     1.29579694    -0.00016750    -0.00012262     0.00036054
H         0.95723551     0.04985086    -0.53606029    -0.00031469     0.00047291    -0.00026332
H         0.88947566    -0.05047681     1.86357790     0.00050501     0.00060069     0.00057485
H        -0.89941064     0.06048935     1.83496590     0.00163535     0.00054860     0.00000504
H        -0.96964696     0.08467940    -0.58623064     0.00002752     0.00036043    -0.00090535
     6
  Step:    11            Position(A)                                  Velocity(au)
C        -0.04423149     0.01612726     0.02371787     0.00004684    -0.00001722    -0.00042794
N        -0.04841108    -0.07321546     1.29793656    -0.00014638    -0.00012831     0.00041313
H         0.95531575     0.05244968    -0.53751390    -0.00037978     0.00047058    -0.00026496
H         0.89165740    -0.04718234     1.86644072     0.00028559     0.00059478     0.00046229
H        -0.89060540     0.06357438     1.83519685     0.00154339     0.00057457     0.00008960
H        -0.96950068     0.08663191    -0.59128948     0.00002693     0.00034819    -0.00092858
     6
  Step:    12            Position(A)                                  Velocity(au)
C        -0.04395473     0.01604889     0.02121076     0.00005319    -0.00001139    -0.00047775
N        -0.04915583    -0.07393811     1.30034916    -0.00012250    -0.00013362     0.00045795
H         0.95305075     0.05503601    -0.53897985    -0.00043804     0.00046689    -0.00026723
H         0.89262250    -0.04392303     1.86867172     0.00006517     0.00058603     0.00034572
H        -0.88240440     0.06682037     1.83595315     0.00141261     0.00060509     0.00019437
H        -0.96935024     0.08851606    -0.59646242     0.00002879     0.00033450    -0.00094381
     6
  Step:    13            Position(A)                                  Velocity(au)
C        -0.04364450     0.01600159     0.01844509     0.00005869    -0.00000594    -0.00051954
N        -0.04976304    -0.07469023     1.30299081    -0.00009644    -0.00013845     0.00049419
H         0.95048120     0.05760259    -0.54046324    -0.00048781     0.00046170    -0.00027052
H         0.89237665    -0.04071451     1.87025630    -0.00015081     0.00057423     0.00022841
H        -0.87501478     0.07025264     1.83734203     0.00124662     0.00063952     0.00031633
H        -0.96918290     0.09032371    -0.60170607     0.00003278     0.00031924    -0.00095071
     6
  Step:    14            Position(A)                                  Velocity(au)
C        -0.04330574     0.01598316     0.01546571     0.00006318    -0.00000094    -0.00055261
N        -0.05022220    -0.07546904     1.30581381    -0.00006895    -0.00014264     0.00052132
H         0.94765662     0.06014137    -0.54197122    -0.00052757     0.00045489    -0.00027515
H         0.89095486    -0.03757329     1.87119747    -0.00035686     0.00055932     0.00011368
H        -0.86861945     0.07389209     1.83945113     0.00105124     0.00067678     0.00045104
H        -0.96898779     0.09204618    -0.60697520     0.00003853     0.00030236    -0.00094905
     6
  Step:    15            Position(A)                                  Velocity(au)
C        -0.04294432     0.01599116     0.01232100     0.00006651     0.00000358    -0.00057647
N        -0.05052717    -0.07627097     1.30876810    -0.00004094    -0.00014606     0.00053912
H         0.94463458     0.06264374    -0.54351249    -0.00055606     0.00044643    -0.00028136
H         0.88842184    -0.03451611     1.87151611    -0.00054758     0.00054138     0.00000482
H        -0.86336485     0.07775274     1.84234054     0.00083439     0.00071541     0.00059276
H        -0.96875590     0.09367448    -0.61222353     0.00004569     0.00028387    -0.00093884
     6
  Step:    16            Position(A)                                  Velocity(au)
C        -0.04256689     0.01602291     0.00906163     0.00006856     0.00000758    -0.00059097
N        -0.05067702    -0.07709169     1.31180300    -0.00001340    -0.00014861     0.00054776
H         0.94147934     0.06510083    -0.54509687    -0.00057236     0.00043638    -0.00028931
H         0.88487171    -0.03155909     1.87125098    -0.00071787     0.00052070    -0.00009499
H        -0.85935015     0.08183969     1.84603613     0.00060563     0.00075373     0.00073489
H        -0.96848022     0.09519974    -0.61740483     0.00005389     0.00026390    -0.00092036
     6
  Step:    17            Position(A)                                  Velocity(au)
C        -0.04218066     0.01607560     0.00573875     0.00006929     0.00001106    -0.00059637
N        -0.05067647    -0.07792616     1.31486902     0.00001263    -0.00015020     0.00054777
H         0.93825963     0.06750413    -0.54673483    -0.00057613     0.00042495    -0.00029911
H         0.88042624    -0.02871662     1.87045816    -0.00086329     0.00049780    -0.00018282
H        -0.85661936     0.08614776     1.85052570     0.00037539     0.00078997     0.00087066
H        -0.96815568     0.09661379    -0.62247451     0.00006279     0.00024267    -0.00089432
     6
  Step:    18            Position(A)                                  Velocity(au)
C        -0.04179308     0.01614637     0.00240183     0.00006871     0.00001400    -0.00059340
N        -0.05053594    -0.07876895     1.31792003     0.00003622    -0.00015084     0.00054014
H         0.93504563     0.06984627    -0.54843711    -0.00056764     0.00041252    -0.00031084
H         0.87523115    -0.02600006     1.86920945    -0.00098052     0.00047348    -0.00025625
H        -0.85515807     0.09066146     1.85575891     0.00015396     0.00082264     0.00099391
H        -0.96777905     0.09790973    -0.62739184     0.00007209     0.00022054    -0.00086186
     6
  Step:    19            Position(A)                                  Velocity(au)
C        -0.04141146     0.01623235    -0.00090390     0.00006692     0.00001645    -0.00058324
N        -0.05027100    -0.07961465     1.32091550     0.00005657    -0.00015062     0.00052623
H         0.93190524     0.07212196    -0.55021451    -0.00054788     0.00039966    -0.00032461
H         0.86945002    -0.02341635     1.86758959    -0.00106764     0.00044875    -0.00031356
H        -0.85489589     0.09535660     1.86165182    -0.00004964     0.00085073     0.00109990
H        -0.96734865     0.09908256    -0.63212239     0.00008159     0.00019792    -0.00082457
     6
  Step:    20            Position(A)                                  Velocity(au)
C        -0.04104248     0.01633087    -0.00413993     0.00006407     0.00001845    -0.00056745
N        -0.04990140    -0.08045839     1.32382241     0.00007316    -0.00014975     0.00050767
H         0.92890038     0.07432900    -0.55207799    -0.00051838     0.00038709    -0.00034056
H         0.86325619    -0.02096670     1.86569243    -0.00112434     0.00042480    -0.00035382
H        -0.85571479     0.10020348     1.86809573    -0.00022852     0.00087395     0.00118582
H        -0.96686392     0.10012965    -0.63664048     0.00009116     0.00017527    -0.00078437
     6
  Step:    21            Position(A)                                  Velocity(au)
C        -0.04069191     0.01643955    -0.00727640     0.00006037     0.00002008    -0.00054775
N        -0.04944947    -0.08129638     1.32661660     0.00008571    -0.00014848     0.00048611
H         0.92608382     0.07646904    -0.55403900    -0.00048097     0.00037557    -0.00035893
H         0.85682367    -0.01864584     1.86361622    -0.00115169     0.00040280    -0.00037686
H        -0.85746217     0.10517107     1.87496861    -0.00037846     0.00089267     0.00125086
H        -0.96632494     0.10105086    -0.64093089     0.00010078     0.00015299    -0.00074322
     6
  Step:    22            Position(A)                                  Velocity(au)
C        -0.04036435     0.01655641    -0.01029287     0.00005601     0.00002141    -0.00052574
N        -0.04893866    -0.08212627     1.32928294     0.00009419    -0.00014707     0.00046307
H         0.92349759     0.07854783    -0.55610983    -0.00043750     0.00036577    -0.00037995
H         0.85031924    -0.01644205     1.86145921    -0.00115159     0.00038376    -0.00038307
H        -0.85996608     0.11023086     1.88214661    -0.00049768     0.00090768     0.00129569
H        -0.96573183     0.10184823    -0.64498909     0.00011051     0.00013136    -0.00070284
     6
  Step:    23            Position(A)                                  Velocity(au)
C        -0.04006327     0.01667992    -0.01317768     0.00005115     0.00002254    -0.00050268
N        -0.04839221    -0.08294722     1.33181435     0.00009872    -0.00014576     0.00043964
H         0.92117309     0.08057467    -0.55830376    -0.00038950     0.00035818    -0.00040376
H         0.84389746    -0.01433827     1.85931644    -0.00112600     0.00036845    -0.00037303
H        -0.86304843     0.11535949     1.88951230    -0.00058632     0.00091986     0.00132182
H        -0.96508448     0.10252537    -0.64882001     0.00012044     0.00011048    -0.00066444
     6
  Step:    24            Position(A)                                  Velocity(au)
C        -0.03979117     0.01680901    -0.01592613     0.00004592     0.00002352    -0.00047938
N        -0.04783232    -0.08375975     1.33420971     0.00009948    -0.00014470     0.00041649
H         0.91913269     0.08256169    -0.56063451    -0.00033817     0.00035305    -0.00043031
H         0.83770087    -0.01231303     1.85727891    -0.00107645     0.00035735    -0.00034731
H        -0.86653665     0.12053911     1.89695945    -0.00064568     0.00092980     0.00133078
H        -0.96438214     0.10308634    -0.65243502     0.00013064     0.00009028    -0.00062861
     6
  Step:    25            Position(A)                                  Velocity(au)
C        -0.03954979     0.01694296    -0.01853782     0.00004041     0.00002442    -0.00045618
N        -0.04727983    -0.08456521     1.33647135     0.00009666    -0.00014395     0.00039387
H         0.91739184     0.08452231    -0.56311531    -0.00028437     0.00035039    -0.00045929
H         0.83186110    -0.01034254     1.85543298    -0.00100407     0.00035060    -0.00030645
H        -0.87026813     0.12575604     1.90439244    -0.00067739     0.00093777     0.00132371
H        -0.96362372     0.10353487    -0.65584877     0.00014114     0.00007060    -0.00059541
     6
  Step:    26            Position(A)                                  Velocity(au)
C        -0.03934043     0.01708136    -0.02101432     0.00003468     0.00002525    -0.00043314
N        -0.04675423    -0.08536533     1.33860286     0.00009044    -0.00014349     0.00037173
H         0.91596090     0.08646989    -0.56575740    -0.00022879     0.00035000    -0.00049011
H         0.82650155    -0.00840249     1.85386075    -0.00090984     0.00034811    -0.00025109
H        -0.87409222     0.13099892     1.91172400    -0.00068317     0.00094368     0.00130136
H        -0.96280791     0.10387375    -0.65907617     0.00015187     0.00005120    -0.00056456
     6
  Step:    27            Position(A)                                  Velocity(au)
C        -0.03916395     0.01722395    -0.02335731     0.00002878     0.00002605    -0.00041014
N        -0.04627355    -0.08616176     1.34060757     0.00008106    -0.00014326     0.00034993
H         0.91484608     0.08841670    -0.56856874    -0.00017216     0.00035159    -0.00052201
H         0.82173738    -0.00646922     1.85263910    -0.00079512     0.00034963    -0.00018219
H        -0.87786965     0.13625624     1.91887246    -0.00066476     0.00094726     0.00126429
H        -0.96193389     0.10410459    -0.66213061     0.00016270     0.00003189    -0.00053564
     6
  Step:    28            Position(A)                                  Velocity(au)
C        -0.03902091     0.01737061    -0.02556786     0.00002279     0.00002683    -0.00038704
N        -0.04585428    -0.08695589     1.34248795     0.00006881    -0.00014322     0.00032831
H         0.91404950     0.09037342    -0.57155293    -0.00011527     0.00035486    -0.00055408
H         0.81767376    -0.00452078     1.85183805    -0.00066198     0.00035481    -0.00010116
H        -0.88147264     0.14151572     1.92576061    -0.00062406     0.00094829     0.00121316
H        -0.96100153     0.10422777    -0.66502304     0.00017347     0.00001245    -0.00050820
     6
  Step:    29            Position(A)                                  Velocity(au)
C        -0.03891141     0.01752131    -0.02764621     0.00001580     0.00003035    -0.00040171
N        -0.04551100    -0.08774878     1.34424562     0.00005472    -0.00014689     0.00033529
H         0.91356876     0.09234902    -0.57470861    -0.00008230     0.00042319    -0.00054248
H         0.81440183    -0.00253748     1.85151816    -0.00052643     0.00030273    -0.00001071
H        -0.88478495     0.14676436     1.93231574    -0.00054467     0.00101903     0.00113036
H        -0.96001163     0.10424261    -0.66776203     0.00020467    -0.00006538    -0.00044960
     6
  Step:    30            Position(A)                                  Velocity(au)
C        -0.03884610     0.01770641    -0.03001248     0.00000856     0.00003675    -0.00046055
N        -0.04524880    -0.08858113     1.34619762     0.00003910    -0.00015393     0.00037680
H         0.91313893     0.09505566    -0.57755498    -0.00007740     0.00054129    -0.00048403
H         0.81184924    -0.00117129     1.85171959    -0.00039592     0.00020671     0.00007801
H        -0.88749896     0.15279043     1.93826705    -0.00042823     0.00113940     0.00101206
H        -0.95873699     0.10350440    -0.66999750     0.00025633    -0.00018632    -0.00035421
     6
  Step:    31            Position(A)                                  Velocity(au)
C        -0.03881684     0.01792752    -0.03273675     0.00000243     0.00004319    -0.00052557
N        -0.04507887    -0.08945016     1.34841042     0.00002162    -0.00016034     0.00042464
H         0.91271323     0.09833196    -0.58005873    -0.00007752     0.00063889    -0.00042174
H         0.81002562    -0.00025270     1.85238040    -0.00026111     0.00013205     0.00016061
H        -0.88951826     0.15935842     1.94350227    -0.00029624     0.00122835     0.00087698
H        -0.95717833     0.10218313    -0.67167717     0.00030552    -0.00028583    -0.00025411
     6
  Step:    32            Position(A)                                  Velocity(au)
C        -0.03881931     0.01818358    -0.03581963    -0.00000295     0.00004932    -0.00058876
N        -0.04500990    -0.09035272     1.35088958     0.00000283    -0.00016599     0.00047188
H         0.91228240     0.10211499    -0.58221491    -0.00007836     0.00072626    -0.00035886
H         0.80896422     0.00028780     1.85349423    -0.00012127     0.00006775     0.00024191
H        -0.89077218     0.16636283     1.94795711    -0.00015313     0.00129958     0.00073138
H        -0.95536125     0.10034613    -0.67280524     0.00034863    -0.00037469    -0.00015611
     6
  Step:    33            Position(A)                                  Velocity(au)
C        -0.03884944     0.01847259    -0.03924386    -0.00000756     0.00005498    -0.00064732
N        -0.04504762    -0.09128468     1.35362572    -0.00001669    -0.00017069     0.00051622
H         0.91184713     0.10635884    -0.58402497    -0.00007847     0.00080521    -0.00029651
H         0.80868535     0.00049614     1.85505403     0.00002028     0.00001068     0.00032080
H        -0.89121070     0.17372174     1.95158568    -0.00000304     0.00135593     0.00057871
H        -0.95332517     0.09804193    -0.67340259     0.00038322    -0.00045501    -0.00006307
     6
  Step:    34            Position(A)                                  Velocity(au)
C        -0.03890295     0.01879179    -0.04298039    -0.00001135     0.00006003    -0.00069922
N        -0.04519447    -0.09224093     1.35660008    -0.00003625    -0.00017426     0.00055607
H         0.91141433     0.11102230    -0.58549494    -0.00007688     0.00087604    -0.00023561
H         0.80918856     0.00040593     1.85704299     0.00015911    -0.00004094     0.00039506
H        -0.89080580     0.18136226     1.95435889     0.00014961     0.00139845     0.00042241
H        -0.95112204     0.09531273    -0.67350292     0.00040706    -0.00052736     0.00002263
     6
  Step:    35            Position(A)                                  Velocity(au)
C        -0.03897515     0.01913764    -0.04699032    -0.00001422     0.00006433    -0.00074276
N        -0.04544918    -0.09321523     1.35978633    -0.00005514    -0.00017651     0.00059014
H         0.91099545     0.11606423    -0.58663522    -0.00007288     0.00093849    -0.00017708
H         0.81044804     0.00004259     1.85943084     0.00029026    -0.00008824     0.00046205
H        -0.88955319     0.18921488     1.95626549     0.00030014     0.00142768     0.00026616
H        -0.94881542     0.09219943    -0.67315185     0.00041824    -0.00059167     0.00009877
     6
  Step:    36            Position(A)                                  Velocity(au)
C        -0.03906087     0.01950593    -0.05122629    -0.00001612     0.00006776    -0.00077661
N        -0.04580661    -0.09420047     1.36315170    -0.00007266    -0.00017732     0.00061740
H         0.91060520     0.12144124    -0.58746089    -0.00006602     0.00099209    -0.00012191
H         0.81241093    -0.00057365     1.86217255     0.00040881    -0.00013197     0.00051917
H        -0.88747371     0.19721202     1.95731368     0.00044373     0.00144416     0.00011384
H        -0.94647888     0.08874411    -0.67240636     0.00041522    -0.00064765     0.00016335
     6
  Step:    37            Position(A)                                  Velocity(au)
C        -0.03915455     0.01989184    -0.05563420    -0.00001697     0.00007026    -0.00079993
N        -0.04625787    -0.09518886     1.36665821    -0.00008815    -0.00017665     0.00063719
H         0.91026066     0.12710653    -0.58799207    -0.00005604     0.00103642    -0.00007101
H         0.81499828    -0.00142624     1.86520935     0.00051037    -0.00017266     0.00056425
H        -0.88461439     0.20528887     1.95753257     0.00057572     0.00144886    -0.00003057
H        -0.94419384     0.08499093    -0.67133370     0.00039714    -0.00069501     0.00021476
     6
  Step:    38            Position(A)                                  Velocity(au)
C        -0.03925032     0.02029020    -0.06015586    -0.00001677     0.00007180    -0.00081255
N        -0.04679060    -0.09617240     1.37026457    -0.00010109    -0.00017458     0.00064932
H         0.90997961     0.13301068    -0.58825356    -0.00004297     0.00107153    -0.00002521
H         0.81810814    -0.00250109     1.86847120     0.00059156    -0.00021067     0.00059586
H        -0.88104703     0.21338541     1.95697238     0.00069209     0.00144338    -0.00016341
H        -0.94204565     0.08098580    -0.67000901     0.00036392    -0.00073382     0.00025200
     6
  Step:    39            Position(A)                                  Velocity(au)
C        -0.03934234     0.02069576    -0.06473245    -0.00001555     0.00007243    -0.00081503
N        -0.04738974    -0.09714362     1.37392872    -0.00011113    -0.00017131     0.00065415
H         0.90977951     0.13910458    -0.58827435    -0.00002702     0.00109813     0.00001489
H         0.82162204    -0.00378514     1.87188122     0.00065048    -0.00024626     0.00061353
H        -0.87686502     0.22145056     1.95570282     0.00078982     0.00143019    -0.00028165
H        -0.94011900     0.07677431    -0.66851203     0.00031636    -0.00076462     0.00027483
     6
  Step:    40            Position(A)                                  Velocity(au)
C        -0.03942500     0.02110360    -0.06930856    -0.00001340     0.00007227    -0.00080862
N        -0.04803856    -0.09809618     1.37761064    -0.00011814    -0.00016716     0.00065255
H         0.90967613     0.14534264    -0.58808636    -0.00000861     0.00111759     0.00004900
H         0.82541295    -0.00526659     1.87536110     0.00068681    -0.00027979     0.00061782
H        -0.87217742     0.22944641     1.95380951     0.00086723     0.00141245    -0.00038321
H        -0.93849299     0.07239922    -0.66692272     0.00025600    -0.00078849     0.00028381
     6
  Step:    41            Position(A)                                  Velocity(au)
C        -0.03949320     0.02150936    -0.07383596    -0.00001043     0.00007146    -0.00079510
N        -0.04871979    -0.09902553     1.38127523    -0.00012219    -0.00016252     0.00064578
H         0.90968256     0.15168654    -0.58772268     0.00001178     0.00113184     0.00007717
H         0.82935419    -0.00693511     1.87883673     0.00070170    -0.00031174     0.00061013
H        -0.86710167     0.23735215     1.95138864     0.00092395     0.00139377    -0.00046713
H        -0.93723692     0.06789738    -0.66531690     0.00018488    -0.00080700     0.00028018
     6
  Step:    42            Position(A)                                  Velocity(au)
C        -0.03954260     0.02190963    -0.07827637    -0.00000677     0.00007019    -0.00077641
N        -0.04941678    -0.09992924     1.38489437    -0.00012350    -0.00015778     0.00063523
H         0.90980902     0.15810860    -0.58721592     0.00003363     0.00114303     0.00009975
H         0.83332739    -0.00878271     1.88224272     0.00069733    -0.00034263     0.00059235
H        -0.86175623     0.24516656     1.94854083     0.00096072     0.00137768    -0.00053345
H        -0.93640774     0.06329718    -0.66376256     0.00010523    -0.00082190     0.00026566
     6
  Step:    43            Position(A)                                  Velocity(au)
C        -0.03956963     0.02230191    -0.08260224    -0.00000257     0.00006862    -0.00075432
N        -0.05011424    -0.10080704     1.38844751    -0.00012235    -0.00015328     0.00062215
H         0.91006228     0.16459230    -0.58659641     0.00005641     0.00115308     0.00011728
H         0.83722760    -0.01080371     1.88552486     0.00067631    -0.00037297     0.00056647
H        -0.85625430     0.25290728     1.94536552     0.00097889     0.00136720    -0.00058293
H        -0.93604881     0.05861749    -0.66231735     0.00001927    -0.00083487     0.00024216
     6
  Step:    44            Position(A)                                  Velocity(au)
C        -0.03957159     0.02268460    -0.08679589     0.00000204     0.00006686    -0.00073024
N        -0.05079867    -0.10166048     1.39192105    -0.00011905    -0.00014927     0.00060749
H         0.91044610     0.17113179    -0.58589130     0.00007963     0.00116350     0.00013040
H         0.84096584    -0.01299510     1.88864063     0.00064134    -0.00040319     0.00053435
H        -0.85070042     0.26060805     1.94195703     0.00097999     0.00136453    -0.00061670
H        -0.93619014     0.05386800    -0.66102760    -0.00007087    -0.00084726     0.00021157
     6