     6
  Step:     0            Position(A)                                  Velocity(au)
C        -0.02929949     0.01236559     0.04636062     0.00000100     0.00011838    -0.00018750
N        -0.04810408    -0.06967748     1.27654597    -0.00013477    -0.00001661     0.00022043
H         0.91704870     0.00890621    -0.51782337    -0.00020713    -0.00052857    -0.00011883
H         0.81953581    -0.00192101     1.75808475     0.00081723     0.00003183     0.00037619
H        -0.92863697     0.02483132     1.89887435     0.00107579    -0.00029050    -0.00140805
H        -1.00327970     0.11932005    -0.53886196     0.00017511    -0.00039256     0.00032175
     6
  Step:     1            Position(A)                                  Velocity(au)
C        -0.02931761     0.01303855     0.04503187    -0.00000733     0.00012751    -0.00029606
N        -0.04890309    -0.06979501     1.27802114    -0.00015535    -0.00002629     0.00031685
H         0.91599620     0.00600357    -0.51868100    -0.00017627    -0.00053283    -0.00019547
H         0.82446457    -0.00165504     1.76057296     0.00097126     0.00006433     0.00052538
H        -0.92230467     0.02322664     1.89088091     0.00122378    -0.00029455    -0.00150133
H        -1.00216849     0.11717565    -0.53716520     0.00022752    -0.00039100     0.00029616
     6
  Step:     2            Position(A)                                  Velocity(au)
C        -0.02937970     0.01376087     0.04312093    -0.00001497     0.00013604    -0.00039862
N        -0.04980408    -0.06996516     1.28001319    -0.00017127    -0.00003573     0.00040768
H         0.91511981     0.00307559    -0.51996235    -0.00014259    -0.00053652    -0.00027285
H         0.83016407    -0.00121706     1.76383386     0.00109455     0.00009434     0.00065599
H        -0.91524541     0.02160813     1.88244572     0.00133504    -0.00029453    -0.00156340
H        -1.00078997     0.11504147    -0.53562113     0.00027156    -0.00038784     0.00026498
     6
  Step:     3            Position(A)                                  Velocity(au)
C        -0.02948161     0.01452901     0.04066446    -0.00002172     0.00014357    -0.00049251
N        -0.05077961    -0.07018645     1.28248778    -0.00018149    -0.00004474     0.00049029
H         0.91443398     0.00012532    -0.52167043    -0.00010647    -0.00053866    -0.00034955
H         0.83645675    -0.00062142     1.76776020     0.00118173     0.00012129     0.00076447
H        -0.90767765     0.01999967     1.87375185     0.00140027    -0.00028934    -0.00158682
H        -0.99919321     0.11292643    -0.53426205     0.00030536    -0.00038234     0.00022739
     6
  Step:     4            Position(A)                                  Velocity(au)
C        -0.02961815     0.01533727     0.03771328    -0.00002736     0.00014971    -0.00057491
N        -0.05179676    -0.07045643     1.28539647    -0.00018509    -0.00005314     0.00056191
H         0.91395074    -0.00283877    -0.52380029    -0.00006864    -0.00053829    -0.00042370
H         0.84313921     0.00011463     1.77222761     0.00122881     0.00014460     0.00084788
H        -0.89987071     0.01843126     1.86502280     0.00141084    -0.00027798    -0.00156498
H        -0.99743715     0.11084346    -0.53312444     0.00032721    -0.00037388     0.00018301
     6
  Step:     5            Position(A)                                  Velocity(au)
C        -0.02978299     0.01617777     0.03433291    -0.00003173     0.00015410    -0.00064324
N        -0.05281799    -0.07077163     1.28867610    -0.00018147    -0.00006070     0.00061997
H         0.91367807    -0.00580290    -0.52633673    -0.00003008    -0.00053462    -0.00049325
H         0.84998980     0.00097104     1.77709795     0.00123392     0.00016380     0.00090435
H        -0.89213995     0.01693822     1.85651654     0.00136032    -0.00025979    -0.00149352
H        -0.99558964     0.10880887    -0.53224657     0.00033580    -0.00036203     0.00013198
     6
  Step:     6            Position(A)                                  Velocity(au)
C        -0.02996887     0.01704079     0.03060227    -0.00003467     0.00015650    -0.00069561
N        -0.05380293    -0.07112751     1.29225020    -0.00017051    -0.00006728     0.00066262
H         0.91361820    -0.00874900    -0.52925315     0.00000797    -0.00052723    -0.00055619
H         0.85678009     0.00192540     1.78222510     0.00119785     0.00017861     0.00093357
H        -0.88483248     0.01555928     1.84851208     0.00124625    -0.00023459    -0.00137155
H        -0.99372489     0.10684122    -0.53166537     0.00033058    -0.00034671     0.00007506
     6
  Step:     7            Position(A)                                  Velocity(au)
C        -0.03016790     0.01791537     0.02660977    -0.00003615     0.00015688    -0.00073125
N        -0.05471107    -0.07151864     1.29603296    -0.00015262    -0.00007277     0.00068914
H         0.91376656    -0.01165652    -0.53251193     0.00004422    -0.00051615    -0.00061100
H         0.86328904     0.00295405     1.78746306     0.00112425     0.00018904     0.00093707
H        -0.87830336     0.01433367     1.84128871     0.00107129    -0.00020282    -0.00120254
H        -0.99191930     0.10495946    -0.53141318     0.00031193    -0.00032823     0.00001350
     6
  Step:     8            Position(A)                                  Velocity(au)
C        -0.03037202     0.01879039     0.02244726    -0.00003623     0.00015541    -0.00075079
N        -0.05550495    -0.07193909     1.29993561    -0.00012879    -0.00007718     0.00070023
H         0.91411140    -0.01450515    -0.53606712     0.00007752    -0.00050200    -0.00065701
H         0.86931790     0.00403359     1.79267542     0.00101935     0.00019546     0.00091822
H        -0.87288531     0.01329742     1.83510115     0.00084352    -0.00016555    -0.00099423
H        -0.99024619     0.10318078    -0.53151487     0.00028120    -0.00030728    -0.00005117
     6
  Step:     9            Position(A)                                  Velocity(au)
C        -0.03057364     0.01965569     0.01820238    -0.00003508     0.00015247    -0.00075628
N        -0.05615330    -0.07238290     1.30387416    -0.00010045    -0.00008062     0.00069799
H         0.91463462    -0.01727798    -0.53986915     0.00010701    -0.00048593    -0.00069462
H         0.87470379     0.00514277     1.79774528     0.00089105     0.00019857     0.00088190
H        -0.86885760     0.01247981     1.83015525     0.00057531    -0.00012432    -0.00075753
H        -0.98877035     0.10151847    -0.53198621     0.00024054    -0.00028489    -0.00011744
     6
  Step:    10            Position(A)                                  Velocity(au)
C        -0.03076611     0.02050329     0.01395095    -0.00003292     0.00014858    -0.00075081
N        -0.05663338    -0.07284475     1.30777709    -0.00006916    -0.00008329     0.00068557
H         0.91531359    -0.01996428    -0.54387074     0.00013228    -0.00046939    -0.00072527
H         0.87932821     0.00626439     1.80258301     0.00074756     0.00019935     0.00083377
H        -0.86642209     0.01190077     1.82659082     0.00028118    -0.00008083    -0.00050456
H        -0.98754385     0.09998023    -0.53283422     0.00019246    -0.00026217    -0.00018417
     6
  Step:    11            Position(A)                                  Velocity(au)
C        -0.03094416     0.02132809     0.00975146    -0.00003001     0.00014429    -0.00073781
N        -0.05693180    -0.07332042     1.31159074    -0.00003645    -0.00008546     0.00066642
H         0.91612357    -0.02256134    -0.54803254     0.00015331    -0.00045384    -0.00075095
H         0.88311818     0.00738657     1.80712995     0.00059607     0.00019883     0.00077922
H        -0.86569274     0.01157002     1.82447609    -0.00002458    -0.00003667    -0.00024663
H        -0.98660409     0.09856761    -0.53405924     0.00013938    -0.00024011    -0.00025078
     6
  Step:    12            Position(A)                                  Velocity(au)
C        -0.03110399     0.02212802     0.00564340    -0.00002658     0.00014006    -0.00072027
N        -0.05704381    -0.07380706     1.31528088    -0.00000355    -0.00008736     0.00064361
H         0.91703986    -0.02507438    -0.55232633     0.00017029    -0.00044038    -0.00077367
H         0.88603981     0.00850322     1.81135685     0.00044181     0.00019797     0.00072262
H        -0.86669885     0.01148785     1.82381383    -0.00032935     0.00000684     0.00000696
H        -0.98597441     0.09727666    -0.53565793     0.00008336    -0.00021941    -0.00031708
     6
  Step:    13            Position(A)                                  Velocity(au)
C        -0.03124310     0.02290345     0.00164979    -0.00002281     0.00013614    -0.00070027
N        -0.05697176    -0.07430302     1.31883020     0.00002855    -0.00008911     0.00061932
H         0.91803903    -0.02751474    -0.55673486     0.00018342    -0.00042960    -0.00079479
H         0.88808772     0.00961334     1.81525803     0.00028812     0.00019746     0.00066692
H        -0.86939726     0.01164700     1.82455442    -0.00062239     0.00004869     0.00024903
H        -0.98566641     0.09609968    -0.53762576     0.00002599    -0.00020038    -0.00038304
     6
  Step:    14            Position(A)                                  Velocity(au)
C        -0.03136003     0.02365626    -0.00221775    -0.00001884     0.00013263    -0.00067886
N        -0.05672335    -0.07480745     1.32223331     0.00005904    -0.00009078     0.00059476
H         0.91909896    -0.02989698    -0.56124851     0.00019278    -0.00042155    -0.00081483
H         0.88927424     0.01071982     1.81884363     0.00013702     0.00019774     0.00061383
H        -0.87368575     0.01203446     1.82660936    -0.00089428     0.00008801     0.00047380
H        -0.98568261     0.09502723    -0.53995787    -0.00003141    -0.00018302    -0.00044844
     6
  Step:    15            Position(A)                                  Velocity(au)
C        -0.03145411     0.02438881    -0.00595319    -0.00001479     0.00012948    -0.00065628
N        -0.05631051    -0.07531975     1.32549125     0.00008721    -0.00009232     0.00057036
H         0.92019805    -0.03223599    -0.56586062     0.00019824    -0.00041591    -0.00083351
H         0.88962225     0.01182795     1.82213274    -0.00001002     0.00019906     0.00056422
H        -0.87941281     0.01263269     1.82986081    -0.00113629     0.00012400     0.00067629
H        -0.98601822     0.09404988    -0.54264814    -0.00008760    -0.00016715    -0.00051269
     6
  Step:    16            Position(A)                                  Velocity(au)
C        -0.03152527     0.02510319    -0.00955175    -0.00001075     0.00012657    -0.00063235
N        -0.05574876    -0.07583908     1.32860716     0.00011238    -0.00009362     0.00054614
H         0.92131434    -0.03454482    -0.57056309     0.00019961    -0.00041213    -0.00085006
H         0.88916224     0.01294430     1.82514883    -0.00015144     0.00020152     0.00051858
H        -0.88638390     0.01342015     1.83416696    -0.00134053     0.00015588     0.00085203
H        -0.98666156     0.09315927    -0.54568720    -0.00014124    -0.00015252    -0.00057479
     6
  Step:    17            Position(A)                                  Velocity(au)
C        -0.03157399     0.02580083    -0.01300750    -0.00000682     0.00012378    -0.00060676
N        -0.05505681    -0.07636416     1.33158381     0.00013395    -0.00009460     0.00052190
H         0.92242484    -0.03683365    -0.57534362     0.00019664    -0.00040966    -0.00086348
H         0.88793284     0.01407606     1.82791789    -0.00028537     0.00020520     0.00047737
H        -0.89436745     0.01437164     1.83936586    -0.00150045     0.00018296     0.00099732
H        -0.98759382     0.09234844    -0.54906038    -0.00019089    -0.00013888    -0.00063353
     6
  Step:    18            Position(A)                                  Velocity(au)
C        -0.03160130     0.02648243    -0.01631278    -0.00000312     0.00012098    -0.00057932
N        -0.05425617    -0.07689316     1.33442259     0.00015144    -0.00009516     0.00049746
H         0.92350548    -0.03910954    -0.58018473     0.00018918    -0.00040799    -0.00087290
H         0.88598243     0.01523077     1.83046810    -0.00040968     0.00021016     0.00044115
H        -0.90310316     0.01545883     1.84527996    -0.00161152     0.00020471     0.00110959
H        -0.98878863     0.09161171    -0.55274648    -0.00023513    -0.00012608    -0.00068760
     6
  Step:    19            Position(A)                                  Velocity(au)
C        -0.03160877     0.02714807    -0.01945869     0.00000025     0.00011811    -0.00054997
N        -0.05337042    -0.07742389     1.33712348     0.00016453    -0.00009528     0.00047269
H         0.92453150    -0.04137693    -0.58506418     0.00017717    -0.00040676    -0.00087765
H         0.88337064     0.01641636     1.83283043    -0.00052217     0.00021651     0.00041057
H        -0.91231314     0.01665122     1.85172219    -0.00167171     0.00022081     0.00118773
H        -0.99021224     0.09094447    -0.55671747    -0.00027265    -0.00011397    -0.00073585
     6
  Step:    20            Position(A)                                  Velocity(au)
C        -0.03159849     0.02779742    -0.02243602     0.00000321     0.00011512    -0.00051888
N        -0.05242432    -0.07795393     1.33968540     0.00017312    -0.00009493     0.00044755
H         0.92547806    -0.04363829    -0.58995619     0.00016073    -0.00040575    -0.00087736
H         0.88016876     0.01764131     1.83503921    -0.00062081     0.00022440     0.00038634
H        -0.92171546     0.01791731     1.85850372    -0.00168158     0.00023120     0.00123213
H        -0.99182419     0.09034279    -0.56093922    -0.00030234    -0.00010249    -0.00077735
     6
  Step:    21            Position(A)                                  Velocity(au)
C        -0.03157302     0.02842993    -0.02523625     0.00000570     0.00011376    -0.00053268
N        -0.05144278    -0.07848090     1.34210674     0.00017776    -0.00009728     0.00045796
H         0.92632118    -0.04589477    -0.59483322     0.00011098    -0.00044204    -0.00083492
H         0.87645823     0.01891494     1.83713215    -0.00072711     0.00028684     0.00035659
H        -0.93103677     0.01922556     1.86544140    -0.00163246     0.00019084     0.00123277
H        -0.99357870     0.08980333    -0.56537292    -0.00028943    -0.00003935    -0.00077093
     6
  Step:    22            Position(A)                                  Velocity(au)
C        -0.03153506     0.02906455    -0.02836928     0.00000757     0.00011397    -0.00059183
N        -0.05044437    -0.07903750     1.34478635     0.00017847    -0.00010215     0.00050436
H         0.92671418    -0.04856198    -0.59925595     0.00002993    -0.00050573    -0.00075017
H         0.87206991     0.02083622     1.83901112    -0.00083871     0.00039229     0.00032062
H        -0.93989851     0.02004294     1.87223488    -0.00152662     0.00010897     0.00119010
H        -0.99504804     0.08990448    -0.56952616    -0.00023490     0.00006591    -0.00071701
     6
  Step:    23            Position(A)                                  Velocity(au)
C        -0.03148860     0.02970035    -0.03183341     0.00000882     0.00011381    -0.00064805
N        -0.04945335    -0.07961956     1.34772884     0.00017481    -0.00010618     0.00054920
H         0.92665479    -0.05153219    -0.60319540    -0.00005008    -0.00055309    -0.00066176
H         0.86710908     0.02328782     1.84070614    -0.00092818     0.00048043     0.00029135
H        -0.94805406     0.02044024     1.87870743    -0.00138039     0.00003712     0.00111880
H        -0.99619715     0.09053802    -0.57336548    -0.00017572     0.00015488    -0.00065805
     6
  Step:    24            Position(A)                                  Velocity(au)
C        -0.03143661     0.03033474    -0.03560183     0.00000957     0.00011307    -0.00069807
N        -0.04849335    -0.08022252     1.35091566     0.00016703    -0.00010933     0.00058941
H         0.92615522    -0.05473480    -0.60664149    -0.00012655    -0.00058883    -0.00057268
H         0.86171097     0.02619809     1.84226279    -0.00099132     0.00055694     0.00027100
H        -0.95530432     0.02045717     1.88472123    -0.00120244    -0.00002835     0.00102539
H        -0.99700913     0.09163302    -0.57687035    -0.00011477     0.00023221    -0.00059616
     6
  Step:    25            Position(A)                                  Velocity(au)
C        -0.03138167     0.03096426    -0.03963623     0.00000987     0.00011167    -0.00074037
N        -0.04758634    -0.08084167     1.35431711     0.00015552    -0.00011163     0.00062349
H         0.92524023    -0.05811398    -0.60959667    -0.00019731    -0.00061519    -0.00048522
H         0.85602843     0.02951310     1.84373534    -0.00102592     0.00062439     0.00026083
H        -0.96149450     0.02012333     1.89016886    -0.00100118    -0.00008864     0.00091548
H        -0.99748005     0.09313355    -0.58002914    -0.00005434     0.00030002    -0.00053304
     6
  Step:    26            Position(A)                                  Velocity(au)
C        -0.03132610     0.03158512    -0.04389181     0.00000977     0.00010959    -0.00077423
N        -0.04675197    -0.08147244     1.35789691     0.00014080    -0.00011313     0.00065064
H         0.92394593    -0.06162315    -0.61207455    -0.00026048    -0.00063379    -0.00040140
H         0.85022369     0.03318944     1.84518332    -0.00103126     0.00068457     0.00026151
H        -0.96651456     0.01946463     1.89497190    -0.00078491    -0.00014421     0.00079444
H        -0.99761756     0.09499235    -0.58283880     0.00000357     0.00035968    -0.00047033
     6
  Step:    27            Position(A)                                  Velocity(au)
C        -0.03127205     0.03219350    -0.04832084     0.00000932     0.00010687    -0.00079954
N        -0.04600694    -0.08211066     1.36161541     0.00012348    -0.00011394     0.00067064
H         0.92231844    -0.06522321    -0.61409914    -0.00031456    -0.00064604    -0.00032298
H         0.84446071     0.03719192     1.84666872    -0.00100809     0.00073893     0.00027318
H        -0.97029890     0.01850576     1.89908010    -0.00056153    -0.00019525     0.00066732
H        -0.99743997     0.09716814    -0.58530483     0.00005723     0.00041227    -0.00040957
     6
  Step:    28            Position(A)                                  Velocity(au)
C        -0.03122143     0.03278590    -0.05287555     0.00000854     0.00010359    -0.00081666
N        -0.04536449    -0.08275268     1.36543228     0.00010422    -0.00011419     0.00068369
H         0.92041153    -0.06888210    -0.61570364    -0.00035848    -0.00065331    -0.00025147
H         0.83889671     0.04149210     1.84825278    -0.00095850     0.00078881     0.00029541
H        -0.97282401     0.01727079     1.90246994    -0.00033822    -0.00024186     0.00053873
H        -0.99697457     0.09962467    -0.58744082     0.00010519     0.00045885    -0.00035217
     6
  Step:    29            Position(A)                                  Velocity(au)
C        -0.03117593     0.03335922    -0.05751058     0.00000749     0.00009987    -0.00082630
N        -0.04483418    -0.08339568     1.36930889     0.00008369    -0.00011405     0.00069036
H         0.91828447    -0.07257487    -0.61692888    -0.00039163    -0.00065694    -0.00018796
H         0.83367489     0.04606828     1.84999297    -0.00088576     0.00083541     0.00032727
H        -0.97410488     0.01578414     1.90514238    -0.00012119    -0.00028414     0.00041270
H        -0.99625627     0.10233150    -0.58926780     0.00014641     0.00050044    -0.00029929
     6
  Step:    30            Position(A)                                  Velocity(au)
C        -0.03113703     0.03391107    -0.06218489     0.00000620     0.00009583    -0.00082939
N        -0.04442167    -0.08403756     1.37321009     0.00006255    -0.00011364     0.00069141
H         0.91599938    -0.07628330    -0.61782129    -0.00041374    -0.00065811    -0.00013320
H         0.82891755     0.05090402     1.85193994    -0.00079399     0.00087972     0.00036736
H        -0.97418934     0.01406957     1.90711953     0.00008446    -0.00032230     0.00029255
H        -0.99532511     0.10526270    -0.59081275     0.00018018     0.00053796    -0.00025180
     6
  Step:    31            Position(A)                                  Velocity(au)
C        -0.03110603     0.03443973    -0.06686261     0.00000470     0.00009156    -0.00082686
N        -0.04412885    -0.08467701     1.37710513     0.00004145    -0.00011309     0.00068765
H         0.91361925    -0.07999561    -0.61843086    -0.00042486    -0.00065791    -0.00008757
H         0.82472196     0.05598781     1.85413528    -0.00068780     0.00092255     0.00041392
H        -0.97315254     0.01214996     1.90844113     0.00027459    -0.00035655     0.00018095
H        -0.99422458     0.10839740    -0.59210705     0.00020610     0.00057233    -0.00021027
     6
  Step:    32            Position(A)                                  Velocity(au)
C        -0.03108403     0.03494405    -0.07151328     0.00000302     0.00008717    -0.00081962
N        -0.04395403    -0.08531335     1.38096799     0.00002097    -0.00011249     0.00067988
H         0.91120625    -0.08370562    -0.61880918    -0.00042526    -0.00065721    -0.00005112
H         0.82115803     0.06131190     1.85660969    -0.00057198     0.00096442     0.00046493
H        -0.97109152     0.01004705     1.90916098     0.00044590    -0.00038713     0.00008000
H        -0.99299997     0.11171954    -0.59318500     0.00022399     0.00060437    -0.00017504
     6
  Step:    33            Position(A)                                  Velocity(au)
C        -0.03107196     0.03542339    -0.07611146     0.00000119     0.00008272    -0.00080841
N        -0.04389222    -0.08594637     1.38477711     0.00000165    -0.00011190     0.00066876
H         0.90882044    -0.08741175    -0.61900773    -0.00041538    -0.00065667    -0.00002369
H         0.81826757     0.06687072     1.85938176    -0.00045134     0.00100555     0.00051818
H        -0.96812085     0.00778146     1.90934392     0.00059569    -0.00041422    -0.00000865
H        -0.99169703     0.11521734    -0.59408224     0.00023387     0.00063475    -0.00014618
     6
  Step:    34            Position(A)                                  Velocity(au)
C        -0.03107058     0.03587747    -0.08063595    -0.00000075     0.00007824    -0.00079386
N        -0.04393537    -0.08657615     1.38851479    -0.00001599    -0.00011136     0.00065488
H         0.90651881    -0.09111589    -0.61907649    -0.00039580    -0.00065676    -0.00000489
H         0.81606478     0.07265923     1.86245724    -0.00033056     0.00104584     0.00057138
H        -0.96436930     0.00537275     1.90906336     0.00072172    -0.00043796    -0.00008371
H        -0.99036087     0.11888251    -0.59483462     0.00023592     0.00066399    -0.00012362
     6
  Step:    35            Position(A)                                  Velocity(au)
C        -0.03108047     0.03630626    -0.08506900    -0.00000279     0.00007379    -0.00077647
N        -0.04407269    -0.08720288     1.39216651    -0.00003152    -0.00011085     0.00063870
H         0.90435438    -0.09482234    -0.61906290    -0.00036727    -0.00065780     0.00000580
H         0.81453764     0.07867143     1.86582897    -0.00021403     0.00108495     0.00062228
H        -0.95997732     0.00283968     1.90839938     0.00082209    -0.00045849    -0.00014414
H        -0.98903506     0.12270954    -0.59547714     0.00023047     0.00069250    -0.00010713
     6
  Step:    36            Position(A)                                  Velocity(au)
C        -0.03110204     0.03670992    -0.08939572    -0.00000488     0.00006937    -0.00075668
N        -0.04429095    -0.08782672     1.39572034    -0.00004452    -0.00011037     0.00062062
H         0.90237542    -0.09853691    -0.61901102    -0.00033068    -0.00065997     0.00000905
H         0.81365017     0.08489915     1.86947744    -0.00010571     0.00112242     0.00066876
H        -0.95509491     0.00020031     1.90743722     0.00089525    -0.00047588    -0.00018915
H        -0.98776082     0.12669495    -0.59604321     0.00021799     0.00072055    -0.00009637
     6
  Step:    37            Position(A)                                  Velocity(au)
C        -0.03113551     0.03708869    -0.09360359    -0.00000700     0.00006500    -0.00073486
N        -0.04457484    -0.08844774     1.39916647    -0.00005467    -0.00010989     0.00060096
H         0.90062458    -0.10226615    -0.61896087    -0.00028709    -0.00066336     0.00000559
H         0.81334533     0.09133122     1.87337199    -0.00000901     0.00115769     0.00070902
H        -0.94987975    -0.00252784     1.90626594     0.00094009    -0.00049027    -0.00021820
H        -0.98657629     0.13083666    -0.59656413     0.00019911     0.00074837    -0.00009092
     6
  Step:    38            Position(A)                                  Velocity(au)
C        -0.03118093     0.03744292    -0.09768222    -0.00000910     0.00006070    -0.00071139
N        -0.04490742    -0.08906583     1.40249692    -0.00006173    -0.00010937     0.00058004
H         0.89913807    -0.10601715    -0.61894794    -0.00023771    -0.00066803    -0.00000371
H         0.81354855     0.09795364     1.87747260     0.00007331     0.00119029     0.00074159
H        -0.94449418    -0.00532809     1.90497673     0.00095606    -0.00050180    -0.00023107
H        -0.98551558     0.13513378    -0.59706842     0.00017458     0.00077615    -0.00009026
     6
  Step:    39            Position(A)                                  Velocity(au)
C        -0.03123812     0.03777297    -0.10162330    -0.00001116     0.00005647    -0.00068665
N        -0.04527069    -0.08968074     1.40570541    -0.00006555    -0.00010881     0.00055816
H         0.89794479    -0.10979707    -0.61900274    -0.00018389    -0.00067400    -0.00001797
H         0.81417182     0.10474970     1.88173209     0.00013928     0.00121981     0.00076542
H        -0.93910189    -0.00818475     1.90366102     0.00094327    -0.00051066    -0.00022791
H        -0.98460821     0.13958634    -0.59758160     0.00014527     0.00080403    -0.00009382
     6
  Step:    40            Position(A)                                  Velocity(au)
C        -0.03130670     0.03807929    -0.10542059    -0.00001314     0.00005232    -0.00066100
N        -0.04564617    -0.09029208     1.40878726    -0.00006612    -0.00010817     0.00053561
H         0.89706567    -0.11361294    -0.61915042    -0.00012707    -0.00068123    -0.00003621
H         0.81511818     0.11170061     1.88609871     0.00018766     0.00124599     0.00077992
H        -0.93386382    -0.01108313     1.90240829     0.00090254    -0.00051716    -0.00020922
H        -0.98387838     0.14419497    -0.59812574     0.00011217     0.00083217    -0.00010100
     6
  Step:    41            Position(A)                                  Velocity(au)
C        -0.03138609     0.03836234    -0.10906979    -0.00001499     0.00004825    -0.00063478
N        -0.04601551    -0.09089933     1.41173931    -0.00006349    -0.00010744     0.00051263
H         0.89651327    -0.11747148    -0.61941072    -0.00006874    -0.00068967    -0.00005750
H         0.81628593     0.11878647     1.89051839     0.00021799     0.00126872     0.00078490
H        -0.92893428    -0.01401081     1.90130401     0.00083546    -0.00052169    -0.00017594
H        -0.98334458     0.14896118    -0.59871946     0.00007629     0.00086072    -0.00011118
     6
  Step:    42            Position(A)                                  Velocity(au)
C        -0.03147554     0.03862258    -0.11256856    -0.00001671     0.00004426    -0.00060832
N        -0.04636114    -0.09150189     1.41455983    -0.00005787    -0.00010660     0.00048950
H         0.89629165    -0.12137900    -0.61979790    -0.00001037    -0.00069924    -0.00008088
H         0.81757284     0.12598718     1.89493714     0.00023045     0.00128805     0.00078052
H        -0.92445606    -0.01695762     1.90042708     0.00074444    -0.00052468    -0.00012943
H        -0.98301926     0.15388715    -0.59937768     0.00003873     0.00088979    -0.00012369
     6
  Step:    43            Position(A)                                  Velocity(au)
C        -0.03157410     0.03886052    -0.11591629    -0.00001824     0.00004036    -0.00058191
N        -0.04666682    -0.09209911     1.41724850    -0.00004953    -0.00010565     0.00046643
H         0.89639655    -0.12534129    -0.62032101     0.00004660    -0.00070985    -0.00010546
H         0.81887959     0.13328322     1.89930296     0.00022581     0.00130415     0.00076726
H        -0.92055576    -0.01991595     1.89984728     0.00063267    -0.00052661    -0.00007147
H        -0.98290864     0.15897560    -0.60011160     0.00000057     0.00091950    -0.00013790
     6
  Step:    44            Position(A)                                  Velocity(au)
C        -0.03168073     0.03907661    -0.11911394    -0.00001958     0.00003655    -0.00055579
N        -0.04691823    -0.09269027     1.41980626    -0.00003883    -0.00010458     0.00044362
H         0.89681580    -0.12936348    -0.62098410     0.00010083    -0.00072136    -0.00013039
H         0.82011272     0.14065642     1.90356731     0.00020526     0.00131728     0.00074580
H        -0.91733973    -0.02288099     1.89962315     0.00050399    -0.00052799    -0.00000420
H        -0.98301280     0.16422972    -0.60092881    -0.00003712     0.00094988    -0.00015317
     6