    14
  Step:     0            Position(A)                                  Velocity(au)
C        -6.00665730    -0.61304531    -0.03784662     0.00009601    -0.00003269     0.00009544
C        -4.66036046    -0.80711394     0.10258807    -0.00008850     0.00006779     0.00000799
H        -6.46042260     0.33640053    -0.38864233     0.00050857    -0.00082818     0.00004969
H        -6.61549397    -1.49507371    -0.14217080     0.00011841    -0.00052880     0.00060433
H        -4.34361675    -1.85988571     0.25079801     0.00049056    -0.00082385    -0.00026322
C        -3.89034836     0.37451270     0.00734105    -0.00033815     0.00008975    -0.00016753
C        -2.50885323     0.41544592     0.08106341    -0.00007068     0.00005662    -0.00003628
H        -4.45644338     1.31387487    -0.16979375    -0.00012120     0.00103458    -0.00077214
H        -1.90341298    -0.35620495     0.45316768     0.00112404     0.00068787    -0.00007158
C        -1.82374132     1.67852737    -0.10581179    -0.00034940     0.00008931    -0.00011567
H        -2.34620406     2.47361891    -0.60344321    -0.00046552    -0.00138170    -0.00034114
N        -0.60382450     1.85476287     0.28979023     0.00038174    -0.00017512     0.00014232
H        -0.19028882     2.79614891     0.03619894     0.00059394     0.00131187     0.00076269
H        -0.17267744     1.16564419     0.98659572     0.00139210    -0.00026484     0.00062811
    14
  Step:     1            Position(A)                                  Velocity(au)
C        -6.00582908    -0.61342680    -0.03694637     0.00005491    -0.00004085     0.00006991
C        -4.66128004    -0.80634951     0.10270449    -0.00007827     0.00006944     0.00001338
H        -6.45439797     0.32688333    -0.38738149     0.00057719    -0.00088352     0.00017086
H        -6.61504620    -1.50110194    -0.13511637    -0.00002859    -0.00055819     0.00068627
H        -4.33754706    -1.86784645     0.24787809     0.00060807    -0.00060139    -0.00027241
C        -3.89438043     0.37541507     0.00547338    -0.00039716     0.00007698    -0.00017416
C        -2.50921701     0.41644576     0.08065934     0.00000380     0.00012493    -0.00003709
H        -4.45727817     1.32460479    -0.17805569    -0.00002336     0.00090358    -0.00073253
H        -1.89048632    -0.35046677     0.45304369     0.00122166     0.00037177     0.00004357
C        -1.82804436     1.67919835    -0.10718431    -0.00042934     0.00003151    -0.00013164
H        -2.35142260     2.45916150    -0.60741804    -0.00050058    -0.00122587    -0.00040113
N        -0.59919735     1.85296272     0.29150370     0.00046100    -0.00015224     0.00016929
H        -0.18388202     2.80836752     0.04565962     0.00055800     0.00088375     0.00097189
H        -0.15805429     1.16471166     0.99160003     0.00126337     0.00010336     0.00027437
    14
  Step:     2            Position(A)                                  Velocity(au)
C        -6.00545607    -0.61393905    -0.03631721     0.00001310    -0.00005710     0.00004618
C        -4.66207285    -0.80559471     0.10288072    -0.00006553     0.00006680     0.00001873
H        -6.44779540     0.31707179    -0.38490439     0.00061148    -0.00087719     0.00026968
H        -6.61611935    -1.50728528    -0.12715739    -0.00015817    -0.00055579     0.00076922
H        -4.33031401    -1.87304224     0.24483842     0.00070463    -0.00032660    -0.00028372
C        -3.89903704     0.37619686     0.00353103    -0.00045216     0.00006714    -0.00018114
C        -2.50877016     0.41817901     0.08025200     0.00007812     0.00018957    -0.00003647
H        -4.45695452     1.33364249    -0.18581925     0.00008610     0.00073165    -0.00068180
H        -1.87668685    -0.34807183     0.45412081     0.00127541     0.00008893     0.00014324
C        -1.83313404     1.67921676    -0.10869170    -0.00049236    -0.00002922    -0.00014030
H        -2.35715524     2.44680072    -0.61221873    -0.00055676    -0.00100537    -0.00048864
N        -0.59373930     1.85143222     0.29349382     0.00053161    -0.00012637     0.00019208
H        -0.17808153     2.81548260     0.05746090     0.00049137     0.00039897     0.00118427
H        -0.14503889     1.16790538     0.99259819     0.00110742     0.00047507    -0.00009007
    14
  Step:     3            Position(A)                                  Velocity(au)
C        -6.00554255    -0.61467606    -0.03593620    -0.00002884    -0.00008211     0.00002478
C        -4.66271357    -0.80488803     0.10311429    -0.00005064     0.00006149     0.00002368
H        -6.44102063     0.30769310    -0.38148180     0.00060723    -0.00080205     0.00034232
H        -6.61850636    -1.51326086    -0.11828823    -0.00026831    -0.00052042     0.00085194
H        -4.32213188    -1.87499149     0.24167108     0.00078324    -0.00001659    -0.00029441
C        -3.90427238     0.37688378     0.00151063    -0.00050292     0.00005902    -0.00018838
C        -2.50750793     0.42059307     0.07986146     0.00015331     0.00024868    -0.00003378
H        -4.45539456     1.34061096    -0.19297143     0.00019820     0.00053209    -0.00062176
H        -1.86258422    -0.34852119     0.45617724     0.00127226    -0.00014026     0.00021985
C        -1.83881570     1.67855914    -0.11025356    -0.00053750    -0.00009114    -0.00014196
H        -2.36360283     2.43716715    -0.61810796    -0.00062610    -0.00073772    -0.00059399
N        -0.58756737     1.85019823     0.29570585     0.00058995    -0.00009851     0.00020916
H        -0.17313237     2.81709577     0.07156778     0.00041022    -0.00010245     0.00138780
H        -0.13382726     1.17510482     0.98962957     0.00094319     0.00082149    -0.00043668
    14
  Step:     4            Position(A)                                  Velocity(au)
C        -6.00608709    -0.61573532    -0.03577519    -0.00007049    -0.00011578     0.00000607
C        -4.66318062    -0.80424950     0.10339868    -0.00003394     0.00005518     0.00002786
H        -6.43451111     0.29952544    -0.37741540     0.00056332    -0.00065689     0.00038738
H        -6.62198913    -1.51867040    -0.10851951    -0.00035894    -0.00045392     0.00093282
H        -4.31317903    -1.87340516     0.23839768     0.00084740     0.00031092    -0.00030192
C        -3.91003927     0.37748797    -0.00059025    -0.00054922     0.00005140    -0.00019579
C        -2.50541631     0.42361936     0.07951299     0.00022975     0.00030109    -0.00002870
H        -4.45261850     1.34528287    -0.19942149     0.00030416     0.00031874    -0.00055469
H        -1.84885374    -0.35114030     0.45893039     0.00120642    -0.00030438     0.00026991
C        -1.84489297     1.67722297    -0.11179732    -0.00056523    -0.00015211    -0.00013770
H        -2.37085245     2.43066159    -0.62521349    -0.00069652    -0.00044626    -0.00070298
N        -0.58083305     1.84927716     0.29806950     0.00063327    -0.00006959     0.00021918
H        -0.16910723     2.81324139     0.08782172     0.00033014    -0.00058077     0.00157183
H        -0.12440477     1.18587711     0.98304496     0.00079044     0.00111396    -0.00073678
    14
  Step:     5            Position(A)                                  Velocity(au)
C        -6.00708462    -0.61720889    -0.03580333    -0.00011159    -0.00015715    -0.00000982
C        -4.66345598    -0.80368076     0.10372389    -0.00001588     0.00004946     0.00003100
H        -6.42869702     0.29332241    -0.37300702     0.00048266    -0.00044845     0.00040661
H        -6.62635881    -1.52319130    -0.09788099    -0.00043164    -0.00036073     0.00101008
H        -4.30359330    -1.86818957     0.23506599     0.00090104     0.00063800    -0.00030402
C        -3.91628771     0.37800824    -0.00277266    -0.00059043     0.00004322    -0.00020320
C        -2.50248165     0.42718006     0.07923369     0.00030670     0.00034604    -0.00002115
H        -4.44874039     1.34758408    -0.20510641     0.00039569     0.00010559    -0.00048349
H        -1.83619152    -0.35518009     0.46208194     0.00107944    -0.00040052     0.00029331
C        -1.85118126     1.67523143    -0.11326593    -0.00057702    -0.00020956    -0.00012917
H        -2.37884045     2.42740430    -0.63348700    -0.00075385    -0.00015702    -0.00079903
N        -0.57371337     1.84867574     0.30050086     0.00065960    -0.00004054     0.00022101
H        -0.16590997     2.80439032     0.10595451     0.00026663    -0.00099537     0.00172693
H        -0.11653478     1.19947476     0.97351102     0.00066984     0.00132384    -0.00096149
    14
  Step:     6            Position(A)                                  Velocity(au)
C        -6.00852841    -0.61917320    -0.03599010    -0.00015203    -0.00020436    -0.00002310
C        -4.66352808    -0.80316754     0.10407696     0.00000268     0.00004558     0.00003286
H        -6.42395202     0.28971466    -0.36852007     0.00037258    -0.00019245     0.00040523
H        -6.63143200    -1.52656216    -0.08642213    -0.00048930    -0.00024730     0.00108204
H        -4.29346699    -1.85944770     0.23174671     0.00094859     0.00094667    -0.00029878
C        -3.92295611     0.37843354    -0.00503569    -0.00062496     0.00003382    -0.00021039
C        -2.49870667     0.43118967     0.07905034     0.00038187     0.00038267    -0.00001121
H        -4.44396200     1.34759295    -0.20999883     0.00046510    -0.00009351    -0.00041176
H        -1.82523889    -0.35990249     0.46534716     0.00089875    -0.00043246     0.00029206
C        -1.85751640     1.67263842    -0.11462311    -0.00057472    -0.00026046    -0.00011833
H        -2.38734429     2.42722657    -0.64269371    -0.00078468     0.00010524    -0.00086629
N        -0.56640304     1.84839023     0.30290454     0.00066757    -0.00001245     0.00021374
H        -0.16327414     2.79146567     0.12560156     0.00023527    -0.00130449     0.00184514
H        -0.10975071     1.21483875     0.96201056     0.00060169     0.00142432    -0.00108357
    14
  Step:     7            Position(A)                                  Velocity(au)
C        -6.01041048    -0.62167973    -0.03630859    -0.00019164    -0.00025482    -0.00003419
C        -4.66339726    -0.80268369     0.10444271     0.00002046     0.00004448     0.00003324
H        -6.42054619     0.28911216    -0.36414191     0.00024406     0.00008745     0.00039140
H        -6.63706326    -1.52860141    -0.07420920    -0.00053585    -0.00012143     0.00114742
H        -4.28284108    -1.84747931     0.22852965     0.00099494     0.00121913    -0.00028462
C        -3.92996001     0.37874810    -0.00737528    -0.00065050     0.00002294    -0.00021703
C        -2.49412760     0.43555165     0.07898845     0.00045176     0.00040984     0.00000098
H        -4.43856548     1.34553832    -0.21411440     0.00050549    -0.00026509    -0.00034355
H        -1.81652967    -0.36464093     0.46847140     0.00067556    -0.00040839     0.00026945
C        -1.86375437     1.66953330    -0.11585468    -0.00055997    -0.00030159    -0.00010711
H        -2.39600676     2.42970653    -0.65243882    -0.00077890     0.00032052    -0.00089253
N        -0.55910896     1.84840333     0.30517684     0.00065640     0.00001325     0.00019688
H        -0.16076300     2.77585206     0.14632057     0.00025084    -0.00146767     0.00192078
H        -0.10337159     1.23063444     0.94980579     0.00060283     0.00139456    -0.00108212
    14
  Step:     8            Position(A)                                  Velocity(au)
C        -6.01272083    -0.62474792    -0.03673813    -0.00023023    -0.00030545    -0.00004374
C        -4.66308049    -0.80219450     0.10480425     0.00003586     0.00004685     0.00003203
H        -6.41861285     0.29162789    -0.35995751     0.00011012     0.00036267     0.00037488
H        -6.64315477    -1.52921861    -0.06132023    -0.00057581     0.00000831     0.00120532
H        -4.27170081    -1.83277685     0.22552021     0.00104533     0.00143838    -0.00026018
C        -3.93718695     0.37893536    -0.00978355    -0.00066466     0.00001058    -0.00022278
C        -2.48882349     0.44015571     0.07907167     0.00051262     0.00042633     0.00001521
H        -4.43290347     1.34179363    -0.21751472     0.00051101    -0.00039647    -0.00028293
H        -1.81045978    -0.36883678     0.47124181     0.00042292    -0.00033888     0.00022962
C        -1.86976673     1.66604064    -0.11696630    -0.00053396    -0.00033002    -0.00009706
H        -2.40438426     2.43423862    -0.66221944    -0.00073134     0.00047606    -0.00087067
N        -0.55204303     1.84868011     0.30721159     0.00062619     0.00003480     0.00017064
H        -0.15778643     2.75935762     0.16762234     0.00032513    -0.00145203     0.00195166
H        -0.09656267     1.24534741     0.93833702     0.00068172     0.00122615    -0.00094928
    14
  Step:     9            Position(A)                                  Velocity(au)
C        -6.01544719    -0.62836202    -0.03726542    -0.00026757    -0.00035311    -0.00005238
C        -4.66261286    -0.80165882     0.10514336     0.00004731     0.00005322     0.00002910
H        -6.41813712     0.29704621    -0.35594077    -0.00001639     0.00060425     0.00036515
H        -6.64966014    -1.52841955    -0.04784056    -0.00061390     0.00013320     0.00125533
H        -4.25997249    -1.81601192     0.22283761     0.00110509     0.00158920    -0.00022438
C        -3.94450081     0.37897959    -0.01224907    -0.00066577    -0.00000316    -0.00022737
C        -2.48291310     0.44487840     0.07932112     0.00056124     0.00043112     0.00003122
H        -4.42738623     1.33686480    -0.22030401     0.00047730    -0.00047667    -0.00023339
H        -1.80727753    -0.37205466     0.47349479     0.00015434    -0.00023555     0.00017748
C        -1.87543583     1.66231356    -0.11797809    -0.00049759    -0.00034361    -0.00008927
H        -2.41200628     2.44012132    -0.67148642    -0.00064201     0.00056686    -0.00079913
N        -0.54540996     1.84916471     0.30890984     0.00057851     0.00005036     0.00013631
H        -0.15365024     2.74408606     0.18901681     0.00046305    -0.00124230     0.00194042
H        -0.08845770     1.25745879     0.92903846     0.00083300     0.00092977    -0.00069718
    14
  Step:    10            Position(A)                                  Velocity(au)
C        -6.01857449    -0.63247291    -0.03788400    -0.00030337    -0.00039505    -0.00006065
C        -4.66204552    -0.80103027     0.10544084     0.00005353     0.00006393     0.00002440
H        -6.41897140     0.30484712    -0.35196911    -0.00012498     0.00078770     0.00036962
H        -6.65658504    -1.52630451    -0.03385752    -0.00065473     0.00024499     0.00129749
H        -4.24752492    -1.79801007     0.22061155     0.00117893     0.00165981    -0.00017649
C        -3.95175193     0.37886614    -0.01475770    -0.00065306    -0.00001812    -0.00023060
C        -2.47654536     0.44958733     0.07975470     0.00059533     0.00042365     0.00004870
H        -4.42246170     1.33136547    -0.22262062     0.00040227    -0.00049797    -0.00019747
H        -1.80708333    -0.37398979     0.47512460    -0.00011692    -0.00011047     0.00011855
C        -1.88065247     1.65852346    -0.11891929    -0.00045155    -0.00034116    -0.00008434
H        -2.41842945     2.44663980    -0.67970202    -0.00051516     0.00059462    -0.00068098
N        -0.53938699     1.84978174     0.31019361     0.00051697     0.00005856     0.00009642
H        -0.14765639     2.73217991     0.21007266     0.00065812    -0.00085196     0.00189506
H        -0.07833924     1.26568800     0.92308477     0.00103428     0.00053841    -0.00036110
    14
  Step:    11            Position(A)                                  Velocity(au)
C        -6.02208409    -0.63700458    -0.03859228    -0.00033725    -0.00042924    -0.00006889
C        -4.66144177    -0.80026028     0.10567716     0.00005364     0.00007893     0.00001794
H        -6.42087131     0.31427873    -0.34785461    -0.00020888     0.00089636     0.00039250
H        -6.66398355    -1.52306000    -0.01945546    -0.00070234     0.00033647     0.00133229
H        -4.23418108    -1.77970042     0.21897647     0.00126991     0.00164424    -0.00011649
C        -3.95878779     0.37858308    -0.01729398    -0.00062671    -0.00003390    -0.00023243
C        -2.46988912     0.45414651     0.08038653     0.00061350     0.00040387     0.00006726
H        -4.41858578     1.32597075    -0.22462407     0.00028684    -0.00045761    -0.00017637
H        -1.80983548    -0.37447135     0.47608835    -0.00037822     0.00002394     0.00005872
C        -1.88531430     1.65484995    -0.11982325    -0.00039646    -0.00032236    -0.00008246
H        -2.42327638     2.45312976    -0.68638421    -0.00035793     0.00056605    -0.00052274
N        -0.53410021     1.85044575     0.31101924     0.00044718     0.00005927     0.00005451
H        -0.13925255     2.72544781     0.23047481     0.00088956    -0.00032944     0.00182756
H        -0.06583093     1.26923761     0.92113881     0.00124818     0.00010352     0.00000497
    14
  Step:    12            Position(A)                                  Velocity(au)
C        -6.02595253    -0.64186329    -0.03939102    -0.00036873    -0.00045451    -0.00007719
C        -4.66087201    -0.79930356     0.10583338     0.00004726     0.00009758     0.00000983
H        -6.42354115     0.32445673    -0.34338249    -0.00026544     0.00092290     0.00043457
H        -6.67195009    -1.51894368    -0.00471120    -0.00075982     0.00040215     0.00136057
H        -4.21974327    -1.76203913     0.21806312     0.00137807     0.00154457    -0.00004521
C        -3.96546239     0.37812445    -0.01984261    -0.00058766    -0.00004973    -0.00023295
C        -2.46312396     0.45842273     0.08122622     0.00061510     0.00037237     0.00008646
H        -4.41618650     1.32135428    -0.22647907     0.00013544    -0.00035940    -0.00016969
H        -1.81535772    -0.37346614     0.47640919    -0.00061764     0.00015487     0.00000413
C        -1.88932582     1.65147119    -0.12072336    -0.00033296    -0.00028773    -0.00008349
H        -2.42625987     2.45902321    -0.69113806    -0.00017897     0.00049110    -0.00033312
N        -0.52960404     1.85107829     0.31138606     0.00037603     0.00005400     0.00001447
H        -0.12819546     2.72497280     0.25005396     0.00112372     0.00024678     0.00175052
H        -0.05103296     1.26795270     0.92319342     0.00143044    -0.00031608     0.00034020
    14
  Step:    13            Position(A)                                  Velocity(au)
C        -6.03015067    -0.64694794    -0.04028086    -0.00039730    -0.00047063    -0.00008546
C        -4.66040788    -0.79812563     0.10589228     0.00003459     0.00011849     0.00000029
H        -6.42667842     0.33446886    -0.33834763    -0.00029557     0.00086860     0.00049377
H        -6.68060597    -1.51426227     0.01030972    -0.00082877     0.00043883     0.00138345
H        -4.20403312    -1.74590991     0.21798738     0.00149922     0.00137253     0.00003541
C        -3.97164396     0.37749523    -0.02239025    -0.00053749    -0.00006435    -0.00023242
C        -2.45643263     0.46229278     0.08227799     0.00060014     0.00033042     0.00010574
H        -4.41562281     1.31810815    -0.22833632    -0.00004379    -0.00021457    -0.00017523
H        -1.82334745    -0.37108321     0.47617870    -0.00082405     0.00026915    -0.00003890
C        -1.89259850     1.64855534    -0.12164971    -0.00026173    -0.00023857    -0.00008698
H        -2.42719159     2.46387350    -0.69367192     0.00001258     0.00038158    -0.00012197
N        -0.52587379     1.85162716     0.31133583     0.00031034     0.00004571    -0.00002022
H        -0.11466895     2.73084663     0.26877072     0.00132095     0.00078553     0.00167326
H        -0.03453722     1.26232267     0.92858126     0.00154127    -0.00066845     0.00059208
    14
  Step:    14            Position(A)                                  Velocity(au)
C        -6.03464432    -0.65215915    -0.04126059    -0.00042258    -0.00047808    -0.00009348
C        -4.66011526    -0.79671142     0.10583977     0.00001643     0.00013957    -0.00001035
H        -6.43000729     0.34345909    -0.33258040    -0.00030271     0.00074146     0.00056607
H        -6.69008099    -1.50934344     0.02555440    -0.00090894     0.00044605     0.00140207
H        -4.18694494    -1.73201240     0.21883772     0.00162428     0.00114917     0.00012233
C        -3.97722097     0.37671662    -0.02492725    -0.00047824    -0.00007612    -0.00023123
C        -2.44999472     0.46565139     0.08353956     0.00056918     0.00028003     0.00012448
H        -4.41714459     1.31666024    -0.23031266    -0.00023956    -0.00004109    -0.00018921
H        -1.83338550    -0.36757806     0.47555807    -0.00098743     0.00035342    -0.00006412
C        -1.89505170     1.64625202    -0.12262624    -0.00018353    -0.00017695    -0.00009226
H        -2.42598472     2.46737098    -0.69380648     0.00020752     0.00025044     0.00010029
N        -0.52281480     1.85207838     0.31094366     0.00025542     0.00003785    -0.00004719
H        -0.09929708     2.74215772     0.28665966     0.00144576     0.00120642     0.00159949
H        -0.01731481     1.25332902     0.93614634     0.00155459    -0.00091927     0.00072755
    14
  Step:    15            Position(A)                                  Velocity(au)
C        -6.03939532    -0.65740688    -0.04232591    -0.00044428    -0.00047799    -0.00010094
C        -4.66004833    -0.79507231     0.10566582    -0.00000591     0.00015827    -0.00002169
H        -6.43330078     0.35068979    -0.32596369    -0.00029185     0.00055401     0.00064640
H        -6.70049071    -1.50450400     0.04098261    -0.00099790     0.00042629     0.00141743
H        -4.16849899    -1.72076968     0.22066357     0.00173991     0.00090207     0.00021163
C        -3.98210628     0.37582998    -0.02744877    -0.00041220    -0.00008315    -0.00022983
C        -2.44398074     0.46841897     0.08500120     0.00052325     0.00022382     0.00014195
H        -4.42086358     1.31720925    -0.23247573    -0.00043864     0.00013866    -0.00020681
H        -1.84494934    -0.36335141     0.47477593    -0.00109921     0.00039485    -0.00006562
C        -1.89661354     1.64468416    -0.12366809    -0.00009918    -0.00010564    -0.00009842
H        -2.42265178     2.46935234    -0.69147783     0.00039689     0.00011135     0.00032305
N        -0.52028600     1.85245519     0.31030341     0.00021420     0.00003329    -0.00006540
H        -0.08304013     2.75723928     0.30376263     0.00147537     0.00145807     0.00152772
H        -0.00052767     1.24221178     0.94449790     0.00146178    -0.00105540     0.00073632
    14
  Step:    16            Position(A)                                  Velocity(au)
C        -6.04436385    -0.66261613    -0.04346885    -0.00046238    -0.00047191    -0.00010749
C        -4.66024454    -0.79324904     0.10536524    -0.00003081     0.00017201    -0.00003328
H        -6.43639211     0.35557902    -0.31843907    -0.00026866     0.00032129     0.00072940
H        -6.71191186    -1.50001759     0.05656338    -0.00109101     0.00038478     0.00143012
H        -4.14888103    -1.71227798     0.22346759     0.00183046     0.00066069     0.00029896
C        -3.98623853     0.37489764    -0.02995526    -0.00034170    -0.00008365    -0.00022870
C        -2.43854754     0.47054788     0.08664500     0.00046382     0.00016487     0.00015742
H        -4.42674067     1.31969365    -0.23483692    -0.00062755     0.00030144    -0.00022299
H        -1.85743274    -0.35893986     0.47412249    -0.00115323     0.00038240    -0.00003850
C        -1.89722137     1.64394097    -0.12477940    -0.00000952    -0.00002798    -0.00010437
H        -2.41730207     2.46980691    -0.68673919     0.00057193    -0.00002146     0.00053555
N        -0.51812870     1.85280656     0.30951287     0.00018714     0.00003367    -0.00007504
H        -0.06702054     2.77405578     0.32008156     0.00140310     0.00152396     0.00145363
H         0.01466435     1.23024011     0.95225468     0.00126958    -0.00108170     0.00062706
    14
  Step:    17            Position(A)                                  Velocity(au)
C        -6.04951081    -0.66773078    -0.04467741    -0.00047703    -0.00046167    -0.00011274
C        -4.66072236    -0.79130925     0.10493772    -0.00005657     0.00017868    -0.00004471
H        -6.43917814     0.35771863    -0.31000677    -0.00023896     0.00005962     0.00080983
H        -6.72435875    -1.49608610     0.07226923    -0.00118178     0.00032898     0.00144013
H        -4.12845408    -1.70631590     0.22720397     0.00188070     0.00045112     0.00038011
C        -3.98958155     0.37399987    -0.03245197    -0.00026895    -0.00007631    -0.00022820
C        -2.43383382     0.47202578     0.08844503     0.00039275     0.00010638     0.00017021
H        -4.43459247     1.32380378    -0.23735401    -0.00079419     0.00042691    -0.00023338
H        -1.87017855    -0.35498567     0.47393371    -0.00114695     0.00030887     0.00002022
C        -1.89682182     1.64407210    -0.12595140     0.00008460     0.00005223    -0.00010887
H        -2.41013969     2.46888278    -0.67976167     0.00072406    -0.00013327     0.00072707
N        -0.51619191     1.85319178     0.30866182     0.00017276     0.00003936    -0.00007717
H        -0.05234454     2.79057891     0.33556365     0.00123642     0.00141675     0.00137268
H         0.02724679     1.21854746     0.95821614     0.00099488    -0.00101463     0.00042029
    14
  Step:    18            Position(A)                                  Velocity(au)
C        -6.05479970    -0.67271600    -0.04593531    -0.00048850    -0.00044926    -0.00011631
C        -4.66148204    -0.78933998     0.10438720    -0.00008165     0.00017700    -0.00005563
H        -6.44161973     0.35688343    -0.30072259    -0.00020852    -0.00021414     0.00088284
H        -6.73776556    -1.49282055     0.08806895    -0.00126249     0.00026746     0.00144678
H        -4.10773712    -1.70240893     0.23178333     0.00187854     0.00029202     0.00045156
C        -3.99212224     0.37322827    -0.03494762    -0.00019591    -0.00006047    -0.00022858
C        -2.42995537     0.47287521     0.09036863     0.00031235     0.00005132     0.00017983
H        -4.44411502     1.32903323    -0.23994256    -0.00092911     0.00050062    -0.00023489
H        -1.88252440    -0.35218270     0.47456490    -0.00108257     0.00017327     0.00011055
C        -1.89537052     1.64508367    -0.12716122     0.00018239     0.00013096    -0.00011063
H        -2.40146179     2.46689140    -0.67083324     0.00084499    -0.00020921     0.00088719
N        -0.51434914     1.85366764     0.30782468     0.00016845     0.00004979    -0.00007336
H        -0.03997155     2.80504987     0.35011146     0.00099188     0.00116700     0.00128172
H         0.03642922     1.20804306     0.96144940     0.00065945    -0.00087615     0.00014164
    14
  Step:    19            Position(A)                                  Velocity(au)
C        -6.06019760    -0.67755914    -0.04722181    -0.00049711    -0.00043668    -0.00011777
C        -4.66250863    -0.78743706     0.10372077    -0.00010488     0.00016667    -0.00006582
H        -6.44373999     0.35303390    -0.29069299    -0.00018295    -0.00048303     0.00094406
H        -6.75197822    -1.49023498     0.10392022    -0.00132525     0.00020871     0.00144880
H        -4.08735736    -1.69992740     0.23708267     0.00181694     0.00019273     0.00051081
C        -3.99386741     0.37267706    -0.03745256    -0.00012425    -0.00003632    -0.00022989
C        -2.42700056     0.47314840     0.09237910     0.00022532     0.00000197     0.00018608
H        -4.45491862     1.33475571    -0.24249268    -0.00102626     0.00051541    -0.00022601
H        -1.89386181    -0.35119511     0.47635215    -0.00096802    -0.00001708     0.00022856
C        -1.89283166     1.64693715    -0.12837156     0.00028308     0.00020421    -0.00010836
H        -2.39165396     2.46430587    -0.66035274     0.00092704    -0.00023503     0.00100637
N        -0.51250667     1.85428108     0.30705691     0.00017111     0.00006395    -0.00006540
H        -0.03064531     2.81610936     0.36360366     0.00069015     0.00081278     0.00117953
H         0.04167359     1.19937998     0.96131469     0.00028636    -0.00068974    -0.00018246
    14
  Step:    20            Position(A)                                  Velocity(au)
C        -6.06567497    -0.68226918    -0.04851171    -0.00050313    -0.00042583    -0.00011674
C        -4.66377651    -0.78569380     0.10294725    -0.00012547     0.00014835    -0.00007519
H        -6.44562221     0.34631614    -0.28006947    -0.00016764    -0.00073020     0.00098965
H        -6.76675798    -1.48825454     0.11976413    -0.00136299     0.00015995     0.00144456
H        -4.06798807    -1.69819248     0.24295824     0.00169435     0.00015383     0.00055653
C        -3.99484047     0.37243377    -0.03997692    -0.00005537    -0.00000483    -0.00023205
C        -2.42502599     0.47291822     0.09443957     0.00013471    -0.00004028     0.00018915
H        -4.46656641     1.34030880    -0.24488703    -0.00108287     0.00047124    -0.00020674
H        -1.90370173    -0.35255646     0.47956509    -0.00081680    -0.00024585     0.00036613
C        -1.88917751     1.64955123    -0.12953174     0.00038592     0.00026835    -0.00010097
H        -2.38118111     2.46174971    -0.64881691     0.00096400    -0.00019862     0.00107702
N        -0.51060577     1.85506666     0.30639400     0.00017756     0.00008071    -0.00005511