     6
  Step:   300            Position(A)                                  Velocity(au)
C        -0.06188637     0.00097778     0.02252798     0.00008969    -0.00014544     0.00010553
N        -0.01606887    -0.04661685     1.29572607    -0.00031237     0.00003980    -0.00015959
H         0.22929846     0.95803431    -0.42539190    -0.00080850     0.00056053     0.00085376
H        -0.03272533    -0.94663117     1.77853163     0.00075855     0.00043597     0.00048431
H        -0.08985315     0.83315728     1.82630469     0.00257496     0.00014495     0.00038642
H        -0.35892282    -0.87819623    -0.56170488     0.00074702     0.00003858    -0.00076419
