     6
  Step:     0            Position(A)                                  Velocity(au)
C        -0.03214711     0.01530476     0.03941021    -0.00008695    -0.00006537     0.00029162
N        -0.04459545    -0.03997505     1.27856002    -0.00001533     0.00000426    -0.00014350
H         0.89966297    -0.03502705    -0.50429158     0.00045277     0.00040579    -0.00021676
H         0.79852290    -0.18337341     1.78153560     0.00047128    -0.00014500     0.00006616
H        -0.93296903    -0.12094667     1.91080078     0.00039639     0.00036216    -0.00092345
H        -0.97537369     0.04270326    -0.53293734    -0.00007130     0.00009685    -0.00040686
     6
  Step:     1            Position(A)                                  Velocity(au)
C        -0.03264389     0.01495955     0.04075044    -0.00009439    -0.00006092     0.00019691
N        -0.04474606    -0.03995409     1.27802962    -0.00003878     0.00000333    -0.00004947
H         0.90243765    -0.03282162    -0.50580358     0.00055558     0.00040178    -0.00033233
H         0.80159533    -0.18428705     1.78230357     0.00064399    -0.00018803     0.00020943
H        -0.93031306    -0.11894988     1.90538153     0.00056930     0.00036767    -0.00105358
H        -0.97586408     0.04323722    -0.53537413    -0.00010525     0.00009832    -0.00048252
     6
  Step:     2            Position(A)                                  Velocity(au)
C        -0.03317913     0.01463863     0.04156320    -0.00010109    -0.00005660     0.00009943
N        -0.04501946    -0.03993865     1.27801910    -0.00006003     0.00000226     0.00004615
H         0.90573767    -0.03063400    -0.50792519     0.00064513     0.00039986    -0.00043989
H         0.80556427    -0.18542928     1.78382553     0.00079821    -0.00022855     0.00034103
H        -0.92674438    -0.11692662     1.89928104     0.00072914     0.00037222    -0.00117263
H        -0.97652443     0.04377829    -0.53821314    -0.00013360     0.00009960    -0.00055471
     6
  Step:     3            Position(A)                                  Velocity(au)
C        -0.03374845     0.01434117     0.04183679    -0.00010689    -0.00005241     0.00000019
N        -0.04540198    -0.03992945     1.27853388    -0.00007850     0.00000106     0.00014230
H         0.90948641    -0.02845277    -0.51060989     0.00071990     0.00039976    -0.00053852
H         0.81031664    -0.18678424     1.78602964     0.00092985    -0.00026579     0.00045840
H        -0.92234646    -0.11488298     1.89256928     0.00087118     0.00037526    -0.00127656
H        -0.97732375     0.04432542    -0.54143491    -0.00015623     0.00010062    -0.00062309
     6
  Step:     4            Position(A)                                  Velocity(au)
C        -0.03434659     0.01406623     0.04156527    -0.00011160    -0.00004837    -0.00009952
N        -0.04587687    -0.03992708     1.27957324    -0.00009359    -0.00000022     0.00023756
H         0.91360016    -0.02626796    -0.51380671     0.00077841     0.00040109    -0.00062714
H         0.81571973    -0.18833219     1.78883205     0.00103520    -0.00029896     0.00055930
H        -0.91722962    -0.11282811     1.88533887     0.00098976     0.00037612    -0.00136053
H        -0.97823070     0.04487723    -0.54501835    -0.00017302     0.00010131    -0.00068706
     6
  Step:     5            Position(A)                                  Velocity(au)
C        -0.03496738     0.01381282     0.04074984    -0.00011502    -0.00004449    -0.00019806
N        -0.04642415    -0.03993189     1.28112856    -0.00010465    -0.00000154     0.00033013
H         0.91798841    -0.02407190    -0.51745967     0.00081927     0.00040332    -0.00070455
H         0.82162337    -0.19004953     1.79213852     0.00111102    -0.00032725     0.00064175
H        -0.91153597    -0.11077492     1.87770916     0.00107839     0.00037400    -0.00141909
H        -0.97921358     0.04543192    -0.54893918    -0.00018388     0.00010155    -0.00074570
     6
  Step:     6            Position(A)                                  Velocity(au)
C        -0.03560365     0.01357996     0.03940055    -0.00011696    -0.00004077    -0.00029348
N        -0.04702062    -0.03994392     1.28318138    -0.00011110    -0.00000283     0.00041787
H         0.92255428    -0.02185995    -0.52150701     0.00084133     0.00040579    -0.00076949
H         0.82786248    -0.19190882     1.79584601     0.00115477    -0.00034992     0.00070417
H        -0.90544346    -0.10874055     1.86982915     0.00113016     0.00036810    -0.00144657
H        -0.98024035     0.04598714    -0.55316836    -0.00018872     0.00010124    -0.00079786
     6
  Step:     7            Position(A)                                  Velocity(au)
C        -0.03624734     0.01336662     0.03753807    -0.00011727    -0.00003722    -0.00038351
N        -0.04763995    -0.03996286     1.28570154    -0.00011241    -0.00000402     0.00049833
H         0.92719562    -0.01963103    -0.52588073     0.00084378     0.00040782    -0.00082071
H         0.83426074    -0.19387897     1.79984475     0.00116485    -0.00036632     0.00074551
H        -0.89916791    -0.10674651     1.86187840     0.00113841     0.00035769    -0.00143771
H        -0.98127884     0.04653991    -0.55767066    -0.00018757     0.00010027    -0.00084222
     6
  Step:     8            Position(A)                                  Velocity(au)
C        -0.03688959     0.01317177     0.03519513    -0.00011584    -0.00003386    -0.00046575
N        -0.04825325    -0.03998799     1.28864588    -0.00010824    -0.00000503     0.00056904
H         0.93180688    -0.01738794    -0.53050660     0.00082640     0.00040870    -0.00085714
H         0.84063575    -0.19592578     1.80402096     0.00114093    -0.00037597     0.00076540
H        -0.89296005    -0.10481821     1.85406372     0.00109781     0.00034221    -0.00138852
H        -0.98229719     0.04708664    -0.56240381    -0.00018061     0.00009853    -0.00087746
     6
  Step:     9            Position(A)                                  Velocity(au)
C        -0.03752104     0.01299431     0.03241713    -0.00011265    -0.00003070    -0.00053788
N        -0.04883004    -0.04001818     1.29195813    -0.00009849    -0.00000580     0.00062769
H         0.93628195    -0.01513732    -0.53530505     0.00078971     0.00040781    -0.00087811
H         0.84680537    -0.19801284     1.80826038     0.00108417    -0.00037866     0.00076433
H        -0.88709744    -0.10298389     1.84661154     0.00100536     0.00032139    -0.00129709
H        -0.98326470     0.04762324    -0.56731842    -0.00016821     0.00009597    -0.00090245
     6
  Step:    10            Position(A)                                  Velocity(au)
C        -0.03813225     0.01283308     0.02926160    -0.00010775    -0.00002777    -0.00059793
N        -0.04933975    -0.04005198     1.29557016    -0.00008341    -0.00000627     0.00067253
H         0.94051844    -0.01288922    -0.54019331     0.00073518     0.00040468    -0.00088357
H         0.85259556    -0.20010287     1.81245249     0.00099737    -0.00037450     0.00074372
H        -0.88186966    -0.10127284     1.83975513     0.00086154     0.00029538    -0.00116445
H        -0.98415277     0.04814527    -0.57235903    -0.00015095     0.00009257    -0.00091646
     6
  Step:    11            Position(A)                                  Velocity(au)
C        -0.03871418     0.01268682     0.02579627    -0.00010133    -0.00002509    -0.00064457
N        -0.04975366    -0.04008765     1.29940495    -0.00006361    -0.00000642     0.00070257
H         0.94442248    -0.01065630    -0.54508867     0.00066519     0.00039907    -0.00087423
H         0.85784912    -0.20215958     1.81649552     0.00088496    -0.00036400     0.00070600
H        -0.87755772    -0.09971315     1.83371778     0.00067092     0.00026477    -0.00099490
H        -0.98493615     0.04864824    -0.57746625    -0.00012964     0.00008838    -0.00091935
     6
  Step:    12            Position(A)                                  Velocity(au)
C        -0.03925880     0.01255415     0.02209553    -0.00009366    -0.00002268    -0.00067732
N        -0.05004696    -0.04012336     1.30338103    -0.00004005    -0.00000624     0.00071788
H         0.94791377    -0.00845248    -0.54991262     0.00058298     0.00039105    -0.00085168
H         0.86243416    -0.20414972     1.82030155     0.00075270    -0.00034811     0.00065447
H        -0.87441059    -0.09832917     1.82869421     0.00044218     0.00023060    -0.00079597
H        -0.98559402     0.04912790    -0.58258006    -0.00010524     0.00008353    -0.00091179
     6
  Step:    13            Position(A)                                  Velocity(au)
C        -0.03975964     0.01243360     0.01823572    -0.00008510    -0.00002058    -0.00069678
N        -0.05020072    -0.04015731     1.30741820    -0.00001395    -0.00000576     0.00071968
H         0.95092987    -0.00629127    -0.55459544     0.00049229     0.00038101    -0.00081836
H         0.86625100    -0.20604529     1.82380101     0.00060716    -0.00032810     0.00059309
H        -0.87262193    -0.09713915     1.82483288     0.00018725     0.00019421    -0.00057759
H        -0.98611084     0.04958060    -0.58764399    -0.00007880     0.00007817    -0.00089527
     6
  Step:    14            Position(A)                                  Velocity(au)
C        -0.04021219     0.01232358     0.01428945    -0.00007606    -0.00001880    -0.00070454
N        -0.05020323    -0.04018787     1.31144366     0.00001338    -0.00000502     0.00071021
H         0.95342895    -0.00418395    -0.55908073     0.00039701     0.00036968    -0.00077733
H         0.86923627    -0.20782541     1.82694596     0.00045501    -0.00030551     0.00052607
H        -0.87231279    -0.09615340     1.82222346    -0.00008033     0.00015714    -0.00035072
H        -0.98647678     0.05000364    -0.59260985    -0.00005132     0.00007253    -0.00087207
     6
  Step:    15            Position(A)                                  Velocity(au)
C        -0.04061421     0.01222236     0.01032007    -0.00006694    -0.00001736    -0.00070300
N        -0.05005034    -0.04021371     1.31539753     0.00004073    -0.00000408     0.00069242
H         0.95539038    -0.00213780    -0.56332889     0.00030065     0.00035799    -0.00073196
H         0.87136309    -0.20947773     1.82971152     0.00030215    -0.00028197     0.00045749
H        -0.87352444    -0.09537368     1.82089247    -0.00034741     0.00012081    -0.00012577
H        -0.98668745     0.05039550    -0.59744183    -0.00002365     0.00006684    -0.00084494
     6
  Step:    16            Position(A)                                  Velocity(au)
C        -0.04096560     0.01212815     0.00637762    -0.00005808    -0.00001628    -0.00069484
N        -0.04974487    -0.04023381     1.31923640     0.00006708    -0.00000300     0.00066940
H         0.95681256    -0.00015502    -0.56731850     0.00020589     0.00034688    -0.00068537
H         0.87263684    -0.21099876     1.83209476     0.00015318    -0.00025895     0.00039079
H        -0.87622269    -0.09479372     1.82080805    -0.00060284     0.00008640     0.00008879
H        -0.98674295     0.05075586    -0.60211912     0.00000364     0.00006129    -0.00081664
     6
  Step:    17            Position(A)                                  Velocity(au)
C        -0.04126809     0.01203912     0.00249719    -0.00004970    -0.00001553    -0.00068253
N        -0.04929510    -0.04024745     1.32293390     0.00009172    -0.00000181     0.00064384
H         0.95770843     0.00176751    -0.57104514     0.00011445     0.00033714    -0.00064002
H         0.87308763    -0.21239309     1.83411125     0.00001110    -0.00023764     0.00032854
H        -0.88031149    -0.09440096     1.82189215    -0.00083812     0.00005467     0.00028694
H        -0.98664642     0.05108551    -0.60663591     0.00003027     0.00005601    -0.00078942
     6
  Step:    18            Position(A)                                  Velocity(au)
C        -0.04152464     0.01195345    -0.00129963    -0.00004193    -0.00001512    -0.00066786
N        -0.04871321    -0.04025411     1.32647839     0.00011411    -0.00000053     0.00061765
H         0.95809995     0.00363722    -0.57451755     0.00002716     0.00032926    -0.00059743
H         0.87276173    -0.21367177     1.83579029    -0.00012228    -0.00021886     0.00027244
H        -0.88565007    -0.09417873     1.82403555    -0.00104710     0.00002606     0.00046482
H        -0.98640249     0.05138591    -0.61099866     0.00005613     0.00005106    -0.00076471
     6
  Step:    19            Position(A)                                  Velocity(au)
C        -0.04173889     0.01186940    -0.00500111    -0.00003482    -0.00001501    -0.00065182
N        -0.04801390    -0.04025339     1.32986847     0.00013387     0.00000082     0.00059186
H         0.95801335     0.00546425    -0.57775272    -0.00005568     0.00032338    -0.00055828
H         0.87171474    -0.21485029     1.83717008    -0.00024584    -0.00020310     0.00022354
H        -0.89206760    -0.09410840     1.82711088    -0.00122508     0.00000071     0.00062007
H        -0.98601624     0.05165879    -0.61522155     0.00008123     0.00004641    -0.00074302
     6
  Step:    20            Position(A)                                  Velocity(au)
C        -0.04191465     0.01178536    -0.00860081    -0.00002835    -0.00001517    -0.00063465
N        -0.04721373    -0.04024489     1.33310801     0.00015061     0.00000226     0.00056675
H         0.95747628     0.00725954    -0.58077105    -0.00013388     0.00031934    -0.00052260
H         0.87000799    -0.21594680     1.83829420    -0.00035857    -0.00019064     0.00018248
H        -0.89937260    -0.09417077     1.83098111    -0.00136819    -0.00002132     0.00075102
H        -0.98549264     0.05190575    -0.61932143     0.00010554     0.00004202    -0.00072414
     6
  Step:    21            Position(A)                                  Velocity(au)
C        -0.04205568     0.01169991    -0.01209361    -0.00002250    -0.00001556    -0.00061621
N        -0.04633082    -0.04022817     1.33620212     0.00016398     0.00000378     0.00054215
H         0.95651716     0.00903298    -0.58359298    -0.00020718     0.00031683    -0.00049010
H         0.86770760    -0.21698081     1.83920938    -0.00045918    -0.00018167     0.00014984
H        -0.90735765    -0.09434669     1.83550377    -0.00147326    -0.00004006     0.00085647
H        -0.98483675     0.05212833    -0.62331403     0.00012899     0.00003779    -0.00070742
     6
  Step:    22            Position(A)                                  Velocity(au)
C        -0.04216556     0.01161180    -0.01547350    -0.00001725    -0.00001616    -0.00059617
N        -0.04538485    -0.04020270     1.33915473     0.00017368     0.00000542     0.00051773
H         0.95516551     0.01079322    -0.58623723    -0.00027515     0.00031556    -0.00046044
H         0.86488674    -0.21797296     1.83996533    -0.00054607    -0.00017635     0.00012617
H        -0.91580409    -0.09461761     1.84053349    -0.00153820    -0.00005558     0.00093576
H        -0.98405404     0.05232721    -0.62721137     0.00015139     0.00003360    -0.00069210
     6
  Step:    23            Position(A)                                  Velocity(au)
C        -0.04224773     0.01151996    -0.01873261    -0.00001031    -0.00001477    -0.00061715
N        -0.04439669    -0.04016779     1.34196760     0.00017888     0.00000654     0.00052534
H         0.95345308     0.01254705    -0.58872052    -0.00036742     0.00037525    -0.00039367
H         0.86162648    -0.21894471     1.84061438    -0.00063719    -0.00024623     0.00009663
H        -0.92448727    -0.09496560     1.84592448    -0.00154691    -0.00000417     0.00099001
H        -0.98315085     0.05250256    -0.63102129     0.00018863    -0.00003961    -0.00063931
     6
  Step:    24            Position(A)                                  Velocity(au)
C        -0.04228029     0.01144743    -0.02233998    -0.00000194    -0.00001092    -0.00068606
N        -0.04339464    -0.04012998     1.34499970     0.00017938     0.00000658     0.00057113
H         0.95107754     0.01496825    -0.59061716    -0.00048562     0.00046668    -0.00028691
H         0.85779740    -0.22071257     1.84104039    -0.00073236    -0.00035895     0.00005940
H        -0.93301508    -0.09466395     1.85154840    -0.00149455     0.00008586     0.00100898
H        -0.98195536     0.05188647    -0.63432436     0.00024293    -0.00015501    -0.00054299
     6
  Step:    25            Position(A)                                  Velocity(au)
C        -0.04226937     0.01139852    -0.02636552     0.00000550    -0.00000673    -0.00075753
N        -0.04240093    -0.04009454     1.34832182     0.00017557     0.00000621     0.00062095
H         0.94805021     0.01773921    -0.59191262    -0.00059613     0.00052092    -0.00018173
H         0.85347851    -0.22293824     1.84127528    -0.00080763    -0.00043389     0.00003074
H        -0.94111520    -0.09401032     1.85715005    -0.00139742     0.00014225     0.00099079
H        -0.98044807     0.05077799    -0.63706246     0.00029591    -0.00023539    -0.00044200
     6
  Step:    26            Position(A)                                  Velocity(au)
C        -0.04221906     0.01137246    -0.03077575     0.00001218    -0.00000275    -0.00082038
N        -0.04143952    -0.04006079     1.35191452     0.00016736     0.00000604     0.00066506
H         0.94443905     0.02076922    -0.59264092    -0.00069164     0.00056086    -0.00008403
H         0.84880366    -0.22554429     1.84138268    -0.00085631    -0.00049747     0.00001420
H        -0.94857669    -0.09307985     1.86258171    -0.00126427     0.00018748     0.00094766
H        -0.97866018     0.04926522    -0.63924642     0.00034143    -0.00030202    -0.00034416
     6
  Step:    27            Position(A)                                  Velocity(au)
C        -0.04213353     0.01136782    -0.03551682     0.00001805     0.00000093    -0.00087182
N        -0.04053405    -0.04002715     1.35574059     0.00015500     0.00000619     0.00070105
H         0.94033499     0.02399563    -0.59284999    -0.00076839     0.00059016     0.00000365
H         0.84392638    -0.22848749     1.84143366    -0.00087587    -0.00055403     0.00001072
H        -0.95521811    -0.09191894     1.86772118    -0.00110156     0.00022510     0.00088430
H        -0.97663947     0.04740898    -0.64090155     0.00037689    -0.00035830    -0.00025208
     6
  Step:    28            Position(A)                                  Velocity(au)
C        -0.04201730     0.01138284    -0.04052323     0.00002303     0.00000425    -0.00091049
N        -0.03970657    -0.03999156     1.35975268     0.00013896     0.00000673     0.00072770
H         0.93584802     0.02736756    -0.59260006    -0.00082357     0.00061070     0.00007920
H         0.83901090    -0.23173873     1.84150249    -0.00086562    -0.00060564     0.00002044
H        -0.96089281    -0.09056310     1.87246876    -0.00091676     0.00025658     0.00080533
H        -0.97444627     0.04525918    -0.64206479     0.00040047    -0.00040578    -0.00016793
     6
  Step:    29            Position(A)                                  Velocity(au)
C        -0.04187532     0.01141549    -0.04572346     0.00002709     0.00000719    -0.00093613
N        -0.03897633    -0.03995174     1.36389814     0.00011992     0.00000767     0.00074474
H         0.93110273     0.03084153    -0.59196217    -0.00085552     0.00062395     0.00014096
H         0.83422275    -0.23527670     1.84166279    -0.00082678    -0.00065358     0.00004277
H        -0.96549497    -0.08904264     1.87674898    -0.00071794     0.00028281     0.00071558
H        -0.97215021     0.04286023    -0.64278404     0.00041104    -0.00044546    -0.00009354
     6
  Step:    30            Position(A)                                  Velocity(au)
C        -0.04171282     0.01146362    -0.05104535     0.00003019     0.00000972    -0.00094945
N        -0.03835870    -0.03990530     1.36812357     0.00009868     0.00000904     0.00075269
H         0.92623200     0.03438081    -0.59101562    -0.00086378     0.00063147     0.00018796
H         0.82971783    -0.23908495     1.84198323    -0.00076239    -0.00069889     0.00007641
H        -0.96896247    -0.08738435     1.88051193    -0.00051316     0.00030443     0.00061990
H        -0.96982615     0.04025222    -0.64311623     0.00040824    -0.00047843    -0.00003029
     6
  Step:    31            Position(A)                                  Velocity(au)
C        -0.04153515     0.01152501    -0.05642123     0.00003235     0.00001186    -0.00095193
N        -0.03786443    -0.03984988     1.37237897     0.00007612     0.00001080     0.00075271
H         0.92137014     0.03795649    -0.58984430    -0.00084907     0.00063485     0.00021991
H         0.82563257    -0.24315132     1.84252374    -0.00067691    -0.00074250     0.00011953
H        -0.97127690    -0.08561252     1.88373359    -0.00030971     0.00032210     0.00052279
H        -0.96755046     0.03746953    -0.64312532     0.00039237    -0.00050587     0.00002108
     6
  Step:    32            Position(A)                                  Velocity(au)
C        -0.04134758     0.01159749    -0.06179203     0.00003362     0.00001362    -0.00094553
N        -0.03749937    -0.03978333     1.37662118     0.00005305     0.00001293     0.00074633
H         0.91664660     0.04154778    -0.58853299    -0.00081287     0.00063568     0.00023713
H         0.82207601    -0.24746721     1.84333263    -0.00057559    -0.00078522     0.00016997
H        -0.97245887    -0.08374802     1.88641383    -0.00011363     0.00033655     0.00042812
H        -0.96539653     0.03454126    -0.64287829     0.00036431    -0.00052898     0.00006044
     6
  Step:    33            Position(A)                                  Velocity(au)
C        -0.04115514     0.01167903    -0.06710960     0.00003405     0.00001506    -0.00093221
N        -0.03726474    -0.03970376     1.38081559     0.00003021     0.00001536     0.00073510
H         0.91218130     0.04514231    -0.58716374    -0.00075717     0.00063541     0.00024045
H         0.81912602    -0.25202758     1.84444508    -0.00046391    -0.00082771     0.00022542
H        -0.97256140    -0.08180807     1.88857308     0.00007042     0.00034847     0.00033896
H        -0.96343227     0.03148989    -0.64244210     0.00032516    -0.00054898     0.00008817
     6
  Step:    34            Position(A)                                  Velocity(au)
C        -0.04096245     0.01176779    -0.07233685     0.00003372     0.00001619    -0.00091372
N        -0.03715765    -0.03960961     1.38493637     0.00000822     0.00001804     0.00072039
H         0.90808178     0.04873537    -0.58581308    -0.00068409     0.00063521     0.00023101
H         0.81682847    -0.25682995     1.84588255    -0.00034713    -0.00087027     0.00028356
H        -0.97166229    -0.07980624     1.89024802     0.00023903     0.00035846     0.00025760
H        -0.96171849     0.02833136    -0.64188089     0.00027614    -0.00056697     0.00010501
     6
  Step:    35            Position(A)                                  Velocity(au)
C        -0.04077369     0.01186219    -0.07744644     0.00003271     0.00001707    -0.00089141
N        -0.03717172    -0.03949971     1.38896525    -0.00001238     0.00002090     0.00070323
H         0.90444227     0.05232836    -0.58455035    -0.00059577     0.00063587     0.00021010
H         0.81519900    -0.26187282     1.84765299    -0.00023012    -0.00091282     0.00034208
H        -0.96985732    -0.07775289     1.89148728     0.00038965     0.00036697     0.00018568
H        -0.96030833     0.02507585    -0.64125407     0.00021851    -0.00058378     0.00011191
     6
  Step:    36            Position(A)                                  Velocity(au)
C        -0.04059251     0.01196084    -0.08241851     0.00003110     0.00001772    -0.00086624
N        -0.03729767    -0.03937329     1.39288972    -0.00003114     0.00002386     0.00068435
H         0.90134379     0.05592690    -0.58343685    -0.00049439     0.00063788     0.00017915
H         0.81422586    -0.26715369     1.84975141    -0.00011729    -0.00095490     0.00039877
H        -0.96725545    -0.07565592     1.89234802     0.00052029     0.00037432     0.00012440
H        -0.95924724     0.02172901    -0.64061524     0.00015353    -0.00059999     0.00010992
     6
  Step:    37            Position(A)                                  Velocity(au)
C        -0.04042211     0.01206253    -0.08723854     0.00002898     0.00001818    -0.00083888
N        -0.03752375    -0.03923004     1.39670118    -0.00004767     0.00002684     0.00066421
H         0.89885369     0.05953896    -0.58252518    -0.00038231     0.00064144     0.00013970
H         0.81387317    -0.27266706     1.85216073    -0.00001254    -0.00099577     0.00045156
H        -0.96397587    -0.07352153     1.89289348     0.00062929     0.00038072     0.00007464
H        -0.95857279     0.01829351    -0.64001158     0.00008260    -0.00061599     0.00010019
     6
  Step:    38            Position(A)                                  Velocity(au)
C        -0.04026509     0.01216624    -0.09189576     0.00002645     0.00001847    -0.00080982
N        -0.03783618    -0.03907008     1.40039358    -0.00006161     0.00002976     0.00064311
H         0.89702466     0.06317360    -0.58185859    -0.00026217     0.00064662     0.00009341
H         0.81408422    -0.27840341     1.85485295     0.00008076    -0.00103459     0.00049863
H        -0.96014603    -0.07135472     1.89319121     0.00071524     0.00038631     0.00003706
H        -0.95831409     0.01476984    -0.63948337     0.00000723    -0.00063203     0.00008395
     6
  Step:    39            Position(A)                                  Velocity(au)
C        -0.04012348     0.01227109    -0.09638213     0.00002361     0.00001862    -0.00077947
N        -0.03821943    -0.03889399     1.40396240    -0.00007271     0.00003255     0.00062125
H         0.89589351     0.06683984    -0.58147049    -0.00013688     0.00065331     0.00004206
H         0.81478500    -0.28434845     1.85779069     0.00015985    -0.00107046     0.00053845
H        -0.95590019    -0.06915976     1.89331195     0.00077704     0.00039115     0.00001214
H        -0.95849117     0.01115733    -0.63906376    -0.00007091    -0.00064824     0.00006247
     6
  Step:    40            Position(A)                                  Velocity(au)
C        -0.03999866     0.01237638    -0.10069188     0.00002058     0.00001866    -0.00074821
N        -0.03865670    -0.03870274     1.40740421    -0.00008076     0.00003514     0.00059881
H         0.89547997     0.07054599    -0.58138400    -0.00000955     0.00066136    -0.00001253
H         0.81588804    -0.29048327     1.86092920     0.00022265    -0.00110262     0.00056987
H        -0.95137734    -0.06694072     1.89332816     0.00081400     0.00039535     0.00000011
H        -0.95911433     0.00745469    -0.63877847    -0.00015006    -0.00066469     0.00003703
     6
  Step:    41            Position(A)                                  Velocity(au)
C        -0.03989136     0.01248152    -0.10482133     0.00001748     0.00001860    -0.00071643
N        -0.03913033    -0.03849766     1.41071644    -0.00008565     0.00003747     0.00057594
H         0.89578579     0.07429937    -0.58161178     0.00011660     0.00067059    -0.00006849
H         0.81729632    -0.29678505     1.86421829     0.00026783    -0.00113048     0.00059213
H        -0.94671899    -0.06470054     1.89331319     0.00082593     0.00039909     0.00000100
H        -0.96018372     0.00366024    -0.63864607    -0.00022840    -0.00068145     0.00000892
     6
  Step:    42            Position(A)                                  Velocity(au)
C        -0.03980159     0.01258606    -0.10876887     0.00001443     0.00001847    -0.00068450
N        -0.03962234    -0.03828036     1.41389730    -0.00008738     0.00003949     0.00055279
H         0.89679456     0.07810611    -0.58215620     0.00023841     0.00068078    -0.00012407
H         0.81890755    -0.30322818     1.86760486     0.00029479    -0.00115367     0.00060492
H        -0.94206591    -0.06244142     1.89333945     0.00081324     0.00040251     0.00001452
H        -0.96168930    -0.00022789    -0.63867794    -0.00030415    -0.00069856    -0.00002064
     6
  Step:    43            Position(A)                                  Velocity(au)
C        -0.03972872     0.01268970    -0.11253488     0.00001155     0.00001831    -0.00065279
N        -0.04011500    -0.03805263     1.41694578    -0.00008603     0.00004119     0.00052952
H         0.89847238     0.08197104    -0.58300996     0.00035288     0.00069175    -0.00017764
H         0.82061828    -0.30978554     1.87103510     0.00030363    -0.00117205     0.00060830
H        -0.93755468    -0.06016468     1.89347682     0.00077701     0.00040580     0.00004007
H        -0.96361114    -0.00421177    -0.63887863    -0.00037562    -0.00071608    -0.00005047
     6
  Step:    44            Position(A)                                  Velocity(au)
C        -0.03967153     0.01279228    -0.11612170     0.00000892     0.00001813    -0.00062164
N        -0.04059135    -0.03781638     1.41986166    -0.00008178     0.00004256     0.00050627
H         0.90076932     0.08589775    -0.58415703     0.00045738     0.00070327    -0.00022775
H         0.82232751    -0.31642985     1.87445655     0.00029504    -0.00118573     0.00060264
H        -0.93331385    -0.05787062     1.89379075     0.00071900     0.00040914     0.00007670
H        -0.96592015    -0.00829356    -0.63924640    -0.00044127    -0.00073402    -0.00007952
     6