|===============================================================================
|
|  DFTB+ release 20.1
|
|  Copyright (C) 2006 - 2020  DFTB+ developers group
|
|===============================================================================
|
|  When publishing results obtained with DFTB+, please cite the following
|  reference:
|
|  * DFTB+, a software package for efficient approximate density functional
|    theory based atomistic simulations, J. Chem. Phys. 152, 124101 (2020).
|    [doi: 10.1063/1.5143190]
|
|  You should also cite additional publications crediting the parametrization
|  data you use. Please consult the documentation of the SK-files for the
|  references.
|
|===============================================================================

Reading input file 'dftb_in.hsd'
Parser version: 8

--------------------------------------------------------------------------------
Reading SK-files:
Done.


Processed input in HSD format written to 'dftb_pin.hsd'

Starting initialization...
--------------------------------------------------------------------------------
OpenMP threads:              1
Chosen random seed:          502701691
Mode:                        Static calculation
Self consistent charges:     Yes
SCC-tolerance:                 0.100000E-05
Max. scc iterations:                   1000
Shell resolved Hubbard:      No
Spin polarisation:           No
Nr. of up electrons:            16.000000
Nr. of down electrons:          16.000000
Periodic boundaries:         No
Electronic solver:           Relatively robust
Maximal SCC-cycles:                    1000
Initial charges:             Set automatically (system chrg:   0.100E+01)
Included shells:             C:  s, p
                             H:  s
                             N:  s, p
Spin coupling constants:     C   1(s)-1(s):  -0.455900E-01
                             C   1(s)-2(p):  -0.293000E-01
                             C   2(p)-1(s):  -0.293000E-01
                             C   2(p)-2(p):  -0.275500E-01
                             H   1(s)-1(s):  -0.792500E-01
                             N   1(s)-1(s):  -0.468700E-01
                             N   1(s)-2(p):  -0.317000E-01
                             N   2(p)-1(s):  -0.317000E-01
                             N   2(p)-2(p):  -0.307200E-01
Range separated hybrid:      Yes
  Screening parameter omega:   0.300000E+00
  Range separated algorithm:   MatrixBased
Extra options:
                             Mulliken analysis
                             Force calculation
Force type                   original
                             Eigenvector printing


REKS Calcuation:             Yes
SSR(2,2) Calcuation:         Yes
Energy Functional:           (PPS+OSS)/2
Number of Core Orbitals:                 15
Number of Active Orbitals:                2
Number of Basis:                         32
Number of States:                         2
State-Averaging Weight:          0.500000
                                 0.500000
State of Interest:                        1
Initial Guess:               Diagonalize H0 matrix
Newton-Raphson for FON opt:  Yes
NR max. Iterations:                      50
Level Shifting:              Yes
Shift Value:                     0.300000
W Scale Factor:              C  =    3.200000
                             H  =    3.200000
                             N  =    3.200000
Transition Dipole:           No
Gradient of Microstate:      No
CP-REKS Solver:              Preconditioned Conjugate-Gradient
CG max. Iterations:                     100
CG Tolerance:                  0.100000E-07
Memory for A and Hxc:        Direct Updating Without Saving
Non-Adiabatic Coupling:      Yes

--------------------------------------------------------------------------------

***  Geometry step: 0

  iSCC       reks energy        Diff energy         x_a       SCC error   
    1      -16.4021526455       0.0000000000     0.997055    1.23246390
    2      -16.4178099139      -0.0156572683     0.999471    0.03961486
    3      -16.4210343691      -0.0032244553     0.999775    0.01720749
    4      -16.4222110351      -0.0011766659     0.999866    0.00957512
    5      -16.4227481111      -0.0005370760     0.999906    0.00669338
    6      -16.4230273235      -0.0002792125     0.999926    0.00489534
    7      -16.4231877312      -0.0001604076     0.999937    0.00365915
    8      -16.4232883595      -0.0001006284     0.999945    0.00277641
    9      -16.4233568352      -0.0000684757     0.999949    0.00213344
   10      -16.4234069600      -0.0000501248     0.999952    0.00165877
   11      -16.4234459724      -0.0000390124     0.999954    0.00130465
   12      -16.4234778346      -0.0000318622     0.999956    0.00103810
   13      -16.4235048107      -0.0000269761     0.999957    0.00083583
   14      -16.4235282553      -0.0000234446     0.999958    0.00068113
   15      -16.4235490197      -0.0000207643     0.999959    0.00059111
   16      -16.4235676658      -0.0000186462     0.999960    0.00056482
   17      -16.4235845833      -0.0000169175     0.999960    0.00054063
   18      -16.4236000542      -0.0000154709     0.999961    0.00051826
   19      -16.4236142907      -0.0000142364     0.999961    0.00049750
   20      -16.4236274572      -0.0000131666     0.999962    0.00047818
   21      -16.4236396851      -0.0000122279     0.999962    0.00046016
   22      -16.4236510811      -0.0000113960     0.999963    0.00044331
   23      -16.4236617336      -0.0000106525     0.999963    0.00042754
   24      -16.4236717169      -0.0000099833     0.999963    0.00041275
   25      -16.4236810943      -0.0000093774     0.999964    0.00039884
   26      -16.4236899202      -0.0000088259     0.999964    0.00038576
   27      -16.4236982418      -0.0000083216     0.999964    0.00037344
   28      -16.4237061005      -0.0000078587     0.999965    0.00036180
   29      -16.4237135329      -0.0000074324     0.999965    0.00035081
   30      -16.4237205714      -0.0000070385     0.999965    0.00034040
   31      -16.4237272450      -0.0000066736     0.999966    0.00033054
   32      -16.4237335798      -0.0000063348     0.999966    0.00032119
   33      -16.4237395993      -0.0000060195     0.999966    0.00031230
   34      -16.4237453250      -0.0000057256     0.999967    0.00030384
   35      -16.4237507761      -0.0000054511     0.999967    0.00029579
   36      -16.4237559705      -0.0000051944     0.999967    0.00028811
   37      -16.4237609245      -0.0000049540     0.999968    0.00028143
   38      -16.4237656529      -0.0000047284     0.999968    0.00027500
   39      -16.4237701696      -0.0000045167     0.999968    0.00026878
   40      -16.4237744872      -0.0000043176     0.999969    0.00026275
   41      -16.4237786176      -0.0000041303     0.999969    0.00025691
   42      -16.4237825714      -0.0000039539     0.999969    0.00025125
   43      -16.4237863590      -0.0000037875     0.999969    0.00024578
   44      -16.4237899895      -0.0000036306     0.999970    0.00024048
   45      -16.4237934719      -0.0000034823     0.999970    0.00023534
   46      -16.4237968141      -0.0000033422     0.999970    0.00023037
   47      -16.4238000237      -0.0000032097     0.999971    0.00022556
   48      -16.4238031080      -0.0000030842     0.999971    0.00022089
   49      -16.4238060733      -0.0000029654     0.999971    0.00021637
   50      -16.4238089260      -0.0000028527     0.999971    0.00021199
   51      -16.4238116718      -0.0000027458     0.999971    0.00020775
   52      -16.4238143162      -0.0000026444     0.999972    0.00020364
   53      -16.4238168643      -0.0000025480     0.999972    0.00020017
   54      -16.4238193208      -0.0000024565     0.999972    0.00019713
   55      -16.4238216901      -0.0000023694     0.999972    0.00019417
   56      -16.4238239767      -0.0000022865     0.999973    0.00019126
   57      -16.4238261843      -0.0000022076     0.999973    0.00018843
   58      -16.4238283168      -0.0000021325     0.999973    0.00018566
   59      -16.4238303777      -0.0000020609     0.999973    0.00018295
   60      -16.4238323702      -0.0000019925     0.999973    0.00018031
   61      -16.4238342976      -0.0000019274     0.999974    0.00017773
   62      -16.4238361627      -0.0000018651     0.999974    0.00017521
   63      -16.4238379684      -0.0000018057     0.999974    0.00017275
   64      -16.4238397173      -0.0000017489     0.999974    0.00017034
   65      -16.4238414119      -0.0000016946     0.999974    0.00016799
   66      -16.4238430546      -0.0000016426     0.999975    0.00016570
   67      -16.4238446475      -0.0000015929     0.999975    0.00016346
   68      -16.4238461928      -0.0000015453     0.999975    0.00016128
   69      -16.4238476925      -0.0000014997     0.999975    0.00015914
   70      -16.4238491486      -0.0000014560     0.999975    0.00015705
   71      -16.4238505627      -0.0000014141     0.999975    0.00015502
   72      -16.4238519367      -0.0000013740     0.999976    0.00015303
   73      -16.4238532721      -0.0000013354     0.999976    0.00015108
   74      -16.4238545705      -0.0000012984     0.999976    0.00014918
   75      -16.4238558333      -0.0000012628     0.999976    0.00014733
   76      -16.4238570620      -0.0000012287     0.999976    0.00014551
   77      -16.4238582579      -0.0000011959     0.999976    0.00014374
   78      -16.4238594222      -0.0000011643     0.999977    0.00014201
   79      -16.4238605561      -0.0000011340     0.999977    0.00014031
   80      -16.4238616609      -0.0000011048     0.999977    0.00013866
   81      -16.4238627375      -0.0000010766     0.999977    0.00013704
   82      -16.4238637871      -0.0000010496     0.999977    0.00013546
   83      -16.4238648106      -0.0000010235     0.999977    0.00013391
   84      -16.4238658090      -0.0000009984     0.999977    0.00013239
   85      -16.4238667831      -0.0000009741     0.999978    0.00013091
   86      -16.4238677339      -0.0000009508     0.999978    0.00012946
   87      -16.4238686622      -0.0000009283     0.999978    0.00012804
   88      -16.4238695687      -0.0000009065     0.999978    0.00012666
   89      -16.4238704543      -0.0000008856     0.999978    0.00012530
   90      -16.4238713196      -0.0000008653     0.999978    0.00012397
   91      -16.4238721653      -0.0000008457     0.999978    0.00012267
   92      -16.4238729922      -0.0000008268     0.999978    0.00012139
   93      -16.4238738007      -0.0000008086     0.999979    0.00012015
   94      -16.4238745917      -0.0000007909     0.999979    0.00011893
   95      -16.4238753655      -0.0000007739     0.999979    0.00011773
   96      -16.4238761229      -0.0000007574     0.999979    0.00011656
   97      -16.4238768643      -0.0000007414     0.999979    0.00011541
   98      -16.4238775902      -0.0000007259     0.999979    0.00011429
   99      -16.4238783012      -0.0000007110     0.999979    0.00011319
  100      -16.4238789977      -0.0000006965     0.999979    0.00011211
  101      -16.4238796801      -0.0000006824     0.999980    0.00011105
  102      -16.4238803490      -0.0000006689     0.999980    0.00011001
  103      -16.4238810046      -0.0000006557     0.999980    0.00010900
  104      -16.4238816475      -0.0000006429     0.999980    0.00010800
  105      -16.4238822781      -0.0000006305     0.999980    0.00010703
  106      -16.4238828966      -0.0000006185     0.999980    0.00010607
  107      -16.4238835035      -0.0000006069     0.999980    0.00010513
  108      -16.4238840991      -0.0000005956     0.999980    0.00010421
  109      -16.4238846837      -0.0000005846     0.999980    0.00010331
  110      -16.4238852577      -0.0000005740     0.999980    0.00010242
  111      -16.4238858214      -0.0000005637     0.999981    0.00010156
  112      -16.4238863750      -0.0000005536     0.999981    0.00010070
  113      -16.4238869189      -0.0000005439     0.999981    0.00009987
  114      -16.4238874533      -0.0000005344     0.999981    0.00009905
  115      -16.4238879785      -0.0000005252     0.999981    0.00009824
  116      -16.4238884948      -0.0000005163     0.999981    0.00009745
  117      -16.4238890024      -0.0000005076     0.999981    0.00009668
  118      -16.4238895016      -0.0000004991     0.999981    0.00009592
  119      -16.4238899925      -0.0000004909     0.999981    0.00009517
  120      -16.4238904754      -0.0000004829     0.999981    0.00009444
  121      -16.4238909506      -0.0000004752     0.999982    0.00009372
  122      -16.4238914182      -0.0000004676     0.999982    0.00009301
  123      -16.4238918784      -0.0000004602     0.999982    0.00009232
  124      -16.4238923315      -0.0000004531     0.999982    0.00009163
  125      -16.4238927776      -0.0000004461     0.999982    0.00009096
  126      -16.4238932169      -0.0000004393     0.999982    0.00009031
  127      -16.4238936495      -0.0000004327     0.999982    0.00008966
  128      -16.4238940758      -0.0000004262     0.999982    0.00008903
  129      -16.4238944957      -0.0000004200     0.999982    0.00008840
  130      -16.4238949095      -0.0000004138     0.999982    0.00008779
  131      -16.4238953174      -0.0000004079     0.999982    0.00008719
  132      -16.4238957195      -0.0000004021     0.999982    0.00008660
  133      -16.4238961159      -0.0000003964     0.999983    0.00008602
  134      -16.4238965067      -0.0000003909     0.999983    0.00008545
  135      -16.4238968922      -0.0000003855     0.999983    0.00008489
  136      -16.4238972724      -0.0000003802     0.999983    0.00008434
  137      -16.4238976475      -0.0000003751     0.999983    0.00008379
  138      -16.4238980176      -0.0000003701     0.999983    0.00008326
  139      -16.4238983828      -0.0000003652     0.999983    0.00008274
  140      -16.4238987433      -0.0000003604     0.999983    0.00008222
  141      -16.4238990991      -0.0000003558     0.999983    0.00008172
  142      -16.4238994503      -0.0000003513     0.999983    0.00008122
  143      -16.4238997972      -0.0000003468     0.999983    0.00008073
  144      -16.4239001397      -0.0000003425     0.999983    0.00008025
  145      -16.4239004779      -0.0000003383     0.999983    0.00007978
  146      -16.4239008121      -0.0000003342     0.999983    0.00007931
  147      -16.4239011422      -0.0000003301     0.999984    0.00007886
  148      -16.4239014684      -0.0000003262     0.999984    0.00007841
  149      -16.4239017908      -0.0000003223     0.999984    0.00007797
  150      -16.4239021093      -0.0000003186     0.999984    0.00007753
  151      -16.4239024243      -0.0000003149     0.999984    0.00007710
  152      -16.4239027356      -0.0000003113     0.999984    0.00007668
  153      -16.4239030434      -0.0000003078     0.999984    0.00007627
  154      -16.4239033478      -0.0000003044     0.999984    0.00007586
  155      -16.4239036488      -0.0000003010     0.999984    0.00007546
  156      -16.4239039466      -0.0000002977     0.999984    0.00007507
  157      -16.4239042411      -0.0000002945     0.999984    0.00007468
  158      -16.4239045325      -0.0000002914     0.999984    0.00007430
  159      -16.4239048208      -0.0000002883     0.999984    0.00007393
  160      -16.4239051062      -0.0000002853     0.999984    0.00007356
  161      -16.4239053886      -0.0000002824     0.999984    0.00007319
  162      -16.4239056681      -0.0000002795     0.999985    0.00007284
  163      -16.4239059448      -0.0000002767     0.999985    0.00007249
  164      -16.4239062188      -0.0000002740     0.999985    0.00007214
  165      -16.4239064901      -0.0000002713     0.999985    0.00007180
  166      -16.4239067587      -0.0000002686     0.999985    0.00007146
  167      -16.4239070248      -0.0000002661     0.999985    0.00007114
  168      -16.4239072883      -0.0000002635     0.999985    0.00007081
  169      -16.4239075494      -0.0000002611     0.999985    0.00007049
  170      -16.4239078081      -0.0000002587     0.999985    0.00007018
  171      -16.4239080644      -0.0000002563     0.999985    0.00006987
  172      -16.4239083183      -0.0000002540     0.999985    0.00006957
  173      -16.4239085700      -0.0000002517     0.999985    0.00006927
  174      -16.4239088195      -0.0000002495     0.999985    0.00006897
  175      -16.4239090668      -0.0000002473     0.999985    0.00006868
  176      -16.4239093120      -0.0000002452     0.999985    0.00006840
  177      -16.4239095550      -0.0000002431     0.999985    0.00006812
  178      -16.4239097961      -0.0000002410     0.999985    0.00006784
  179      -16.4239100351      -0.0000002390     0.999985    0.00006757
  180      -16.4239102722      -0.0000002371     0.999986    0.00006730
  181      -16.4239105073      -0.0000002351     0.999986    0.00006704
  182      -16.4239107405      -0.0000002333     0.999986    0.00006678
  183      -16.4239109719      -0.0000002314     0.999986    0.00006653
  184      -16.4239112015      -0.0000002296     0.999986    0.00006628
  185      -16.4239114294      -0.0000002278     0.999986    0.00006603
  186      -16.4239116554      -0.0000002261     0.999986    0.00006579
  187      -16.4239118798      -0.0000002244     0.999986    0.00006555
  188      -16.4239121025      -0.0000002227     0.999986    0.00006531
  189      -16.4239123236      -0.0000002211     0.999986    0.00006508
  190      -16.4239125431      -0.0000002195     0.999986    0.00006485
  191      -16.4239127610      -0.0000002179     0.999986    0.00006463
  192      -16.4239129773      -0.0000002164     0.999986    0.00006441
  193      -16.4239131922      -0.0000002148     0.999986    0.00006419
  194      -16.4239134055      -0.0000002134     0.999986    0.00006398
  195      -16.4239136174      -0.0000002119     0.999986    0.00006377
  196      -16.4239138279      -0.0000002105     0.999986    0.00006356
  197      -16.4239140370      -0.0000002091     0.999986    0.00006336
  198      -16.4239142448      -0.0000002077     0.999986    0.00006316
  199      -16.4239144512      -0.0000002064     0.999987    0.00006296
  200      -16.4239146562      -0.0000002051     0.999987    0.00006277
  201      -16.4239148600      -0.0000002038     0.999987    0.00006258
  202      -16.4239150626      -0.0000002025     0.999987    0.00006239
  203      -16.4239152638      -0.0000002013     0.999987    0.00006220
  204      -16.4239154639      -0.0000002001     0.999987    0.00006202
  205      -16.4239156628      -0.0000001989     0.999987    0.00006184
  206      -16.4239158605      -0.0000001977     0.999987    0.00006167
  207      -16.4239160571      -0.0000001966     0.999987    0.00006150
  208      -16.4239162526      -0.0000001955     0.999987    0.00006133
  209      -16.4239164469      -0.0000001944     0.999987    0.00006116
  210      -16.4239166402      -0.0000001933     0.999987    0.00006099
  211      -16.4239168324      -0.0000001922     0.999987    0.00006083
  212      -16.4239170236      -0.0000001912     0.999987    0.00006067
  213      -16.4239172138      -0.0000001902     0.999987    0.00006052
  214      -16.4239174030      -0.0000001892     0.999987    0.00006036
  215      -16.4239175912      -0.0000001882     0.999987    0.00006021
  216      -16.4239177784      -0.0000001872     0.999987    0.00006006
  217      -16.4239179647      -0.0000001863     0.999987    0.00005992
  218      -16.4239181501      -0.0000001854     0.999987    0.00005978
  219      -16.4239183346      -0.0000001845     0.999987    0.00005963
  220      -16.4239185182      -0.0000001836     0.999987    0.00005950
  221      -16.4239187010      -0.0000001827     0.999988    0.00005936
  222      -16.4239188829      -0.0000001819     0.999988    0.00005923
  223      -16.4239190639      -0.0000001811     0.999988    0.00005909
  224      -16.4239192442      -0.0000001803     0.999988    0.00005897
  225      -16.4239194237      -0.0000001795     0.999988    0.00005884
  226      -16.4239196023      -0.0000001787     0.999988    0.00005871
  227      -16.4239197803      -0.0000001779     0.999988    0.00005859
  228      -16.4239199574      -0.0000001772     0.999988    0.00005847
  229      -16.4239201339      -0.0000001764     0.999988    0.00005835
  230      -16.4239203096      -0.0000001757     0.999988    0.00005824
  231      -16.4239204846      -0.0000001750     0.999988    0.00005812
  232      -16.4239206589      -0.0000001743     0.999988    0.00005801
  233      -16.4239208326      -0.0000001736     0.999988    0.00005790
  234      -16.4239210055      -0.0000001730     0.999988    0.00005780
  235      -16.4239211779      -0.0000001723     0.999988    0.00005769
  236      -16.4239213496      -0.0000001717     0.999988    0.00005759
  237      -16.4239215207      -0.0000001711     0.999988    0.00005749
  238      -16.4239216912      -0.0000001705     0.999988    0.00005739
  239      -16.4239218611      -0.0000001699     0.999988    0.00005729
  240      -16.4239220304      -0.0000001693     0.999988    0.00005719
  241      -16.4239221991      -0.0000001687     0.999988    0.00005710
  242      -16.4239223673      -0.0000001682     0.999988    0.00005701
  243      -16.4239225349      -0.0000001676     0.999988    0.00005692
  244      -16.4239227020      -0.0000001671     0.999988    0.00005683
  245      -16.4239228686      -0.0000001666     0.999988    0.00005674
  246      -16.4239230347      -0.0000001661     0.999989    0.00005666
  247      -16.4239232003      -0.0000001656     0.999989    0.00005657
  248      -16.4239233654      -0.0000001651     0.999989    0.00005649
  249      -16.4239235301      -0.0000001646     0.999989    0.00005641
  250      -16.4239236942      -0.0000001642     0.999989    0.00005633
  251      -16.4239238580      -0.0000001637     0.999989    0.00005626
  252      -16.4239240212      -0.0000001633     0.999989    0.00005618
  253      -16.4239241841      -0.0000001629     0.999989    0.00005611
  254      -16.4239243465      -0.0000001624     0.999989    0.00005604
  255      -16.4239245085      -0.0000001620     0.999989    0.00005597
  256      -16.4239246702      -0.0000001616     0.999989    0.00005590
  257      -16.4239248314      -0.0000001612     0.999989    0.00005584
  258      -16.4239249923      -0.0000001609     0.999989    0.00005577
  259      -16.4239251528      -0.0000001605     0.999989    0.00005571
  260      -16.4239253129      -0.0000001601     0.999989    0.00005565
  261      -16.4239254727      -0.0000001598     0.999989    0.00005558
  262      -16.4239256321      -0.0000001594     0.999989    0.00005553
  263      -16.4239257912      -0.0000001591     0.999989    0.00005547
  264      -16.4239259500      -0.0000001588     0.999989    0.00005541
  265      -16.4239261085      -0.0000001585     0.999989    0.00005536
  266      -16.4239262667      -0.0000001582     0.999989    0.00005530
  267      -16.4239264246      -0.0000001579     0.999989    0.00005525
  268      -16.4239265822      -0.0000001576     0.999989    0.00005520
  269      -16.4239267395      -0.0000001573     0.999989    0.00005515
  270      -16.4239268965      -0.0000001570     0.999989    0.00005511
  271      -16.4239270533      -0.0000001568     0.999989    0.00005506
  272      -16.4239272098      -0.0000001565     0.999989    0.00005502
  273      -16.4239273661      -0.0000001563     0.999990    0.00005497
  274      -16.4239275222      -0.0000001561     0.999990    0.00005493
  275      -16.4239276780      -0.0000001558     0.999990    0.00005489
  276      -16.4239278336      -0.0000001556     0.999990    0.00005485
  277      -16.4239279890      -0.0000001554     0.999990    0.00005481
  278      -16.4239281442      -0.0000001552     0.999990    0.00005477
  279      -16.4239282992      -0.0000001550     0.999990    0.00005474
  280      -16.4239284540      -0.0000001548     0.999990    0.00005470
  281      -16.4239286086      -0.0000001546     0.999990    0.00005467
  282      -16.4239287630      -0.0000001544     0.999990    0.00005464
  283      -16.4239289173      -0.0000001543     0.999990    0.00005461
  284      -16.4239290714      -0.0000001541     0.999990    0.00005458
  285      -16.4239292254      -0.0000001540     0.999990    0.00005455
  286      -16.4239293792      -0.0000001538     0.999990    0.00005452
  287      -16.4239295329      -0.0000001537     0.999990    0.00005450
  288      -16.4239296864      -0.0000001535     0.999990    0.00005447
  289      -16.4239298398      -0.0000001534     0.999990    0.00005445
  290      -16.4239299931      -0.0000001533     0.999990    0.00005442
  291      -16.4239301463      -0.0000001532     0.999990    0.00005440
  292      -16.4239302994      -0.0000001531     0.999990    0.00005438
  293      -16.4239304524      -0.0000001530     0.999990    0.00005436
  294      -16.4239306053      -0.0000001529     0.999990    0.00005434
  295      -16.4239307581      -0.0000001528     0.999990    0.00005433
  296      -16.4239309108      -0.0000001527     0.999990    0.00005431
  297      -16.4239310635      -0.0000001526     0.999990    0.00005429
  298      -16.4239312160      -0.0000001526     0.999990    0.00005428
  299      -16.4239313686      -0.0000001525     0.999990    0.00005427
  300      -16.4239315210      -0.0000001525     0.999990    0.00005425
  301      -16.4239316734      -0.0000001524     0.999990    0.00005424
  302      -16.4239318258      -0.0000001524     0.999991    0.00005423
  303      -16.4239319782      -0.0000001523     0.999991    0.00005422
  304      -16.4239321305      -0.0000001523     0.999991    0.00005422
  305      -16.4239322827      -0.0000001523     0.999991    0.00005421
  306      -16.4239324350      -0.0000001523     0.999991    0.00005420
  307      -16.4239325872      -0.0000001522     0.999991    0.00005420
  308      -16.4239327395      -0.0000001522     0.999991    0.00005419
  309      -16.4239328917      -0.0000001522     0.999991    0.00005419
  310      -16.4239330439      -0.0000001522     0.999991    0.00005418
  311      -16.4239331962      -0.0000001522     0.999991    0.00005418
  312      -16.4239333484      -0.0000001523     0.999991    0.00005418
  313      -16.4239335007      -0.0000001523     0.999991    0.00005418
  314      -16.4239336530      -0.0000001523     0.999991    0.00005418
  315      -16.4239338053      -0.0000001523     0.999991    0.00005418
  316      -16.4239339576      -0.0000001524     0.999991    0.00005419
  317      -16.4239341100      -0.0000001524     0.999991    0.00005419
  318      -16.4239342625      -0.0000001524     0.999991    0.00005419
  319      -16.4239344149      -0.0000001525     0.999991    0.00005420
  320      -16.4239345675      -0.0000001525     0.999991    0.00005420
  321      -16.4239347201      -0.0000001526     0.999991    0.00005421
  322      -16.4239348727      -0.0000001527     0.999991    0.00005422
  323      -16.4239350255      -0.0000001527     0.999991    0.00005423
  324      -16.4239351783      -0.0000001528     0.999991    0.00005424
  325      -16.4239353311      -0.0000001529     0.999991    0.00005424
  326      -16.4239354841      -0.0000001530     0.999991    0.00005425
  327      -16.4239356372      -0.0000001530     0.999991    0.00005427
  328      -16.4239357903      -0.0000001531     0.999991    0.00005428
  329      -16.4239359435      -0.0000001532     0.999991    0.00005429
  330      -16.4239360969      -0.0000001533     0.999991    0.00005430
  331      -16.4239362503      -0.0000001534     0.999991    0.00005432
  332      -16.4239364038      -0.0000001535     0.999991    0.00005433
  333      -16.4239365575      -0.0000001537     0.999991    0.00005435
  334      -16.4239367113      -0.0000001538     0.999991    0.00005436
  335      -16.4239368652      -0.0000001539     0.999992    0.00005438
  336      -16.4239370192      -0.0000001540     0.999992    0.00005440
  337      -16.4239371734      -0.0000001542     0.999992    0.00005442
  338      -16.4239373277      -0.0000001543     0.999992    0.00005443
  339      -16.4239374821      -0.0000001544     0.999992    0.00005445
  340      -16.4239376367      -0.0000001546     0.999992    0.00005447
  341      -16.4239377914      -0.0000001547     0.999992    0.00005449
  342      -16.4239379462      -0.0000001549     0.999992    0.00005451
  343      -16.4239381013      -0.0000001550     0.999992    0.00005454
  344      -16.4239382564      -0.0000001552     0.999992    0.00005456
  345      -16.4239384118      -0.0000001553     0.999992    0.00005458
  346      -16.4239385673      -0.0000001555     0.999992    0.00005460
  347      -16.4239387230      -0.0000001557     0.999992    0.00005463
  348      -16.4239388788      -0.0000001558     0.999992    0.00005465
  349      -16.4239390348      -0.0000001560     0.999992    0.00005468
  350      -16.4239391910      -0.0000001562     0.999992    0.00005470
  351      -16.4239393474      -0.0000001564     0.999992    0.00005473
  352      -16.4239395040      -0.0000001566     0.999992    0.00005475
  353      -16.4239396607      -0.0000001568     0.999992    0.00005478
  354      -16.4239398177      -0.0000001570     0.999992    0.00005481
  355      -16.4239399748      -0.0000001572     0.999992    0.00005484
  356      -16.4239401322      -0.0000001574     0.999992    0.00005486
  357      -16.4239402897      -0.0000001576     0.999992    0.00005489
  358      -16.4239404475      -0.0000001578     0.999992    0.00005492
  359      -16.4239406055      -0.0000001580     0.999992    0.00005495
  360      -16.4239407637      -0.0000001582     0.999992    0.00005498
  361      -16.4239409221      -0.0000001584     0.999992    0.00005501
  362      -16.4239410807      -0.0000001586     0.999992    0.00005504
  363      -16.4239412395      -0.0000001588     0.999992    0.00005507
  364      -16.4239413986      -0.0000001591     0.999992    0.00005511
  365      -16.4239415578      -0.0000001593     0.999992    0.00005514
  366      -16.4239417174      -0.0000001595     0.999992    0.00005517
  367      -16.4239418771      -0.0000001597     0.999992    0.00005520
  368      -16.4239420371      -0.0000001600     0.999992    0.00005524
  369      -16.4239421973      -0.0000001602     0.999992    0.00005527
  370      -16.4239423578      -0.0000001605     0.999993    0.00005530
  371      -16.4239425185      -0.0000001607     0.999993    0.00005534
  372      -16.4239426794      -0.0000001609     0.999993    0.00005537
  373      -16.4239428406      -0.0000001612     0.999993    0.00005541
  374      -16.4239430020      -0.0000001614     0.999993    0.00005544
  375      -16.4239431637      -0.0000001617     0.999993    0.00005547
  376      -16.4239433257      -0.0000001619     0.999993    0.00005551
  377      -16.4239434879      -0.0000001622     0.999993    0.00005555
  378      -16.4239436503      -0.0000001625     0.999993    0.00005558
  379      -16.4239438130      -0.0000001627     0.999993    0.00005562
  380      -16.4239439760      -0.0000001630     0.999993    0.00005565
  381      -16.4239441393      -0.0000001632     0.999993    0.00005569
  382      -16.4239443028      -0.0000001635     0.999993    0.00005573
  383      -16.4239444665      -0.0000001638     0.999993    0.00005576
  384      -16.4239446306      -0.0000001640     0.999993    0.00005580
  385      -16.4239447949      -0.0000001643     0.999993    0.00005584
  386      -16.4239449595      -0.0000001646     0.999993    0.00005587
  387      -16.4239451244      -0.0000001649     0.999993    0.00005591
  388      -16.4239452895      -0.0000001651     0.999993    0.00005595
  389      -16.4239454549      -0.0000001654     0.999993    0.00005599
  390      -16.4239456206      -0.0000001657     0.999993    0.00005602
  391      -16.4239457866      -0.0000001660     0.999993    0.00005606
  392      -16.4239459528      -0.0000001663     0.999993    0.00005610
  393      -16.4239461194      -0.0000001665     0.999993    0.00005614
  394      -16.4239462862      -0.0000001668     0.999993    0.00005617
  395      -16.4239464533      -0.0000001671     0.999993    0.00005621
  396      -16.4239466207      -0.0000001674     0.999993    0.00005625
  397      -16.4239467883      -0.0000001677     0.999993    0.00005629
  398      -16.4239469563      -0.0000001680     0.999993    0.00005633
  399      -16.4239471246      -0.0000001682     0.999993    0.00005636
  400      -16.4239472931      -0.0000001685     0.999993    0.00005640
  401      -16.4239474619      -0.0000001688     0.999993    0.00005644
  402      -16.4239476310      -0.0000001691     0.999993    0.00005648
  403      -16.4239478004      -0.0000001694     0.999993    0.00005651
  404      -16.4239479701      -0.0000001697     0.999993    0.00005655
  405      -16.4239481401      -0.0000001700     0.999993    0.00005659
  406      -16.4239483104      -0.0000001703     0.999993    0.00005663
  407      -16.4239484809      -0.0000001706     0.999993    0.00005666
  408      -16.4239486518      -0.0000001709     0.999994    0.00005670
  409      -16.4239488229      -0.0000001711     0.999994    0.00005674
  410      -16.4239489944      -0.0000001714     0.999994    0.00005677
  411      -16.4239491661      -0.0000001717     0.999994    0.00005681
  412      -16.4239493381      -0.0000001720     0.999994    0.00005685
  413      -16.4239495104      -0.0000001723     0.999994    0.00005688
  414      -16.4239496830      -0.0000001726     0.999994    0.00005692
  415      -16.4239498559      -0.0000001729     0.999994    0.00005695
  416      -16.4239500291      -0.0000001732     0.999994    0.00005699
  417      -16.4239502025      -0.0000001735     0.999994    0.00005702
  418      -16.4239503763      -0.0000001737     0.999994    0.00005706
  419      -16.4239505503      -0.0000001740     0.999994    0.00005709
  420      -16.4239507246      -0.0000001743     0.999994    0.00005713
  421      -16.4239508992      -0.0000001746     0.999994    0.00005716
  422      -16.4239510741      -0.0000001749     0.999994    0.00005719
  423      -16.4239512493      -0.0000001752     0.999994    0.00005723
  424      -16.4239514247      -0.0000001754     0.999994    0.00005726
  425      -16.4239516004      -0.0000001757     0.999994    0.00005729
  426      -16.4239517764      -0.0000001760     0.999994    0.00005733
  427      -16.4239519527      -0.0000001763     0.999994    0.00005736
  428      -16.4239521293      -0.0000001766     0.999994    0.00005739
  429      -16.4239523061      -0.0000001768     0.999994    0.00005742
  430      -16.4239524832      -0.0000001771     0.999994    0.00005745
  431      -16.4239526606      -0.0000001774     0.999994    0.00005748
  432      -16.4239528382      -0.0000001776     0.999994    0.00005751
  433      -16.4239530161      -0.0000001779     0.999994    0.00005754
  434      -16.4239531942      -0.0000001782     0.999994    0.00005757
  435      -16.4239533727      -0.0000001784     0.999994    0.00005759
  436      -16.4239535513      -0.0000001787     0.999994    0.00005762
  437      -16.4239537303      -0.0000001789     0.999994    0.00005765
  438      -16.4239539095      -0.0000001792     0.999994    0.00005767
  439      -16.4239540889      -0.0000001794     0.999994    0.00005770
  440      -16.4239542686      -0.0000001797     0.999994    0.00005773
  441      -16.4239544485      -0.0000001799     0.999994    0.00005775
  442      -16.4239546287      -0.0000001802     0.999994    0.00005777
  443      -16.4239548091      -0.0000001804     0.999994    0.00005780
  444      -16.4239549897      -0.0000001806     0.999994    0.00005782
  445      -16.4239551706      -0.0000001809     0.999994    0.00005784
  446      -16.4239553517      -0.0000001811     0.999994    0.00005786
  447      -16.4239555330      -0.0000001813     0.999994    0.00005788
  448      -16.4239557146      -0.0000001815     0.999994    0.00005790
  449      -16.4239558964      -0.0000001818     0.999994    0.00005792
  450      -16.4239560783      -0.0000001820     0.999995    0.00005794
  451      -16.4239562605      -0.0000001822     0.999995    0.00005796
  452      -16.4239564429      -0.0000001824     0.999995    0.00005797
  453      -16.4239566255      -0.0000001826     0.999995    0.00005799
  454      -16.4239568083      -0.0000001828     0.999995    0.00005800
  455      -16.4239569913      -0.0000001830     0.999995    0.00005802
  456      -16.4239571745      -0.0000001832     0.999995    0.00005803
  457      -16.4239573578      -0.0000001834     0.999995    0.00005804
  458      -16.4239575414      -0.0000001835     0.999995    0.00005806
  459      -16.4239577251      -0.0000001837     0.999995    0.00005807
  460      -16.4239579089      -0.0000001839     0.999995    0.00005808
  461      -16.4239580930      -0.0000001840     0.999995    0.00005809
  462      -16.4239582772      -0.0000001842     0.999995    0.00005809
  463      -16.4239584615      -0.0000001844     0.999995    0.00005810
  464      -16.4239586460      -0.0000001845     0.999995    0.00005811
  465      -16.4239588307      -0.0000001846     0.999995    0.00005811
  466      -16.4239590155      -0.0000001848     0.999995    0.00005812
  467      -16.4239592004      -0.0000001849     0.999995    0.00005812
  468      -16.4239593854      -0.0000001850     0.999995    0.00005812
  469      -16.4239595706      -0.0000001852     0.999995    0.00005812
  470      -16.4239597559      -0.0000001853     0.999995    0.00005812
  471      -16.4239599413      -0.0000001854     0.999995    0.00005812
  472      -16.4239601268      -0.0000001855     0.999995    0.00005812
  473      -16.4239603123      -0.0000001856     0.999995    0.00005812
  474      -16.4239604980      -0.0000001857     0.999995    0.00005811
  475      -16.4239606838      -0.0000001858     0.999995    0.00005812
  476      -16.4239608696      -0.0000001858     0.999995    0.00005813
  477      -16.4239610555      -0.0000001859     0.999995    0.00005815
  478      -16.4239612415      -0.0000001860     0.999995    0.00005816
  479      -16.4239614275      -0.0000001860     0.999995    0.00005817
  480      -16.4239616136      -0.0000001861     0.999995    0.00005817
  481      -16.4239617997      -0.0000001861     0.999995    0.00005818
  482      -16.4239619858      -0.0000001861     0.999995    0.00005819
  483      -16.4239621720      -0.0000001862     0.999995    0.00005819
  484      -16.4239623582      -0.0000001862     0.999995    0.00005819
  485      -16.4239625444      -0.0000001862     0.999995    0.00005820
  486      -16.4239627306      -0.0000001862     0.999995    0.00005820
  487      -16.4239629168      -0.0000001862     0.999995    0.00005820
  488      -16.4239631030      -0.0000001862     0.999995    0.00005819
  489      -16.4239632891      -0.0000001862     0.999995    0.00005819
  490      -16.4239634753      -0.0000001861     0.999995    0.00005819
  491      -16.4239636614      -0.0000001861     0.999995    0.00005818
  492      -16.4239638475      -0.0000001861     0.999995    0.00005817
  493      -16.4239640335      -0.0000001860     0.999995    0.00005816
  494      -16.4239642195      -0.0000001860     0.999995    0.00005815
  495      -16.4239644053      -0.0000001859     0.999995    0.00005814
  496      -16.4239645912      -0.0000001858     0.999995    0.00005813
  497      -16.4239647769      -0.0000001857     0.999995    0.00005811
  498      -16.4239649625      -0.0000001856     0.999996    0.00005810
  499      -16.4239651480      -0.0000001855     0.999996    0.00005808
  500      -16.4239653335      -0.0000001854     0.999996    0.00005806
  501      -16.4239655188      -0.0000001853     0.999996    0.00005804
  502      -16.4239657039      -0.0000001852     0.999996    0.00005802
  503      -16.4239658890      -0.0000001850     0.999996    0.00005799
  504      -16.4239660739      -0.0000001849     0.999996    0.00005797
  505      -16.4239662586      -0.0000001847     0.999996    0.00005794
  506      -16.4239664432      -0.0000001846     0.999996    0.00005791
  507      -16.4239666275      -0.0000001844     0.999996    0.00005788
  508      -16.4239668117      -0.0000001842     0.999996    0.00005785
  509      -16.4239669958      -0.0000001840     0.999996    0.00005782
  510      -16.4239671796      -0.0000001838     0.999996    0.00005778
  511      -16.4239673632      -0.0000001836     0.999996    0.00005775
  512      -16.4239675465      -0.0000001834     0.999996    0.00005771
  513      -16.4239677297      -0.0000001831     0.999996    0.00005767
  514      -16.4239679126      -0.0000001829     0.999996    0.00005763
  515      -16.4239680952      -0.0000001826     0.999996    0.00005758
  516      -16.4239682776      -0.0000001824     0.999996    0.00005754
  517      -16.4239684597      -0.0000001821     0.999996    0.00005749
  518      -16.4239686416      -0.0000001818     0.999996    0.00005744
  519      -16.4239688231      -0.0000001815     0.999996    0.00005739
  520      -16.4239690043      -0.0000001812     0.999996    0.00005734
  521      -16.4239691853      -0.0000001809     0.999996    0.00005729
  522      -16.4239693659      -0.0000001806     0.999996    0.00005723
  523      -16.4239695462      -0.0000001803     0.999996    0.00005718
  524      -16.4239697261      -0.0000001799     0.999996    0.00005712
  525      -16.4239699057      -0.0000001796     0.999996    0.00005706
  526      -16.4239700849      -0.0000001792     0.999996    0.00005700
  527      -16.4239702638      -0.0000001789     0.999996    0.00005693
  528      -16.4239704423      -0.0000001785     0.999996    0.00005687
  529      -16.4239706204      -0.0000001781     0.999996    0.00005680
  530      -16.4239707981      -0.0000001777     0.999996    0.00005673
  531      -16.4239709753      -0.0000001773     0.999996    0.00005666
  532      -16.4239711522      -0.0000001769     0.999996    0.00005659
  533      -16.4239713286      -0.0000001764     0.999996    0.00005651
  534      -16.4239715046      -0.0000001760     0.999996    0.00005644
  535      -16.4239716801      -0.0000001755     0.999996    0.00005636
  536      -16.4239718552      -0.0000001751     0.999996    0.00005628
  537      -16.4239720298      -0.0000001746     0.999996    0.00005620
  538      -16.4239722039      -0.0000001741     0.999996    0.00005612
  539      -16.4239723776      -0.0000001736     0.999996    0.00005603
  540      -16.4239725507      -0.0000001731     0.999996    0.00005594
  541      -16.4239727233      -0.0000001726     0.999996    0.00005586
  542      -16.4239728954      -0.0000001721     0.999996    0.00005577
  543      -16.4239730670      -0.0000001716     0.999996    0.00005567
  544      -16.4239732380      -0.0000001710     0.999996    0.00005558
  545      -16.4239734085      -0.0000001705     0.999996    0.00005548
  546      -16.4239735784      -0.0000001699     0.999996    0.00005539
  547      -16.4239737477      -0.0000001693     0.999996    0.00005529
  548      -16.4239739165      -0.0000001688     0.999996    0.00005518
  549      -16.4239740847      -0.0000001682     0.999996    0.00005508
  550      -16.4239742522      -0.0000001676     0.999996    0.00005498
  551      -16.4239744192      -0.0000001670     0.999996    0.00005487
  552      -16.4239745856      -0.0000001664     0.999996    0.00005476
  553      -16.4239747513      -0.0000001657     0.999996    0.00005465
  554      -16.4239749164      -0.0000001651     0.999996    0.00005454
  555      -16.4239750808      -0.0000001644     0.999996    0.00005443
  556      -16.4239752446      -0.0000001638     0.999996    0.00005431
  557      -16.4239754078      -0.0000001631     0.999996    0.00005419
  558      -16.4239755702      -0.0000001625     0.999996    0.00005407
  559      -16.4239757320      -0.0000001618     0.999997    0.00005395
  560      -16.4239758931      -0.0000001611     0.999997    0.00005383
  561      -16.4239760535      -0.0000001604     0.999997    0.00005371
  562      -16.4239762131      -0.0000001597     0.999997    0.00005358
  563      -16.4239763721      -0.0000001590     0.999997    0.00005345
  564      -16.4239765304      -0.0000001582     0.999997    0.00005332
  565      -16.4239766879      -0.0000001575     0.999997    0.00005319
  566      -16.4239768446      -0.0000001568     0.999997    0.00005306
  567      -16.4239770007      -0.0000001560     0.999997    0.00005292
  568      -16.4239771559      -0.0000001553     0.999997    0.00005279
  569      -16.4239773104      -0.0000001545     0.999997    0.00005265
  570      -16.4239774642      -0.0000001537     0.999997    0.00005251
  571      -16.4239776171      -0.0000001530     0.999997    0.00005237
  572      -16.4239777693      -0.0000001522     0.999997    0.00005222
  573      -16.4239779206      -0.0000001514     0.999997    0.00005208
  574      -16.4239780712      -0.0000001506     0.999997    0.00005193
  575      -16.4239782210      -0.0000001498     0.999997    0.00005178
  576      -16.4239783699      -0.0000001489     0.999997    0.00005163
  577      -16.4239785180      -0.0000001481     0.999997    0.00005148
  578      -16.4239786653      -0.0000001473     0.999997    0.00005133
  579      -16.4239788118      -0.0000001465     0.999997    0.00005118
  580      -16.4239789574      -0.0000001456     0.999997    0.00005102
  581      -16.4239791022      -0.0000001448     0.999997    0.00005086
  582      -16.4239792461      -0.0000001439     0.999997    0.00005070
  583      -16.4239793892      -0.0000001431     0.999997    0.00005054
  584      -16.4239795313      -0.0000001422     0.999997    0.00005038
  585      -16.4239796727      -0.0000001413     0.999997    0.00005022
  586      -16.4239798131      -0.0000001404     0.999997    0.00005005
  587      -16.4239799527      -0.0000001396     0.999997    0.00004989
  588      -16.4239800913      -0.0000001387     0.999997    0.00004972
  589      -16.4239802291      -0.0000001378     0.999997    0.00004955
  590      -16.4239803660      -0.0000001369     0.999997    0.00004938
  591      -16.4239805020      -0.0000001360     0.999997    0.00004921
  592      -16.4239806370      -0.0000001351     0.999997    0.00004903
  593      -16.4239807712      -0.0000001342     0.999997    0.00004886
  594      -16.4239809044      -0.0000001332     0.999997    0.00004868
  595      -16.4239810367      -0.0000001323     0.999997    0.00004851
  596      -16.4239811681      -0.0000001314     0.999997    0.00004833
  597      -16.4239812986      -0.0000001305     0.999997    0.00004815
  598      -16.4239814282      -0.0000001295     0.999997    0.00004797
  599      -16.4239815568      -0.0000001286     0.999997    0.00004778
  600      -16.4239816844      -0.0000001277     0.999997    0.00004760
  601      -16.4239818111      -0.0000001267     0.999997    0.00004741
  602      -16.4239819369      -0.0000001258     0.999997    0.00004723
  603      -16.4239820618      -0.0000001248     0.999997    0.00004704
  604      -16.4239821856      -0.0000001239     0.999997    0.00004685
  605      -16.4239823086      -0.0000001229     0.999997    0.00004666
  606      -16.4239824305      -0.0000001220     0.999997    0.00004647
  607      -16.4239825516      -0.0000001210     0.999997    0.00004628
  608      -16.4239826716      -0.0000001201     0.999997    0.00004609
  609      -16.4239827907      -0.0000001191     0.999997    0.00004589
  610      -16.4239829089      -0.0000001181     0.999997    0.00004570
  611      -16.4239830260      -0.0000001172     0.999997    0.00004550
  612      -16.4239831422      -0.0000001162     0.999997    0.00004531
  613      -16.4239832575      -0.0000001152     0.999997    0.00004511
  614      -16.4239833717      -0.0000001143     0.999997    0.00004491
  615      -16.4239834851      -0.0000001133     0.999997    0.00004471
  616      -16.4239835974      -0.0000001123     0.999997    0.00004451
  617      -16.4239837088      -0.0000001114     0.999997    0.00004431
  618      -16.4239838192      -0.0000001104     0.999997    0.00004411
  619      -16.4239839286      -0.0000001094     0.999997    0.00004390
  620      -16.4239840371      -0.0000001085     0.999997    0.00004370
  621      -16.4239841445      -0.0000001075     0.999997    0.00004350
  622      -16.4239842511      -0.0000001065     0.999997    0.00004329
  623      -16.4239843566      -0.0000001056     0.999997    0.00004308
  624      -16.4239844612      -0.0000001046     0.999997    0.00004288
  625      -16.4239845648      -0.0000001036     0.999997    0.00004267
  626      -16.4239846675      -0.0000001027     0.999997    0.00004246
  627      -16.4239847692      -0.0000001017     0.999997    0.00004225
  628      -16.4239848699      -0.0000001007     0.999997    0.00004204
  629      -16.4239849696      -0.0000000998     0.999997    0.00004183
  630      -16.4239850684      -0.0000000988     0.999997    0.00004162
  631      -16.4239851663      -0.0000000978     0.999997    0.00004141
  632      -16.4239852632      -0.0000000969     0.999997    0.00004120
  633      -16.4239853591      -0.0000000959     0.999997    0.00004099
  634      -16.4239854540      -0.0000000950     0.999997    0.00004077
  635      -16.4239855481      -0.0000000940     0.999997    0.00004056
  636      -16.4239856411      -0.0000000931     0.999997    0.00004035
  637      -16.4239857333      -0.0000000921     0.999997    0.00004013
  638      -16.4239858244      -0.0000000912     0.999997    0.00003992
  639      -16.4239859147      -0.0000000902     0.999997    0.00003970
  640      -16.4239860040      -0.0000000893     0.999997    0.00003949
  641      -16.4239860924      -0.0000000884     0.999997    0.00003927
  642      -16.4239861798      -0.0000000874     0.999997    0.00003906
  643      -16.4239862663      -0.0000000865     0.999997    0.00003884
  644      -16.4239863519      -0.0000000856     0.999997    0.00003862
  645      -16.4239864365      -0.0000000847     0.999997    0.00003841
  646      -16.4239865203      -0.0000000837     0.999997    0.00003819
  647      -16.4239866031      -0.0000000828     0.999997    0.00003797
  648      -16.4239866850      -0.0000000819     0.999997    0.00003776
  649      -16.4239867660      -0.0000000810     0.999997    0.00003754
  650      -16.4239868461      -0.0000000801     0.999997    0.00003732
  651      -16.4239869253      -0.0000000792     0.999997    0.00003710
  652      -16.4239870037      -0.0000000783     0.999997    0.00003689
  653      -16.4239870811      -0.0000000774     0.999997    0.00003667
  654      -16.4239871576      -0.0000000765     0.999997    0.00003645
  655      -16.4239872333      -0.0000000757     0.999997    0.00003623
  656      -16.4239873081      -0.0000000748     0.999997    0.00003601
  657      -16.4239873820      -0.0000000739     0.999997    0.00003580
  658      -16.4239874550      -0.0000000730     0.999998    0.00003558
  659      -16.4239875272      -0.0000000722     0.999998    0.00003536
  660      -16.4239875985      -0.0000000713     0.999998    0.00003514
  661      -16.4239876690      -0.0000000705     0.999998    0.00003493
  662      -16.4239877386      -0.0000000696     0.999998    0.00003471
  663      -16.4239878074      -0.0000000688     0.999998    0.00003449
  664      -16.4239878754      -0.0000000680     0.999998    0.00003427
  665      -16.4239879425      -0.0000000671     0.999998    0.00003406
  666      -16.4239880088      -0.0000000663     0.999998    0.00003384
  667      -16.4239880743      -0.0000000655     0.999998    0.00003362
  668      -16.4239881390      -0.0000000647     0.999998    0.00003341
  669      -16.4239882028      -0.0000000639     0.999998    0.00003319
  670      -16.4239882659      -0.0000000631     0.999998    0.00003298
  671      -16.4239883282      -0.0000000623     0.999998    0.00003276
  672      -16.4239883896      -0.0000000615     0.999998    0.00003254
  673      -16.4239884503      -0.0000000607     0.999998    0.00003233
  674      -16.4239885102      -0.0000000599     0.999998    0.00003212
  675      -16.4239885694      -0.0000000591     0.999998    0.00003190
  676      -16.4239886277      -0.0000000584     0.999998    0.00003169
  677      -16.4239886853      -0.0000000576     0.999998    0.00003147
  678      -16.4239887422      -0.0000000569     0.999998    0.00003126
  679      -16.4239887983      -0.0000000561     0.999998    0.00003105
  680      -16.4239888537      -0.0000000554     0.999998    0.00003084
  681      -16.4239889083      -0.0000000546     0.999998    0.00003062
  682      -16.4239889622      -0.0000000539     0.999998    0.00003041
  683      -16.4239890154      -0.0000000532     0.999998    0.00003020
  684      -16.4239890678      -0.0000000525     0.999998    0.00002999
  685      -16.4239891196      -0.0000000517     0.999998    0.00002978
  686      -16.4239891706      -0.0000000510     0.999998    0.00002957
  687      -16.4239892209      -0.0000000503     0.999998    0.00002936
  688      -16.4239892706      -0.0000000497     0.999998    0.00002916
  689      -16.4239893196      -0.0000000490     0.999998    0.00002895
  690      -16.4239893679      -0.0000000483     0.999998    0.00002874
  691      -16.4239894155      -0.0000000476     0.999998    0.00002853
  692      -16.4239894624      -0.0000000469     0.999998    0.00002833
  693      -16.4239895087      -0.0000000463     0.999998    0.00002812
  694      -16.4239895543      -0.0000000456     0.999998    0.00002792
  695      -16.4239895993      -0.0000000450     0.999998    0.00002772
  696      -16.4239896437      -0.0000000443     0.999998    0.00002751
  697      -16.4239896874      -0.0000000437     0.999998    0.00002731
  698      -16.4239897305      -0.0000000431     0.999998    0.00002711
  699      -16.4239897729      -0.0000000425     0.999998    0.00002691
  700      -16.4239898148      -0.0000000419     0.999998    0.00002671
  701      -16.4239898560      -0.0000000412     0.999998    0.00002651
  702      -16.4239898967      -0.0000000406     0.999998    0.00002631
  703      -16.4239899367      -0.0000000400     0.999998    0.00002611
  704      -16.4239899762      -0.0000000395     0.999998    0.00002591
  705      -16.4239900151      -0.0000000389     0.999998    0.00002571
  706      -16.4239900534      -0.0000000383     0.999998    0.00002552
  707      -16.4239900911      -0.0000000377     0.999998    0.00002532
  708      -16.4239901283      -0.0000000372     0.999998    0.00002513
  709      -16.4239901649      -0.0000000366     0.999998    0.00002494
  710      -16.4239902009      -0.0000000361     0.999998    0.00002474
  711      -16.4239902364      -0.0000000355     0.999998    0.00002455
  712      -16.4239902714      -0.0000000350     0.999998    0.00002436
  713      -16.4239903058      -0.0000000344     0.999998    0.00002417
  714      -16.4239903398      -0.0000000339     0.999998    0.00002398
  715      -16.4239903732      -0.0000000334     0.999998    0.00002379
  716      -16.4239904060      -0.0000000329     0.999998    0.00002360
  717      -16.4239904384      -0.0000000324     0.999998    0.00002342
  718      -16.4239904703      -0.0000000319     0.999998    0.00002323
  719      -16.4239905017      -0.0000000314     0.999998    0.00002305
  720      -16.4239905326      -0.0000000309     0.999998    0.00002286
  721      -16.4239905630      -0.0000000304     0.999998    0.00002268
  722      -16.4239905929      -0.0000000299     0.999998    0.00002250
  723      -16.4239906224      -0.0000000295     0.999998    0.00002231
  724      -16.4239906514      -0.0000000290     0.999998    0.00002213
  725      -16.4239906799      -0.0000000285     0.999998    0.00002195
  726      -16.4239907080      -0.0000000281     0.999998    0.00002178
  727      -16.4239907356      -0.0000000276     0.999998    0.00002160
  728      -16.4239907628      -0.0000000272     0.999998    0.00002142
  729      -16.4239907896      -0.0000000268     0.999998    0.00002125
  730      -16.4239908159      -0.0000000263     0.999998    0.00002107
  731      -16.4239908418      -0.0000000259     0.999998    0.00002090
  732      -16.4239908673      -0.0000000255     0.999998    0.00002072
  733      -16.4239908923      -0.0000000251     0.999998    0.00002055
  734      -16.4239909170      -0.0000000247     0.999998    0.00002038
  735      -16.4239909413      -0.0000000243     0.999998    0.00002021
  736      -16.4239909651      -0.0000000239     0.999998    0.00002004
  737      -16.4239909886      -0.0000000235     0.999998    0.00001987
  738      -16.4239910117      -0.0000000231     0.999998    0.00001970
  739      -16.4239910344      -0.0000000227     0.999998    0.00001954
  740      -16.4239910567      -0.0000000223     0.999998    0.00001937
  741      -16.4239910786      -0.0000000220     0.999998    0.00001921
  742      -16.4239911002      -0.0000000216     0.999998    0.00001904
  743      -16.4239911215      -0.0000000212     0.999998    0.00001888
  744      -16.4239911423      -0.0000000209     0.999998    0.00001872
  745      -16.4239911628      -0.0000000205     0.999998    0.00001856
  746      -16.4239911830      -0.0000000202     0.999998    0.00001840
  747      -16.4239912029      -0.0000000198     0.999998    0.00001824
  748      -16.4239912224      -0.0000000195     0.999998    0.00001808
  749      -16.4239912415      -0.0000000192     0.999998    0.00001793
  750      -16.4239912604      -0.0000000188     0.999998    0.00001777
  751      -16.4239912789      -0.0000000185     0.999998    0.00001762
  752      -16.4239912971      -0.0000000182     0.999998    0.00001746
  753      -16.4239913150      -0.0000000179     0.999998    0.00001731
  754      -16.4239913326      -0.0000000176     0.999998    0.00001716
  755      -16.4239913499      -0.0000000173     0.999998    0.00001701
  756      -16.4239913669      -0.0000000170     0.999998    0.00001686
  757      -16.4239913835      -0.0000000167     0.999998    0.00001671
  758      -16.4239913999      -0.0000000164     0.999998    0.00001656
  759      -16.4239914161      -0.0000000161     0.999998    0.00001642
  760      -16.4239914319      -0.0000000158     0.999998    0.00001627
  761      -16.4239914475      -0.0000000156     0.999998    0.00001613
  762      -16.4239914628      -0.0000000153     0.999998    0.00001598
  763      -16.4239914778      -0.0000000150     0.999998    0.00001584
  764      -16.4239914925      -0.0000000148     0.999998    0.00001570
  765      -16.4239915070      -0.0000000145     0.999998    0.00001556
  766      -16.4239915213      -0.0000000142     0.999998    0.00001542
  767      -16.4239915353      -0.0000000140     0.999998    0.00001528
  768      -16.4239915490      -0.0000000137     0.999998    0.00001514
  769      -16.4239915625      -0.0000000135     0.999998    0.00001500
  770      -16.4239915758      -0.0000000133     0.999998    0.00001487
  771      -16.4239915888      -0.0000000130     0.999998    0.00001473
  772      -16.4239916016      -0.0000000128     0.999998    0.00001460
  773      -16.4239916141      -0.0000000126     0.999998    0.00001447
  774      -16.4239916265      -0.0000000123     0.999998    0.00001433
  775      -16.4239916386      -0.0000000121     0.999998    0.00001420
  776      -16.4239916505      -0.0000000119     0.999998    0.00001407
  777      -16.4239916622      -0.0000000117     0.999998    0.00001394
  778      -16.4239916736      -0.0000000115     0.999998    0.00001382
  779      -16.4239916849      -0.0000000113     0.999998    0.00001369
  780      -16.4239916960      -0.0000000111     0.999998    0.00001357
  781      -16.4239917068      -0.0000000109     0.999998    0.00001344
  782      -16.4239917175      -0.0000000107     0.999998    0.00001332
  783      -16.4239917280      -0.0000000105     0.999998    0.00001320
  784      -16.4239917382      -0.0000000103     0.999998    0.00001307
  785      -16.4239917483      -0.0000000101     0.999998    0.00001295
  786      -16.4239917582      -0.0000000099     0.999998    0.00001283
  787      -16.4239917679      -0.0000000097     0.999998    0.00001271
  788      -16.4239917775      -0.0000000095     0.999998    0.00001260
  789      -16.4239917869      -0.0000000094     0.999998    0.00001248
  790      -16.4239917960      -0.0000000092     0.999998    0.00001236
  791      -16.4239918051      -0.0000000090     0.999998    0.00001225
  792      -16.4239918139      -0.0000000089     0.999998    0.00001213
  793      -16.4239918226      -0.0000000087     0.999998    0.00001202
  794      -16.4239918312      -0.0000000085     0.999998    0.00001191
  795      -16.4239918395      -0.0000000084     0.999998    0.00001180
  796      -16.4239918477      -0.0000000082     0.999998    0.00001168
  797      -16.4239918558      -0.0000000081     0.999998    0.00001157
  798      -16.4239918637      -0.0000000079     0.999998    0.00001147
  799      -16.4239918715      -0.0000000078     0.999998    0.00001136
  800      -16.4239918791      -0.0000000076     0.999998    0.00001125
  801      -16.4239918866      -0.0000000075     0.999998    0.00001114
  802      -16.4239918939      -0.0000000073     0.999998    0.00001104
  803      -16.4239919011      -0.0000000072     0.999998    0.00001093
  804      -16.4239919082      -0.0000000071     0.999998    0.00001083
  805      -16.4239919151      -0.0000000069     0.999998    0.00001073
  806      -16.4239919219      -0.0000000068     0.999998    0.00001062
  807      -16.4239919286      -0.0000000067     0.999998    0.00001052
  808      -16.4239919351      -0.0000000065     0.999998    0.00001042
  809      -16.4239919415      -0.0000000064     0.999998    0.00001032
  810      -16.4239919478      -0.0000000063     0.999998    0.00001022
  811      -16.4239919540      -0.0000000062     0.999998    0.00001013
  812      -16.4239919601      -0.0000000061     0.999998    0.00001003
  813      -16.4239919660      -0.0000000059     0.999998    0.00000993
  814      -16.4239919718      -0.0000000058     0.999998    0.00000984
  815      -16.4239919776      -0.0000000057     0.999998    0.00000974
  816      -16.4239919832      -0.0000000056     0.999998    0.00000965
  817      -16.4239919887      -0.0000000055     0.999998    0.00000955
  818      -16.4239919941      -0.0000000054     0.999998    0.00000946
  819      -16.4239919994      -0.0000000053     0.999998    0.00000937
  820      -16.4239920046      -0.0000000052     0.999998    0.00000928
  821      -16.4239920096      -0.0000000051     0.999998    0.00000919
  822      -16.4239920146      -0.0000000050     0.999998    0.00000910
  823      -16.4239920195      -0.0000000049     0.999998    0.00000901
  824      -16.4239920243      -0.0000000048     0.999998    0.00000892
  825      -16.4239920290      -0.0000000047     0.999998    0.00000884
  826      -16.4239920337      -0.0000000046     0.999998    0.00000875
  827      -16.4239920382      -0.0000000045     0.999998    0.00000866
  828      -16.4239920426      -0.0000000044     0.999998    0.00000858
  829      -16.4239920470      -0.0000000044     0.999998    0.00000849
  830      -16.4239920512      -0.0000000043     0.999998    0.00000841
  831      -16.4239920554      -0.0000000042     0.999998    0.00000833
  832      -16.4239920595      -0.0000000041     0.999998    0.00000825
  833      -16.4239920636      -0.0000000040     0.999998    0.00000817
  834      -16.4239920675      -0.0000000039     0.999998    0.00000809
  835      -16.4239920714      -0.0000000039     0.999998    0.00000801
  836      -16.4239920752      -0.0000000038     0.999998    0.00000793
  837      -16.4239920789      -0.0000000037     0.999998    0.00000785
  838      -16.4239920825      -0.0000000036     0.999998    0.00000777
  839      -16.4239920861      -0.0000000036     0.999998    0.00000769
  840      -16.4239920896      -0.0000000035     0.999998    0.00000762
  841      -16.4239920930      -0.0000000034     0.999998    0.00000754
  842      -16.4239920964      -0.0000000034     0.999998    0.00000747
  843      -16.4239920997      -0.0000000033     0.999998    0.00000739
  844      -16.4239921029      -0.0000000032     0.999998    0.00000732
  845      -16.4239921061      -0.0000000032     0.999998    0.00000725
  846      -16.4239921092      -0.0000000031     0.999998    0.00000717
  847      -16.4239921122      -0.0000000030     0.999998    0.00000710
  848      -16.4239921152      -0.0000000030     0.999998    0.00000703
  849      -16.4239921182      -0.0000000029     0.999998    0.00000696
  850      -16.4239921210      -0.0000000029     0.999998    0.00000689
  851      -16.4239921238      -0.0000000028     0.999998    0.00000682
  852      -16.4239921266      -0.0000000028     0.999998    0.00000675
  853      -16.4239921293      -0.0000000027     0.999998    0.00000669
  854      -16.4239921319      -0.0000000026     0.999998    0.00000662
  855      -16.4239921345      -0.0000000026     0.999998    0.00000655
  856      -16.4239921371      -0.0000000025     0.999998    0.00000649
  857      -16.4239921396      -0.0000000025     0.999998    0.00000642
  858      -16.4239921420      -0.0000000024     0.999998    0.00000636
  859      -16.4239921444      -0.0000000024     0.999998    0.00000629
  860      -16.4239921467      -0.0000000023     0.999998    0.00000623
  861      -16.4239921490      -0.0000000023     0.999998    0.00000617
  862      -16.4239921513      -0.0000000023     0.999998    0.00000610
  863      -16.4239921535      -0.0000000022     0.999998    0.00000604
  864      -16.4239921557      -0.0000000022     0.999998    0.00000598
  865      -16.4239921578      -0.0000000021     0.999998    0.00000592
  866      -16.4239921599      -0.0000000021     0.999998    0.00000586
  867      -16.4239921619      -0.0000000020     0.999998    0.00000580
  868      -16.4239921639      -0.0000000020     0.999998    0.00000574
  869      -16.4239921658      -0.0000000020     0.999998    0.00000568
  870      -16.4239921678      -0.0000000019     0.999998    0.00000563
  871      -16.4239921696      -0.0000000019     0.999998    0.00000557
  872      -16.4239921715      -0.0000000018     0.999998    0.00000551
  873      -16.4239921733      -0.0000000018     0.999998    0.00000546
  874      -16.4239921750      -0.0000000018     0.999998    0.00000540
  875      -16.4239921768      -0.0000000017     0.999998    0.00000535
  876      -16.4239921784      -0.0000000017     0.999998    0.00000529
  877      -16.4239921801      -0.0000000017     0.999998    0.00000524
  878      -16.4239921817      -0.0000000016     0.999998    0.00000518
  879      -16.4239921833      -0.0000000016     0.999998    0.00000513
  880      -16.4239921849      -0.0000000016     0.999998    0.00000508
  881      -16.4239921864      -0.0000000015     0.999998    0.00000503
  882      -16.4239921879      -0.0000000015     0.999998    0.00000497
  883      -16.4239921894      -0.0000000015     0.999998    0.00000492
  884      -16.4239921908      -0.0000000014     0.999998    0.00000487
  885      -16.4239921922      -0.0000000014     0.999998    0.00000482
  886      -16.4239921936      -0.0000000014     0.999998    0.00000477
  887      -16.4239921949      -0.0000000014     0.999998    0.00000472
  888      -16.4239921963      -0.0000000013     0.999998    0.00000468
  889      -16.4239921976      -0.0000000013     0.999998    0.00000463
  890      -16.4239921988      -0.0000000013     0.999998    0.00000458
  891      -16.4239922001      -0.0000000012     0.999998    0.00000453
  892      -16.4239922013      -0.0000000012     0.999998    0.00000449
  893      -16.4239922025      -0.0000000012     0.999998    0.00000444
  894      -16.4239922037      -0.0000000012     0.999998    0.00000439
  895      -16.4239922048      -0.0000000011     0.999998    0.00000435
  896      -16.4239922059      -0.0000000011     0.999998    0.00000430
  897      -16.4239922070      -0.0000000011     0.999998    0.00000426
  898      -16.4239922081      -0.0000000011     0.999998    0.00000422
  899      -16.4239922092      -0.0000000011     0.999998    0.00000417
  900      -16.4239922102      -0.0000000010     0.999998    0.00000413
  901      -16.4239922112      -0.0000000010     0.999998    0.00000409
  902      -16.4239922122      -0.0000000010     0.999998    0.00000404
  903      -16.4239922132      -0.0000000010     0.999998    0.00000400
  904      -16.4239922141      -0.0000000009     0.999998    0.00000396
  905      -16.4239922150      -0.0000000009     0.999998    0.00000392
  906      -16.4239922159      -0.0000000009     0.999998    0.00000388
  907      -16.4239922168      -0.0000000009     0.999998    0.00000384
  908      -16.4239922177      -0.0000000009     0.999998    0.00000380
  909      -16.4239922186      -0.0000000009     0.999998    0.00000376
  910      -16.4239922194      -0.0000000008     0.999998    0.00000372
  911      -16.4239922202      -0.0000000008     0.999998    0.00000368
  912      -16.4239922210      -0.0000000008     0.999998    0.00000364
  913      -16.4239922218      -0.0000000008     0.999998    0.00000361
  914      -16.4239922226      -0.0000000008     0.999998    0.00000357
  915      -16.4239922233      -0.0000000008     0.999998    0.00000353
  916      -16.4239922241      -0.0000000007     0.999998    0.00000349
  917      -16.4239922248      -0.0000000007     0.999998    0.00000346
  918      -16.4239922255      -0.0000000007     0.999998    0.00000342
  919      -16.4239922262      -0.0000000007     0.999998    0.00000339
  920      -16.4239922269      -0.0000000007     0.999998    0.00000335
  921      -16.4239922276      -0.0000000007     0.999998    0.00000332
  922      -16.4239922282      -0.0000000007     0.999998    0.00000328
  923      -16.4239922288      -0.0000000006     0.999998    0.00000325
  924      -16.4239922295      -0.0000000006     0.999998    0.00000321
  925      -16.4239922301      -0.0000000006     0.999998    0.00000318
  926      -16.4239922307      -0.0000000006     0.999998    0.00000315
  927      -16.4239922313      -0.0000000006     0.999998    0.00000311
  928      -16.4239922318      -0.0000000006     0.999998    0.00000308
  929      -16.4239922324      -0.0000000006     0.999998    0.00000305
  930      -16.4239922330      -0.0000000006     0.999998    0.00000302
  931      -16.4239922335      -0.0000000005     0.999998    0.00000298
  932      -16.4239922340      -0.0000000005     0.999998    0.00000295
  933      -16.4239922345      -0.0000000005     0.999998    0.00000292
  934      -16.4239922350      -0.0000000005     0.999998    0.00000289
  935      -16.4239922355      -0.0000000005     0.999998    0.00000286
  936      -16.4239922360      -0.0000000005     0.999998    0.00000283
  937      -16.4239922365      -0.0000000005     0.999998    0.00000280
  938      -16.4239922370      -0.0000000005     0.999998    0.00000277
  939      -16.4239922374      -0.0000000005     0.999998    0.00000274
  940      -16.4239922379      -0.0000000004     0.999998    0.00000271
  941      -16.4239922383      -0.0000000004     0.999998    0.00000269
  942      -16.4239922387      -0.0000000004     0.999998    0.00000266
  943      -16.4239922392      -0.0000000004     0.999998    0.00000263
  944      -16.4239922396      -0.0000000004     0.999998    0.00000260
  945      -16.4239922400      -0.0000000004     0.999998    0.00000257
  946      -16.4239922404      -0.0000000004     0.999998    0.00000255
  947      -16.4239922407      -0.0000000004     0.999998    0.00000252
  948      -16.4239922411      -0.0000000004     0.999998    0.00000249
  949      -16.4239922415      -0.0000000004     0.999998    0.00000247
  950      -16.4239922419      -0.0000000004     0.999998    0.00000244
  951      -16.4239922422      -0.0000000004     0.999998    0.00000242
  952      -16.4239922425      -0.0000000003     0.999998    0.00000239
  953      -16.4239922429      -0.0000000003     0.999998    0.00000236
  954      -16.4239922432      -0.0000000003     0.999998    0.00000234
  955      -16.4239922435      -0.0000000003     0.999998    0.00000232
  956      -16.4239922439      -0.0000000003     0.999998    0.00000229
  957      -16.4239922442      -0.0000000003     0.999998    0.00000227
  958      -16.4239922445      -0.0000000003     0.999998    0.00000224
  959      -16.4239922448      -0.0000000003     0.999998    0.00000222
  960      -16.4239922451      -0.0000000003     0.999998    0.00000220
  961      -16.4239922454      -0.0000000003     0.999998    0.00000217
  962      -16.4239922456      -0.0000000003     0.999998    0.00000215
  963      -16.4239922459      -0.0000000003     0.999998    0.00000213
  964      -16.4239922462      -0.0000000003     0.999998    0.00000210
  965      -16.4239922464      -0.0000000003     0.999998    0.00000208
  966      -16.4239922467      -0.0000000003     0.999998    0.00000206
  967      -16.4239922469      -0.0000000003     0.999998    0.00000204
  968      -16.4239922472      -0.0000000002     0.999998    0.00000202
  969      -16.4239922474      -0.0000000002     0.999998    0.00000199
  970      -16.4239922477      -0.0000000002     0.999998    0.00000197
  971      -16.4239922479      -0.0000000002     0.999998    0.00000195
  972      -16.4239922481      -0.0000000002     0.999998    0.00000193
  973      -16.4239922484      -0.0000000002     0.999998    0.00000191
  974      -16.4239922486      -0.0000000002     0.999998    0.00000189
  975      -16.4239922488      -0.0000000002     0.999998    0.00000187
  976      -16.4239922490      -0.0000000002     0.999998    0.00000185
  977      -16.4239922492      -0.0000000002     0.999998    0.00000183
  978      -16.4239922494      -0.0000000002     0.999998    0.00000181
  979      -16.4239922496      -0.0000000002     0.999998    0.00000179
  980      -16.4239922498      -0.0000000002     0.999998    0.00000177
  981      -16.4239922500      -0.0000000002     0.999998    0.00000175
  982      -16.4239922501      -0.0000000002     0.999998    0.00000174
  983      -16.4239922503      -0.0000000002     0.999998    0.00000172
  984      -16.4239922505      -0.0000000002     0.999998    0.00000170
  985      -16.4239922507      -0.0000000002     0.999998    0.00000168
  986      -16.4239922508      -0.0000000002     0.999998    0.00000166
  987      -16.4239922510      -0.0000000002     0.999998    0.00000165
  988      -16.4239922512      -0.0000000002     0.999998    0.00000163
  989      -16.4239922513      -0.0000000002     0.999998    0.00000161
  990      -16.4239922515      -0.0000000002     0.999998    0.00000159
  991      -16.4239922516      -0.0000000002     0.999998    0.00000158
  992      -16.4239922518      -0.0000000001     0.999998    0.00000156
  993      -16.4239922519      -0.0000000001     0.999998    0.00000154
  994      -16.4239922521      -0.0000000001     0.999998    0.00000153
  995      -16.4239922522      -0.0000000001     0.999998    0.00000151
  996      -16.4239922523      -0.0000000001     0.999998    0.00000149
  997      -16.4239922525      -0.0000000001     0.999998    0.00000148
  998      -16.4239922526      -0.0000000001     0.999998    0.00000146
  999      -16.4239922527      -0.0000000001     0.999998    0.00000145
 1000      -16.4239922528      -0.0000000001     0.999998    0.00000143

Total Energy:                      -16.4239922528 H         -446.9196 eV
Extrapolated to 0:                 -16.3907778793 H         -446.0158 eV

----------------------------------------------------------------------------------
 Solving CP-REKS equation for  1 state vector...
----------------------------------------------------------------------------------
  CG solver: Constructing Y initial guess
  CG solver: Iteration    1    eps =    0.113599484906
  CG solver: Iteration    2    eps =    0.014992789061
  CG solver: Iteration    3    eps =    0.003866143075
  CG solver: Iteration    4    eps =    0.003436972876
  CG solver: Iteration    5    eps =    0.002506318744
  CG solver: Iteration    6    eps =    0.003773814621
  CG solver: Iteration    7    eps =    0.006619821799
  CG solver: Iteration    8    eps =    0.002110864277
  CG solver: Iteration    9    eps =    0.000177512435
  CG solver: Iteration   10    eps =    0.000046287173
  CG solver: Iteration   11    eps =    0.000009819395
  CG solver: Iteration   12    eps =    0.000001180655
  CG solver: Iteration   13    eps =    0.000000089185
  CG solver: Iteration   14    eps =    0.000000015992
  CG solver: Iteration   15    eps =    0.000000001755
  Convergence reached in CG solver after   15 iterations
  CG solver: Calculating converged R, Z, Q2 matrix
----------------------------------------------------------------------------------

----------------------------------------------------------------------------------
 Solving CP-REKS equation for SI between  1 and  2 state vectors...
----------------------------------------------------------------------------------
  CG solver: Constructing Y initial guess
  CG solver: Iteration    1    eps =    0.033030036290
  CG solver: Iteration    2    eps =    0.000916165181
  CG solver: Iteration    3    eps =    0.000718466944
  CG solver: Iteration    4    eps =    0.003378875383
  CG solver: Iteration    5    eps =    0.002677093160
  CG solver: Iteration    6    eps =    0.001848369226
  CG solver: Iteration    7    eps =    0.000618606899
  CG solver: Iteration    8    eps =    0.000057637497
  CG solver: Iteration    9    eps =    0.000010164324
  CG solver: Iteration   10    eps =    0.000002925706
  CG solver: Iteration   11    eps =    0.000000271360
  CG solver: Iteration   12    eps =    0.000000024129
  CG solver: Iteration   13    eps =    0.000000003162
  Convergence reached in CG solver after   13 iterations
  CG solver: Calculating converged R, Z, Q2 matrix
----------------------------------------------------------------------------------

--------------------------------------------------
 Gradient Information
--------------------------------------------------
           1 st state (SSR)
     0.00000000     0.00000000     0.00000000
     0.00000000     0.00000000     0.00000000
     0.00000000     0.00000000     0.00000000
     0.00000000     0.00000000     0.00000000
     0.00000000     0.00000000     0.00000000
     0.00000000     0.00000000     0.00000000
     0.00000000     0.00000000     0.00000000
     0.00000000     0.00000000     0.00000000
     0.00000000     0.00000000     0.00000000
     0.00000000     0.00000000     0.00000000
     0.00000000     0.00000000     0.00000000
     0.00000000     0.00000000     0.00000000
     0.00000000     0.00000000     0.00000000
     0.00000000     0.00000000     0.00000000

           2 st state (SSR)
     0.00000000     0.00000000     0.00000000
     0.00000000     0.00000000     0.00000000
     0.00000000     0.00000000     0.00000000
     0.00000000     0.00000000     0.00000000
     0.00000000     0.00000000     0.00000000
     0.00000000     0.00000000     0.00000000
     0.00000000     0.00000000     0.00000000
     0.00000000     0.00000000     0.00000000
     0.00000000     0.00000000     0.00000000
     0.00000000     0.00000000     0.00000000
     0.00000000     0.00000000     0.00000000
     0.00000000     0.00000000     0.00000000
     0.00000000     0.00000000     0.00000000
     0.00000000     0.00000000     0.00000000
--------------------------------------------------
 Coupling Information
--------------------------------------------------
 between  1 and  2 states
--------------------------------------------------
 g vector - difference gradient
    -0.13529439    -0.06436959     0.09749101
     0.38870199     0.38203093    -0.59260069
    -0.03382730    -0.07733931    -0.06654802
    -0.02284342    -0.04767283     0.04968136
     0.12363923    -0.02424110     0.07801767
    -0.96849846    -0.36192749     0.28253724
     0.67200003     0.46030564     0.36407543
     0.13279159    -0.04833101     0.04328040
    -0.04438651    -0.13993206     0.01806663
    -0.21325351    -0.19387744    -0.38576428
    -0.09685616     0.00796319     0.00243577
     0.09593411     0.11148150     0.12010343
     0.01710584     0.02123524    -0.00978582
     0.08478694    -0.02532568    -0.00099014

 h vector - derivative coupling
     0.06171635     0.08859548     0.01042257
    -0.11555995    -0.13723277     0.00210938
    -0.01137017     0.00463919    -0.03643078
     0.00445301    -0.01450925     0.00909345
     0.01417975     0.02724812     0.01061370
     0.12958154     0.07933375     0.01748662
    -0.07394745    -0.04028924     0.02710968
    -0.00993885    -0.00750193     0.00177129
     0.00613542    -0.00077372     0.00076016
     0.02821645     0.01326110    -0.04993213
    -0.02280381    -0.00002877     0.00281958
    -0.01169965    -0.00937950     0.00535695
    -0.00159089     0.00349072    -0.00196197
     0.00262825    -0.00685319     0.00078150

 G vector - GDV
     0.00000000     0.00000000     0.00000000
     0.00000000     0.00000000     0.00000000
     0.00000000     0.00000000     0.00000000
     0.00000000     0.00000000     0.00000000
     0.00000000     0.00000000     0.00000000
     0.00000000     0.00000000     0.00000000
     0.00000000     0.00000000     0.00000000
     0.00000000     0.00000000     0.00000000
     0.00000000     0.00000000     0.00000000
     0.00000000     0.00000000     0.00000000
     0.00000000     0.00000000     0.00000000
     0.00000000     0.00000000     0.00000000
     0.00000000     0.00000000     0.00000000
     0.00000000     0.00000000     0.00000000

 H vector - DCV - non-adiabatic coupling
     0.00000000     0.00000000     0.00000000
     0.00000000     0.00000000     0.00000000
     0.00000000     0.00000000     0.00000000
     0.00000000     0.00000000     0.00000000
     0.00000000     0.00000000     0.00000000
     0.00000000     0.00000000     0.00000000
     0.00000000     0.00000000     0.00000000
     0.00000000     0.00000000     0.00000000
     0.00000000     0.00000000     0.00000000
     0.00000000     0.00000000     0.00000000
     0.00000000     0.00000000     0.00000000
     0.00000000     0.00000000     0.00000000
     0.00000000     0.00000000     0.00000000
     0.00000000     0.00000000     0.00000000
--------------------------------------------------

WARNING!
-> SCC is NOT converged, maximal SCC iterations exceeded

--------------------------------------------------------------------------------
DFTB+ running times                          cpu [s]             wall clock [s]
--------------------------------------------------------------------------------
SCC                                    +     1.56  ( 80.5%)      1.56  ( 80.2%)
      Sparse to dense                        0.07  (  3.8%)      0.08  (  4.3%)
      Dense to sparse                        0.25  ( 13.2%)      0.26  ( 13.5%)
      Range separated Hamiltonian            0.13  (  6.5%)      0.13  (  6.4%)
  Density matrix creation                    0.16  (  8.0%)      0.15  (  7.8%)
  Force calculation                          0.37  ( 19.4%)      0.38  ( 19.3%)
--------------------------------------------------------------------------------
Missing                                +     0.38  ( 19.5%)      0.39  ( 19.8%)
Total                                  =     1.94  (100.0%)      1.95  (100.0%)
--------------------------------------------------------------------------------
