     6
  Step:   120            Position(A)                                  Velocity(au)
C        -0.02467873     0.08336894    -0.02470751     0.00008629     0.00014903     0.00000443
N        -0.04016362    -0.09464102     1.35025206     0.00000879    -0.00005449    -0.00010807
H         0.78134293    -0.48032356    -0.63603788    -0.00085558    -0.00165234     0.00065212
H         0.77698085     0.30484537     1.87392429    -0.00074801     0.00118023     0.00032586
H        -0.94112266    -0.25365781     1.83524079     0.00055291    -0.00104033     0.00001432
H        -0.97794142     0.08109460    -0.65026180    -0.00009976     0.00049378     0.00045667
