|===============================================================================
|
|  DFTB+ release 20.1
|
|  Copyright (C) 2006 - 2020  DFTB+ developers group
|
|===============================================================================
|
|  When publishing results obtained with DFTB+, please cite the following
|  reference:
|
|  * DFTB+, a software package for efficient approximate density functional
|    theory based atomistic simulations, J. Chem. Phys. 152, 124101 (2020).
|    [doi: 10.1063/1.5143190]
|
|  You should also cite additional publications crediting the parametrization
|  data you use. Please consult the documentation of the SK-files for the
|  references.
|
|===============================================================================

Reading input file 'dftb_in.hsd'
Parser version: 8

--------------------------------------------------------------------------------
Reading SK-files:
Done.


Processed input in HSD format written to 'dftb_pin.hsd'

Starting initialization...
--------------------------------------------------------------------------------
OpenMP threads:              1
Chosen random seed:          450184729
Mode:                        Static calculation
Self consistent charges:     Yes
SCC-tolerance:                 0.100000E-05
Max. scc iterations:                   1000
Shell resolved Hubbard:      No
Spin polarisation:           No
Nr. of up electrons:             6.000000
Nr. of down electrons:           6.000000
Periodic boundaries:         No
Electronic solver:           Relatively robust
Maximal SCC-cycles:                    1000
Initial charges:             Set automatically (system chrg:   0.100E+01)
Included shells:             C:  s, p
                             N:  s, p
                             H:  s
Spin coupling constants:     C   1(s)-1(s):  -0.455900E-01
                             C   1(s)-2(p):  -0.293000E-01
                             C   2(p)-1(s):  -0.293000E-01
                             C   2(p)-2(p):  -0.275500E-01
                             N   1(s)-1(s):  -0.468700E-01
                             N   1(s)-2(p):  -0.317000E-01
                             N   2(p)-1(s):  -0.317000E-01
                             N   2(p)-2(p):  -0.307200E-01
                             H   1(s)-1(s):  -0.792500E-01
Range separated hybrid:      Yes
  Screening parameter omega:   0.300000E+00
  Range separated algorithm:   MatrixBased
Extra options:
                             Mulliken analysis
                             Force calculation
Force type                   original
                             Eigenvector printing


REKS Calcuation:             Yes
SSR(2,2) Calcuation:         Yes
Energy Functional:           (PPS+OSS)/2
Number of Core Orbitals:                  5
Number of Active Orbitals:                2
Number of Basis:                         12
Number of States:                         2
State-Averaging Weight:          0.500000
                                 0.500000
State of Interest:                        1
Initial Guess:               Diagonalize H0 matrix
Newton-Raphson for FON opt:  Yes
NR max. Iterations:                      50
Level Shifting:              Yes
Shift Value:                     0.300000
W Scale Factor:              C  =    3.200000
                             N  =    3.200000
                             H  =    3.200000
Transition Dipole:           No
Gradient of Microstate:      No
CP-REKS Solver:              Preconditioned Conjugate-Gradient
CG max. Iterations:                     100
CG Tolerance:                  0.100000E-07
Memory for A and Hxc:        Direct Updating Without Saving
Non-Adiabatic Coupling:      Yes

--------------------------------------------------------------------------------

***  Geometry step: 0

  iSCC       reks energy        Diff energy         x_a       SCC error   
    1       -6.1938228738       0.0000000000     1.000000    1.10751077
    2       -6.1989574635      -0.0051345897     1.000000    0.03133915
    3       -6.2003779093      -0.0014204458     1.000000    0.01632740
    4       -6.2009496768      -0.0005717675     1.000000    0.00903944
    5       -6.2012445956      -0.0002949188     1.000000    0.00696432
    6       -6.2014208865      -0.0001762908     1.000000    0.00584925
    7       -6.2015352360      -0.0001143495     1.000000    0.00493240
    8       -6.2016127412      -0.0000775052     1.000000    0.00416561
    9       -6.2016665103      -0.0000537691     1.000000    0.00351911
   10       -6.2017042682      -0.0000377579     1.000000    0.00297223
   11       -6.2017309476      -0.0000266795     1.000000    0.00250914
   12       -6.2017498565      -0.0000189089     1.000000    0.00211705
   13       -6.2017632760      -0.0000134195     1.000000    0.00178525
   14       -6.2017728040      -0.0000095279     1.000000    0.00150467
   15       -6.2017795686      -0.0000067646     1.000000    0.00126760
   16       -6.2017843700      -0.0000048014     1.000000    0.00106744
   17       -6.2017877766      -0.0000034066     1.000000    0.00089857
   18       -6.2017901926      -0.0000024160     1.000000    0.00075618
   19       -6.2017919054      -0.0000017128     1.000000    0.00063619
   20       -6.2017931191      -0.0000012137     1.000000    0.00053513
   21       -6.2017939789      -0.0000008598     1.000000    0.00045005
   22       -6.2017945878      -0.0000006089     1.000000    0.00037843
   23       -6.2017950189      -0.0000004311     1.000000    0.00031818
   24       -6.2017953240      -0.0000003051     1.000000    0.00026750
   25       -6.2017955399      -0.0000002159     1.000000    0.00022487
   26       -6.2017956927      -0.0000001528     1.000000    0.00018903
   27       -6.2017958007      -0.0000001081     1.000000    0.00015889
   28       -6.2017958772      -0.0000000764     1.000000    0.00013356
   29       -6.2017959312      -0.0000000541     1.000000    0.00011226
   30       -6.2017959695      -0.0000000382     1.000000    0.00009436
   31       -6.2017959965      -0.0000000270     1.000000    0.00007931
   32       -6.2017960156      -0.0000000191     1.000000    0.00006666
   33       -6.2017960291      -0.0000000135     1.000000    0.00005603
   34       -6.2017960387      -0.0000000096     1.000000    0.00004709
   35       -6.2017960454      -0.0000000068     1.000000    0.00003958
   36       -6.2017960502      -0.0000000048     1.000000    0.00003327
   37       -6.2017960536      -0.0000000034     1.000000    0.00002797
   38       -6.2017960560      -0.0000000024     1.000000    0.00002351
   39       -6.2017960577      -0.0000000017     1.000000    0.00001976
   40       -6.2017960589      -0.0000000012     1.000000    0.00001661
   41       -6.2017960597      -0.0000000008     1.000000    0.00001396
   42       -6.2017960603      -0.0000000006     1.000000    0.00001174
   43       -6.2017960607      -0.0000000004     1.000000    0.00000987
   44       -6.2017960610      -0.0000000003     1.000000    0.00000829
   45       -6.2017960612      -0.0000000002     1.000000    0.00000697
   46       -6.2017960614      -0.0000000001     1.000000    0.00000586
   47       -6.2017960615      -0.0000000001     1.000000    0.00000493
   48       -6.2017960616      -0.0000000001     1.000000    0.00000414
   49       -6.2017960616      -0.0000000001     1.000000    0.00000348
   50       -6.2017960616      -0.0000000000     1.000000    0.00000293
   51       -6.2017960617      -0.0000000000     1.000000    0.00000246
   52       -6.2017960617      -0.0000000000     1.000000    0.00000207
   53       -6.2017960617      -0.0000000000     1.000000    0.00000174
   54       -6.2017960617      -0.0000000000     1.000000    0.00000146
   55       -6.2017960617      -0.0000000000     1.000000    0.00000123
   56       -6.2017960617      -0.0000000000     1.000000    0.00000103
   57       -6.2017960617      -0.0000000000     1.000000    0.00000087
  
--------------------------------------------------
 Final SA-REKS(2,2) energy:      -6.20179606
  
 State     Energy      FON(1)    FON(2)   Spin
  PPS   -6.23184217   2.000000  0.000000  0.00
  OSS   -6.17174995   1.000000  1.000000  0.00
 Trip   -6.18315173   1.000000  1.000000  1.00
--------------------------------------------------

 Lagrangian Wab:   0.00054621  0.00054627

--------------------------------------------------
 SSR: 2SI-2SA-REKS(2,2) Hamiltonian matrix
               PPS           OSS
   PPS    -6.23184217    0.00077243
   OSS     0.00077243   -6.17174995
--------------------------------------------------

----------------------------------------------------------------
 SSR: 2SI-2SA-REKS(2,2) states
                    E_n       C_{PPS}    C_{OSS}
 SSR state  1   -6.23185210  -0.999917   0.012851
 SSR state  2   -6.17174003  -0.012851  -0.999917
----------------------------------------------------------------

 unrelaxed SSR FONs for S0:  1.999835  0.000165

Total Energy:                       -6.2318520964 H         -169.5773 eV
Extrapolated to 0:                  -6.2318520964 H         -169.5773 eV

----------------------------------------------------------------------------------
 Solving CP-REKS equation for  1 state vector...
----------------------------------------------------------------------------------
  CG solver: Constructing Y initial guess
  CG solver: Iteration    1    eps =    0.000587010587
  CG solver: Iteration    2    eps =    0.000041753128
  CG solver: Iteration    3    eps =    0.000007797647
  CG solver: Iteration    4    eps =    0.000000725541
  CG solver: Iteration    5    eps =    0.000000033692
  CG solver: Iteration    6    eps =    0.000000004395
  Convergence reached in CG solver after    6 iterations
  CG solver: Calculating converged R, Z, Q2 matrix
----------------------------------------------------------------------------------

----------------------------------------------------------------------------------
 Solving CP-REKS equation for SI between  1 and  2 state vectors...
----------------------------------------------------------------------------------
  CG solver: Constructing Y initial guess
  CG solver: Iteration    1    eps =    0.001024449450
  CG solver: Iteration    2    eps =    0.000098519995
  CG solver: Iteration    3    eps =    0.000038974517
  CG solver: Iteration    4    eps =    0.000014454967
  CG solver: Iteration    5    eps =    0.000000558133
  CG solver: Iteration    6    eps =    0.000000064783
  CG solver: Iteration    7    eps =    0.000000006576
  Convergence reached in CG solver after    7 iterations
  CG solver: Calculating converged R, Z, Q2 matrix
----------------------------------------------------------------------------------

--------------------------------------------------
 Gradient Information
--------------------------------------------------
           1 st state (SSR)
     0.00649341     0.03426920     0.17126564
    -0.07008975     0.00387891    -0.20659689
     0.03328021     0.02024589    -0.01786227
     0.08587226    -0.04321418     0.01391750
    -0.00248911     0.03346363     0.04395093
    -0.05306702    -0.04864346    -0.00467490

           2 st state (SSR)
     0.07493011     0.01520937     0.08278131
    -0.02489543    -0.08184271    -0.02739989
     0.03019994     0.02561920    -0.02045083
    -0.04435811     0.03392896    -0.05082029
     0.01315397     0.05179329     0.02611627
    -0.04903048    -0.04470811    -0.01022658
--------------------------------------------------
 Coupling Information
--------------------------------------------------
 between  1 and  2 states
--------------------------------------------------
 g vector - difference gradient
    -0.03423701     0.00947694     0.04443025
    -0.02328682     0.04285272    -0.08979768
     0.00182715    -0.00299310     0.00132908
     0.06584485    -0.03832431     0.03229909
    -0.00787937    -0.00928338     0.00899679
    -0.00226879    -0.00172887     0.00274248

 h vector - derivative coupling
    -0.00028621    -0.00218314     0.00674735
    -0.02653619    -0.00086537    -0.00659618
     0.01114437    -0.01188569     0.00133701
     0.02754568     0.01011352    -0.00313104
    -0.00214879    -0.00449356     0.00297634
    -0.00971887     0.00931425    -0.00133347

 G vector - GDV
    -0.03421835     0.00952992     0.04424217
    -0.02259716     0.04286081    -0.08959850
     0.00154014    -0.00268665     0.00129428
     0.06511518    -0.03857157     0.03236889
    -0.00782154    -0.00916483     0.00891733
    -0.00201827    -0.00196767     0.00277584

 H vector - DCV - non-adiabatic coupling
    -0.01939711    -0.03225416     0.13120437
    -0.45125532     0.00392957    -0.14808626
     0.18611320    -0.19893986     0.02280276
     0.48623810     0.15180408    -0.03826074
    -0.03910319    -0.07869733     0.05334316
    -0.16259568     0.15415770    -0.02100329
--------------------------------------------------


--------------------------------------------------------------------------------
DFTB+ running times                          cpu [s]             wall clock [s]
--------------------------------------------------------------------------------
SCC                                    +     0.02  ( 64.4%)      0.04  ( 64.3%)
Post-SCC processing                    +     0.01  ( 32.1%)      0.02  ( 30.4%)
  Force calculation                          0.01  ( 31.5%)      0.01  ( 21.4%)
--------------------------------------------------------------------------------
Missing                                +     0.00  (  3.5%)      0.00  (  5.4%)
Total                                  =     0.04  (100.0%)      0.06  (100.0%)
--------------------------------------------------------------------------------
