     6
  Step:     0            Position(A)                                  Velocity(au)
C        -0.03159628     0.01662124     0.03586567    -0.00008505     0.00010315    -0.00006498
N        -0.04306759    -0.03794283     1.28139713     0.00023112    -0.00003627     0.00007808
H         0.89837970    -0.04457282    -0.55977932     0.00115396    -0.00034510    -0.00060455
H         0.75642746    -0.19416729     1.86617183    -0.00149997     0.00017990    -0.00086308
H        -0.89453823    -0.16562996     1.83871826    -0.00163916    -0.00008616     0.00093478
H        -0.99822137     0.06379843    -0.48719187    -0.00021305    -0.00047378     0.00022221
     6
  Step:     1            Position(A)                                  Velocity(au)
C        -0.03205836     0.01723020     0.03506318    -0.00008290     0.00011942    -0.00022769
N        -0.04182097    -0.03813237     1.28220281     0.00022132    -0.00003292     0.00021521
H         0.90483965    -0.04663496    -0.56301221     0.00119633    -0.00040788    -0.00057123
H         0.74875270    -0.19338717     1.86157675    -0.00128213     0.00010019    -0.00080009
H        -0.90375862    -0.16624871     1.84378559    -0.00170924    -0.00013643     0.00090435
H        -0.99960322     0.06107673    -0.48606428    -0.00029266    -0.00052151     0.00018953
     6
  Step:     2            Position(A)                                  Velocity(au)
C        -0.03250331     0.01792792     0.03337431    -0.00007878     0.00013538    -0.00038764
N        -0.04064595    -0.03830298     1.28375197     0.00020485    -0.00002925     0.00034864
H         0.91146971    -0.04903578    -0.56602963     0.00121460    -0.00046824    -0.00052594
H         0.74239861    -0.19307102     1.85741743    -0.00101732     0.00001033    -0.00070331
H        -0.91324042    -0.16712281     1.84861349    -0.00173363    -0.00017966     0.00084762
H        -1.00142358     0.05809212    -0.48511804    -0.00037158    -0.00056921     0.00015600
     6
  Step:     3            Position(A)                                  Velocity(au)
C        -0.03292093     0.01871257     0.03081860    -0.00007289     0.00015084    -0.00054251
N        -0.03957790    -0.03845264     1.28602037     0.00018219    -0.00002517     0.00047638
H         0.91813916    -0.05176202    -0.56877114     0.00120872    -0.00052567    -0.00047044
H         0.73761328    -0.19327406     1.85387571    -0.00071044    -0.00008897    -0.00057485
H        -0.92274142    -0.16821595     1.85306675    -0.00171458    -0.00021642     0.00076772
H        -1.00367197     0.05484408    -0.48435610    -0.00044689    -0.00061660     0.00012228
     6
  Step:     4            Position(A)                                  Velocity(au)
C        -0.03330221     0.01958126     0.02742804    -0.00006546     0.00016554    -0.00068971
N        -0.03864903    -0.03857890     1.28897341     0.00015406    -0.00002065     0.00059634
H         0.92471814    -0.05479747    -0.57118604     0.00117888    -0.00057938    -0.00040649
H         0.73461166    -0.19404614     1.85111670    -0.00036934    -0.00019613    -0.00041898
H        -0.93203343    -0.16949492     1.85702823    -0.00165482    -0.00024713     0.00066817
H        -1.00632178     0.05133375    -0.48377772    -0.00051551    -0.00066307     0.00008905
     6
  Step:     5            Position(A)                                  Velocity(au)
C        -0.03363945     0.02052957     0.02324837    -0.00005677     0.00017913    -0.00082636
N        -0.03788692    -0.03867927     1.29256577     0.00012147    -0.00001570     0.00070632
H         0.93107862    -0.05812126    -0.57323277     0.00112564    -0.00062822    -0.00033584
H         0.73355941    -0.19542682     1.84927698    -0.00000504    -0.00030861    -0.00024225
H        -0.94090481    -0.17092850     1.86040059    -0.00155766    -0.00027203     0.00055283
H        -1.00933026     0.04756625    -0.48337864    -0.00057451    -0.00070753     0.00005693
     6
  Step:     6            Position(A)                                  Velocity(au)
C        -0.03392646     0.02155114     0.01834064    -0.00004709     0.00019118    -0.00094932
N        -0.03731319    -0.03875155     1.29674081     0.00008570    -0.00001043     0.00080408
H         0.93709678    -0.06170601    -0.57487926     0.00105024    -0.00067080    -0.00026052
H         0.73455619    -0.19743985     1.84845265     0.00036832    -0.00042278    -0.00005337
H        -0.94916295    -0.17248638     1.86310769    -0.00142702    -0.00029113     0.00042589
H        -1.01263961     0.04355313    -0.48315161    -0.00062125    -0.00074849     0.00002644
     6
  Step:     7            Position(A)                                  Velocity(au)
C        -0.03415865     0.02263723     0.01278260    -0.00003677     0.00020123    -0.00105535
N        -0.03694210    -0.03879424     1.30143034     0.00004826    -0.00000500     0.00088739
H         0.94265697    -0.06551651    -0.57610492     0.00095479    -0.00070558    -0.00018287
H         0.73761990    -0.20008775     1.84868864     0.00073414    -0.00053418     0.00013733
H        -0.95663694    -0.17413810     1.86509579    -0.00126755    -0.00030438     0.00029178
H        -1.01617926     0.03931452    -0.48308718    -0.00065373    -0.00078419    -0.00000208
     6
  Step:     8            Position(A)                                  Velocity(au)
C        -0.03433316     0.02377658     0.00666919    -0.00002615     0.00020884    -0.00114147
N        -0.03677948    -0.03880688     1.30655476     0.00001082     0.00000036     0.00095434
H         0.94765606    -0.06950924    -0.57690167     0.00084240    -0.00073118    -0.00010537
H         0.74267523    -0.20334752     1.84997143     0.00107466    -0.00063787     0.00031874
H        -0.96318122    -0.17585261     1.86633455    -0.00108500    -0.00031175     0.00015521
H        -1.01986943     0.03488053    -0.48317462    -0.00067078    -0.00081285    -0.00002844
     6
  Step:     9            Position(A)                                  Velocity(au)
C        -0.03444897     0.02495562     0.00011093    -0.00001559     0.00021372    -0.00120554
N        -0.03682194    -0.03879021     1.31202457    -0.00002488     0.00000544     0.00100366
H         0.95200854    -0.07363340    -0.57727467     0.00071722    -0.00074670    -0.00003059
H         0.74954985    -0.20716887     1.85222697     0.00137299    -0.00072912     0.00048028
H        -0.96868170    -0.17759883     1.86681883    -0.00088638    -0.00031346     0.00002109
H        -1.02362566     0.03029095    -0.48340291    -0.00067229    -0.00083308    -0.00005265
     6
  Step:    10            Position(A)                                  Velocity(au)
C        -0.03450698     0.02615919    -0.00677066    -0.00000544     0.00021578    -0.00124690
N        -0.03705682    -0.03874619     1.31774397    -0.00005727     0.00001004     0.00103526
H         0.95565195    -0.07783368    -0.57724265     0.00058433    -0.00075211     0.00003907
H         0.75798179    -0.21147601     1.85532581     0.00161559    -0.00080420     0.00061344
H        -0.97306295    -0.17934720     1.86656971    -0.00067983    -0.00031018    -0.00010585
H        -1.02736436     0.02559309    -0.48376162    -0.00065937    -0.00084428    -0.00007491
     6
  Step:    11            Position(A)                                  Velocity(au)
C        -0.03450993     0.02737182    -0.01385111     0.00000398     0.00021528    -0.00126692
N        -0.03746319    -0.03867783     1.32361687    -0.00008514     0.00001400     0.00105058
H         0.95855155    -0.08205509    -0.57683720     0.00044924    -0.00074852     0.00010161
H         0.76764028    -0.21617382     1.85909597     0.00179466    -0.00086120     0.00071303
H        -0.97629404    -0.18107202     1.86563362    -0.00047389    -0.00030303    -0.00022160
H        -1.03100892     0.02083718    -0.48424172    -0.00063430    -0.00084706    -0.00009558
     6
  Step:    12            Position(A)                                  Velocity(au)
C        -0.03446224     0.02857947    -0.02101417     0.00001245     0.00021277    -0.00126920
N        -0.03801397    -0.03858880     1.32955529    -0.00010781     0.00001728     0.00105272
H         0.96070257    -0.08624904    -0.57610028     0.00031718    -0.00073818     0.00015580
H         0.77815856    -0.22115821     1.86334217     0.00190944    -0.00090049     0.00077787
H        -0.97839074    -0.18275410     1.86407830    -0.00027645    -0.00029362    -0.00032350
H        -1.03449562     0.01606992    -0.48483622    -0.00060027    -0.00084327    -0.00011520
     6
  Step:    13            Position(A)                                  Velocity(au)
C        -0.03436953     0.02977127    -0.02816391     0.00001986     0.00020906    -0.00125886
N        -0.03867900    -0.03848298     1.33548838    -0.00012521     0.00001991     0.00104588
H         0.96212841    -0.09037952    -0.57508021     0.00019230    -0.00072404     0.00020128
H         0.78917309    -0.22632867     1.86786807     0.00196538    -0.00092439     0.00081040
H        -0.97941162    -0.18438314     1.86198554    -0.00009358    -0.00028373    -0.00041044
H        -1.03777817     0.01132763    -0.48554081    -0.00056073    -0.00083564    -0.00013441
     6
  Step:    14            Position(A)                                  Velocity(au)
C        -0.03423797     0.03094075    -0.03523276     0.00002618     0.00020492    -0.00124115
N        -0.03942817    -0.03836396     1.34136827    -0.00013765     0.00002198     0.00103428
H         0.96287462    -0.09442690    -0.57382690     0.00007720    -0.00070904     0.00023835
H         0.80035714    -0.23159908     1.87249551     0.00197142    -0.00093624     0.00081521
H        -0.97944772    -0.18595878     1.85944240     0.00007098    -0.00027508    -0.00048267
H        -1.04082898     0.00663154    -0.48635435    -0.00051869    -0.00082698    -0.00015387
     6
  Step:    15            Position(A)                                  Velocity(au)
C        -0.03407383     0.03208572    -0.04218201     0.00004795     0.00030628    -0.00185981
N        -0.04023368    -0.03823469     1.34716994    -0.00022198     0.00003603     0.00155641
H         0.96300037    -0.09838773    -0.57238823    -0.00004104    -0.00105998     0.00040789
H         0.81143907    -0.23690290     1.87707535     0.00295196    -0.00143144     0.00121527
H        -0.97860995    -0.18748999     1.85653410     0.00032823    -0.00041005    -0.00082450
H        -1.04363643     0.00198736    -0.48727872    -0.00072571    -0.00124896    -0.00026535
     6
  Step:    16            Position(A)                                  Velocity(au)
C        -0.03379390     0.03376420    -0.05224932     0.00005021     0.00028540    -0.00168654
N        -0.04148454    -0.03803691     1.35563679    -0.00021572     0.00003358     0.00142631
H         0.96271044    -0.10422360    -0.57035454    -0.00005537    -0.00099807     0.00030742
H         0.82776770    -0.24476285     1.88386309     0.00277280    -0.00133310     0.00115908
H        -0.97643877    -0.18968333     1.85185435     0.00042103    -0.00036588    -0.00081333
H        -1.04779923    -0.00487291    -0.48911591    -0.00073904    -0.00117043    -0.00037673
     6
  Step:    17            Position(A)                                  Velocity(au)
C        -0.03350337     0.03532828    -0.06134345     0.00005169     0.00026611    -0.00151876
N        -0.04268453    -0.03785321     1.36337481    -0.00020455     0.00003112     0.00130086
H         0.96237125    -0.10972725    -0.56889548    -0.00005944    -0.00094322     0.00020632
H         0.84294197    -0.25204883     1.89024414     0.00255208    -0.00123071     0.00107629
H        -0.97382641    -0.19164692     1.84729354     0.00048386    -0.00032933    -0.00078372
H        -1.05203301    -0.01131033    -0.49155889    -0.00074994    -0.00110022    -0.00047846
     6
  Step:    18            Position(A)                                  Velocity(au)
C        -0.03320673     0.03678683    -0.06950015     0.00005257     0.00024919    -0.00136238
N        -0.04380793    -0.03768342     1.37041265    -0.00018989     0.00002882     0.00118468
H         0.96203531    -0.11493723    -0.56801106    -0.00005548    -0.00089792     0.00010608
H         0.85675552    -0.25874194     1.89608809     0.00230775    -0.00112959     0.00097707
H        -0.97094280    -0.19342403     1.84295245     0.00051910    -0.00030131    -0.00073976
H        -1.05631747    -0.01736977    -0.49455052    -0.00075901    -0.00104105    -0.00057198
     6
  Step:    19            Position(A)                                  Velocity(au)
C        -0.03290749     0.03815293    -0.07678633     0.00005288     0.00023454    -0.00121763
N        -0.04483693    -0.03752655     1.37680350    -0.00017242     0.00002672     0.00107772
H         0.96174241    -0.11990539    -0.56769304    -0.00004545    -0.00086160     0.00000704
H         0.86910084    -0.26485301     1.90131945     0.00204810    -0.00103092     0.00086699
H        -0.96794229    -0.19506232     1.83890819     0.00052840    -0.00028148    -0.00068314
H        -1.06063657    -0.02311085    -0.49804239    -0.00076504    -0.00099213    -0.00065791
     6
  Step:    20            Position(A)                                  Velocity(au)
C        -0.03260882     0.03943902    -0.08326928     0.00005261     0.00022175    -0.00108293
N        -0.04575769    -0.03738125     1.38259968    -0.00015257     0.00002485     0.00097841
H         0.96152132    -0.12468030    -0.56793142    -0.00003113    -0.00083264    -0.00009057
H         0.87991576    -0.27039975     1.90589212     0.00177756    -0.00093448     0.00074943
H        -0.96496758    -0.19660703     1.83522743     0.00051318    -0.00026905    -0.00061476
H        -1.06496860    -0.02858892    -0.50199024    -0.00076619    -0.00095156    -0.00073620
     6
  Step:    21            Position(A)                                  Velocity(au)
C        -0.03231386     0.04065532    -0.08900684     0.00005176     0.00021045    -0.00095674
N        -0.04655868    -0.03724613     1.38784459    -0.00013072     0.00002320     0.00088529
H         0.96139108    -0.12930152    -0.56871513    -0.00001417    -0.00080948    -0.00018637
H         0.88916001    -0.27539836     1.90977651     0.00149956    -0.00084000     0.00062693
H        -0.96215121    -0.19809851     1.83197085     0.00047523    -0.00026316    -0.00053569
H        -1.06928273    -0.03384890    -0.50635014    -0.00076084    -0.00091754    -0.00080660
     6
  Step:    22            Position(A)                                  Velocity(au)
C        -0.03202572     0.04180992    -0.09404790     0.00005036     0.00020035    -0.00083804
N        -0.04723034    -0.03711983     1.39257337    -0.00010727     0.00002179     0.00079738
H         0.96136167    -0.13379985    -0.57003102     0.00000387    -0.00079088    -0.00027981
H         0.89680973    -0.27986312     1.91295510     0.00121762    -0.00074753     0.00050177
H        -0.95961366    -0.19957183     1.82919240     0.00041701    -0.00026295    -0.00044746
H        -1.07354017    -0.03892592    -0.51107738    -0.00074790    -0.00088876    -0.00086904
     6
  Step:    23            Position(A)                                  Velocity(au)
C        -0.03174733     0.04290936    -0.09843523     0.00004845     0.00019126    -0.00072616
N        -0.04776549    -0.03700103     1.39681557    -0.00008269     0.00002059     0.00071408
H         0.96143463    -0.13819939    -0.57186319     0.00002155    -0.00077598    -0.00037038
H         0.90285896    -0.28380851     1.91542172     0.00093537    -0.00065745     0.00037606
H        -0.95745959    -0.20105687     1.82693666     0.00034172    -0.00026755    -0.00035203
H        -1.07769702    -0.04384795    -0.51612738    -0.00072679    -0.00086430    -0.00092371
     6
  Step:    24            Position(A)                                  Velocity(au)
C        -0.03148130     0.04395913    -0.10220765     0.00004610     0.00018306    -0.00062065
N        -0.04815955    -0.03688845     1.40059734    -0.00005749     0.00001961     0.00063500
H         0.96160380    -0.14251938    -0.57419296     0.00003756    -0.00076411    -0.00045761
H         0.90732031    -0.28725075     1.91718087     0.00065617    -0.00057020     0.00025167
H        -0.95577384    -0.20257826     1.82523670     0.00025313    -0.00027606    -0.00025161
H        -1.08170701    -0.04863798    -0.52145700    -0.00069732    -0.00084353    -0.00097101
     6
  Step:    25            Position(A)                                  Velocity(au)
C        -0.03122989     0.04496396    -0.10540118     0.00004338     0.00017563    -0.00052108
N        -0.04841070    -0.03678090     1.40394267    -0.00003213     0.00001883     0.00055987
H         0.96185622    -0.14677554    -0.57699928     0.00005078    -0.00075477    -0.00054111
H         0.91022361    -0.29020829     1.91824643     0.00038298    -0.00048624     0.00013018
H        -0.95461857    -0.20415524     1.82411269     0.00015541    -0.00028753    -0.00014852
H        -1.08552356    -0.05331552    -0.52702573    -0.00065956    -0.00082594    -0.00101147
     6
  Step:    26            Position(A)                                  Velocity(au)
C        -0.03099499     0.04592802    -0.10804928     0.00004035     0.00016887    -0.00042703
N        -0.04851976    -0.03667735     1.40687385    -0.00000709     0.00001822     0.00048840
H         0.96217309    -0.15098084    -0.58025912     0.00006024    -0.00074751    -0.00062053
H         0.91161380    -0.29270179     1.91864026     0.00011836    -0.00040593     0.00001291
H        -0.95403160    -0.20580161     1.82357165     0.00005293    -0.00030099    -0.00004511
H        -1.08910110    -0.05789733    -0.53279630    -0.00061373    -0.00081108    -0.00104568
     6
  Step:    27            Position(A)                                  Velocity(au)
C        -0.03077811     0.04685496    -0.11018289     0.00003706     0.00016271    -0.00033806
N        -0.04849011    -0.03657690     1.40941156     0.00001718     0.00001775     0.00042030
H         0.96253075    -0.15514595    -0.58394772     0.00006513    -0.00074195    -0.00069555
H         0.91154898    -0.29475372     1.91839101    -0.00013542    -0.00032958    -0.00009895
H        -0.95402590    -0.20752559     1.82360756    -0.00004992    -0.00031546     0.00005636
H        -1.09239585    -0.06239775    -0.53873487    -0.00056011    -0.00079852    -0.00107416
     6
  Step:    28            Position(A)                                  Velocity(au)
C        -0.03058051     0.04774792    -0.11183044     0.00003356     0.00015704    -0.00025374
N        -0.04832759    -0.03647884     1.41157488     0.00004025     0.00001739     0.00035530
H         0.96290159    -0.15927944    -0.58803882     0.00006482    -0.00073769    -0.00076587
H         0.91009920    -0.29638816     1.91753348    -0.00037617    -0.00025751    -0.00020430
H        -0.95458998    -0.20932997     1.82420203    -0.00014887    -0.00032997     0.00015373
H        -1.09536586    -0.06682870    -0.54481063    -0.00049902    -0.00078781    -0.00109736
     6
  Step:    29            Position(A)                                  Velocity(au)
C        -0.03040318     0.04860956    -0.11301780     0.00002989     0.00015179    -0.00017364
N        -0.04804037    -0.03638264     1.41338121     0.00006171     0.00001711     0.00029310
H         0.96325495    -0.16338796    -0.59250454     0.00005880    -0.00073439    -0.00083113
H         0.90734620    -0.29763075     1.91610842    -0.00060167    -0.00019000    -0.00030201
H        -0.95568920    -0.21121222     1.82532513    -0.00023994    -0.00034359     0.00024500
H        -1.09797125    -0.07119965    -0.55099535    -0.00043082    -0.00077849    -0.00111565
     6
  Step:    30            Position(A)                                  Velocity(au)
C        -0.03024694     0.04944207    -0.11376854     0.00002607     0.00014685    -0.00009741
N        -0.04763884    -0.03628787     1.41484624     0.00008115     0.00001690     0.00023341
H         0.96355789    -0.16747627    -0.59731540     0.00004672    -0.00073170    -0.00089098
H         0.90338379    -0.29850886     1.91416267    -0.00080954    -0.00012745    -0.00039088
H        -0.95726802    -0.21316490     1.82693657    -0.00031957    -0.00035546     0.00032838
H        -1.10017438    -0.07551765    -0.55726285    -0.00035592    -0.00077011    -0.00112930
     6
  Step:    31            Position(A)                                  Velocity(au)
C        -0.03011242     0.05024716    -0.11410409     0.00002215     0.00014216    -0.00002474
N        -0.04713550    -0.03619422     1.41598406     0.00009819     0.00001674     0.00017599
H         0.96377596    -0.17154729    -0.60244009     0.00002836    -0.00072927    -0.00094502
H         0.89831881    -0.29905197     1.91174965    -0.00099722    -0.00007030    -0.00046963
H        -0.95925276    -0.21517604     1.82898699    -0.00038475    -0.00036481     0.00040233
H        -1.10194019    -0.07978733    -0.56358845    -0.00027481    -0.00076225    -0.00113848
     6
  Step:    32            Position(A)                                  Velocity(au)
C        -0.03000008     0.05102612    -0.11404416     0.00001816     0.00013764     0.00004464
N        -0.04654479    -0.03610137     1.41680718     0.00011249     0.00001664     0.00012058
H         0.96387390    -0.17560217    -0.60784539     0.00000363    -0.00072678    -0.00099287
H         0.89227222    -0.29929214     1.90892981    -0.00116198    -0.00001908    -0.00053692
H        -0.96155510    -0.21722978     1.83141957    -0.00043312    -0.00037098     0.00046559
H        -1.10323644    -0.08401104    -0.56994842    -0.00018804    -0.00075450    -0.00114330
     6
  Step:    33            Position(A)                                  Velocity(au)
C        -0.02991023     0.05177984    -0.11360705     0.00001411     0.00013322     0.00011088
N        -0.04588290    -0.03600896     1.41732679     0.00012374     0.00001661     0.00006699
H         0.96381638    -0.17964028    -0.61349617    -0.00002742    -0.00072392    -0.00103415
H         0.88537962    -0.29926443     1.90577083    -0.00130108     0.00002560    -0.00059140
H        -0.96407574    -0.21930702     1.83417157    -0.00046301    -0.00037344     0.00051722
H        -1.10403413    -0.08818906    -0.57631962    -0.00009627    -0.00074653    -0.00114383
     6
  Step:    34            Position(A)                                  Velocity(au)
C        -0.02984298     0.05250885    -0.11281011     0.00001006     0.00012885     0.00017410
N        -0.04516751    -0.03591652     1.41755283     0.00013171     0.00001668     0.00001505
H         0.96356867    -0.18365933    -0.61935545    -0.00006463    -0.00072040    -0.00106852
H         0.87779130    -0.29900718     1.90234758    -0.00141181     0.00006312    -0.00063176
H        -0.96670842    -0.22138613     1.83717615    -0.00047351    -0.00037181     0.00055658
H        -1.10430790    -0.09231983    -0.58267914    -0.00000021    -0.00073802    -0.00114008
     6
  Step:    35            Position(A)                                  Velocity(au)
C        -0.02979828     0.05321342    -0.11167000     0.00000603     0.00012448     0.00023437
N        -0.04441750    -0.03582342     1.41749428     0.00013619     0.00001687    -0.00003538
H         0.96309735    -0.18765548    -0.62538458    -0.00010767    -0.00071597    -0.00109570
H         0.86967174    -0.29856221     1.89874185    -0.00149157     0.00009278    -0.00065673
H        -0.96934403    -0.22344377     1.84036415    -0.00046443    -0.00036586     0.00058343
H        -1.10403652    -0.09640031    -0.58900421     0.00009930    -0.00072876    -0.00113210
     6
  Step:    36            Position(A)                                  Velocity(au)
C        -0.02977585     0.05389353    -0.11020305     0.00000207     0.00012008     0.00029171
N        -0.04365264    -0.03572882     1.41715926     0.00013704     0.00001724    -0.00008443
H         0.96237094    -0.19162350    -0.63154359    -0.00015617    -0.00071040    -0.00111548
H         0.86119962    -0.29797516     1.89504236    -0.00153800     0.00011393    -0.00066516
H        -0.97187456    -0.22545576     1.84366596    -0.00043630    -0.00035550     0.00059781
H        -1.10320335    -0.10042629    -0.59527214     0.00020138    -0.00071858    -0.00111990
     6
  Step:    37            Position(A)                                  Velocity(au)
C        -0.02977522     0.05454903    -0.10842549    -0.00000178     0.00011563     0.00034609
N        -0.04289323    -0.03563162     1.41655525     0.00013424     0.00001783    -0.00013216
H         0.96136037    -0.19555695    -0.63779155    -0.00020962    -0.00070351    -0.00112774
H         0.85256523    -0.29729507     1.89134353    -0.00154946     0.00012604    -0.00065627
H        -0.97419683    -0.22739785     1.84701327    -0.00039028    -0.00034081     0.00060009
H        -1.10179661    -0.10439275    -0.60146040     0.00030512    -0.00070738    -0.00110358
     6
  Step:    38            Position(A)                                  Velocity(au)
C        -0.02979567     0.05517964    -0.10635361    -0.00000549     0.00011111     0.00039750
N        -0.04215951    -0.03553049     1.41568931     0.00012785     0.00001867    -0.00017861
H         0.96003942    -0.19944839    -0.64408700    -0.00026747    -0.00069516    -0.00113245
H         0.84396557    -0.29657323     1.88774296    -0.00152529     0.00012885    -0.00062974
H        -0.97621551    -0.22924649     1.85034059    -0.00032804    -0.00032199     0.00059094
H        -1.09980965    -0.10829419    -0.60754681     0.00040953    -0.00069511    -0.00108322
     6
  Step:    39            Position(A)                                  Velocity(au)
C        -0.02983628     0.05578499    -0.10400388    -0.00000901     0.00010652     0.00044588
N        -0.04147104    -0.03542398     1.41456840     0.00011805     0.00001977    -0.00022379
H         0.95838515    -0.20328970    -0.65038854    -0.00032907    -0.00068528    -0.00112969
H         0.83559840    -0.29586173     1.88433850    -0.00146595     0.00012237    -0.00058584
H        -0.97784583    -0.23097956     1.85358667    -0.00025170    -0.00029935     0.00057123
H        -1.09724113    -0.11212492    -0.61350978     0.00051365    -0.00068179    -0.00105899
     6
  Step:    40            Position(A)                                  Velocity(au)
C        -0.02989589     0.05636476    -0.10139296    -0.00001230     0.00010187     0.00049121
N        -0.04084618    -0.03531057     1.41319956     0.00010511     0.00002114    -0.00026764
H         0.95637834    -0.20707237    -0.65665533    -0.00039374    -0.00067381    -0.00111963
H         0.82765623    -0.29521179     1.88122522    -0.00137304     0.00010693    -0.00052541
H        -0.97901576    -0.23257694     1.85669572    -0.00016371    -0.00027332     0.00054204
H        -1.09409502    -0.11587936    -0.61932856     0.00061652    -0.00066745    -0.00103109
     6
  Step:    41            Position(A)                                  Velocity(au)
C        -0.02997319     0.05691861    -0.09853778    -0.00001534     0.00009717     0.00053343
N        -0.04030144    -0.03518877     1.41159019     0.00008942     0.00002275    -0.00031006
H         0.95400372    -0.21078769    -0.66284759    -0.00046072    -0.00066076    -0.00110251
H         0.82031942    -0.29467181     1.87849180    -0.00124947     0.00008325    -0.00044998
H        -0.97966760    -0.23402102     1.85961838    -0.00006677    -0.00024439     0.00050461
H        -1.09038061    -0.11955223    -0.62498353     0.00071718    -0.00065219    -0.00099973
     6
  Step:    42            Position(A)                                  Velocity(au)
C        -0.03006667     0.05744632    -0.09545553    -0.00001810     0.00009243     0.00057249
N        -0.03985087    -0.03505730     1.40974835     0.00007148     0.00002457    -0.00035092
H         0.95125021    -0.21442704    -0.66892700    -0.00052925    -0.00064616    -0.00107862
H         0.81374875    -0.29428516     1.87621665    -0.00109939     0.00005243    -0.00036173
H        -0.97975899    -0.23529712     1.86231242     0.00003630    -0.00021310     0.00046029
H        -1.08611235    -0.12313869    -0.63045631     0.00081470    -0.00063609    -0.00096519
     6
  Step:    43            Position(A)                                  Velocity(au)
C        -0.03017468     0.05794775    -0.09216369    -0.00002054     0.00008768     0.00060832
N        -0.03950559    -0.03491517     1.40768305     0.00005186     0.00002653    -0.00039000
H         0.94811102    -0.21798203    -0.67485702    -0.00059854    -0.00063006    -0.00104832
H         0.80807874    -0.29408807     1.87446424    -0.00092812     0.00001595    -0.00026352
H        -0.97926343    -0.23639367     1.86474324     0.00014263    -0.00018004     0.00041046
H        -1.08130973    -0.12663444    -0.63573001     0.00090818    -0.00061925    -0.00092773
     6
  Step:    44            Position(A)                                  Velocity(au)
C        -0.03029543     0.05842286    -0.08868013    -0.00002265     0.00008293     0.00064085
N        -0.03927331    -0.03476184     1.40540452     0.00003120     0.00002852    -0.00042706
H         0.94458377    -0.22144462    -0.68060306    -0.00066775    -0.00061255    -0.00101196
H         0.80341142    -0.29410757     1.87328160    -0.00074196    -0.00002440    -0.00015875
H        -0.97817034    -0.23730244     1.86688408     0.00024939    -0.00014583     0.00035656
H        -1.07599717    -0.13003578    -0.64078926     0.00099673    -0.00060177    -0.00088763
     6