 Fermi distribution function

Calculation with static geometry


********************************************************************************
 iSCC Total electronic   Diff electronic      SCC error    
   11   -0.52891775E+01   -0.51085731E-08    0.88033405E-06
********************************************************************************

 Total charge:     1.00000000

 Atomic gross charges (e)
 Atom           Charge
    1       0.29409484
    2      -0.20973725
    3       0.18513956
    4       0.28517013
    5       0.26882389
    6       0.17650883

Nr. of electrons (up):     12.00000000
Atom populations (up)
 Atom       Population
    1       3.70590516
    2       5.20973725
    3       0.81486044
    4       0.71482987
    5       0.73117611
    6       0.82349117

l-shell populations (up)
 Atom Sh.   l       Population
    1   1   0       1.40247246
    1   2   1       2.30343271
    2   1   0       1.49571082
    2   2   1       3.71402643
    3   1   0       0.81486044
    4   1   0       0.71482987
    5   1   0       0.73117611
    6   1   0       0.82349117

Orbital populations (up)
 Atom Sh.   l   m       Population  Label
    1   1   0   0       1.40247246  s
    1   2   1  -1       0.48658116  p_y
    1   2   1   0       0.85183158  p_z
    1   2   1   1       0.96501997  p_x
    2   1   0   0       1.49571082  s
    2   2   1  -1       1.43158409  p_y
    2   2   1   0       1.04098641  p_z
    2   2   1   1       1.24145593  p_x
    3   1   0   0       0.81486044  s
    4   1   0   0       0.71482987  s
    5   1   0   0       0.73117611  s
    6   1   0   0       0.82349117  s

Fermi level:                        -0.4974161864 H          -13.5354 eV
Band energy:                        -8.6205986072 H         -234.5784 eV
TS:                                  0.0000000000 H            0.0000 eV
Band free energy (E-TS):            -8.6205986072 H         -234.5784 eV
Extrapolated E(0K):                 -8.6205986072 H         -234.5784 eV
Input / Output electrons (q):     12.0000000000     12.0000000000

Energy H0:                          -5.4202402477 H         -147.4922 eV
Energy SCC:                          0.1310627891 H            3.5664 eV
Total Electronic energy:            -5.2891774586 H         -143.9258 eV
Repulsive energy:                    0.1351686519 H            3.6781 eV
Total energy:                       -5.1540088067 H         -140.2477 eV
Extrapolated to 0:                  -5.1540088067 H         -140.2477 eV
Total Mermin free energy:           -5.1540088067 H         -140.2477 eV
Force related energy:               -5.1540088067 H         -140.2477 eV

SCC converged

Excitation Energy:                   0.1107427258 H            3.0135 eV

Total Forces
    1     -0.008617838717     -0.005569179373      0.062929084273
    2      0.030618991342      0.016380968918     -0.057423602563
    3     -0.003123308025     -0.009643739714     -0.001070910012
    4     -0.029609328100     -0.002033264804     -0.013315221087
    5     -0.001419457244     -0.009858138585      0.004985513477
    6      0.012150940744      0.010723353559      0.003895135911

Maximal derivative component:        0.629291E-01 au


