     6
  Step:     0            Position(A)                                  Velocity(au)
C        -0.03287397     0.01860766     0.02919753    -0.00009953    -0.00004600    -0.00027811
N        -0.03981697    -0.05115222     1.29090246     0.00005415     0.00004954     0.00025266
H         0.91751448    -0.03328917    -0.54350794     0.00073090     0.00029028    -0.00025148
H         0.77859328    -0.10952772     1.81949004    -0.00045397    -0.00041265     0.00026988
H        -0.94822543    -0.06994004     1.85896755     0.00021474    -0.00008658    -0.00035490
H        -1.01578151     0.03207800    -0.52966254    -0.00005807     0.00006876     0.00013949
     6
  Step:     1            Position(A)                                  Velocity(au)
C        -0.03343234     0.01837025     0.02747740    -0.00010426    -0.00004103    -0.00034943
N        -0.03959405    -0.05088883     1.29244925     0.00002752     0.00004699     0.00031122
H         0.92152784    -0.03171481    -0.54504529     0.00073221     0.00028615    -0.00030794
H         0.77680205    -0.11183314     1.82150305    -0.00019792    -0.00043158     0.00046825
H        -0.94668902    -0.07041110     1.85683587     0.00034247    -0.00008578    -0.00042156
H        -1.01598384     0.03244951    -0.52900367    -0.00001676     0.00006716     0.00010030
     6
  Step:     2            Position(A)                                  Velocity(au)
C        -0.03401407     0.01815901     0.02537638    -0.00010809    -0.00003647    -0.00041733
N        -0.03951603    -0.05063833     1.29430579     0.00000158     0.00004485     0.00036604
H         0.92552149    -0.03015995    -0.54687539     0.00072424     0.00028329    -0.00035881
H         0.77642892    -0.11424725     1.82461055     0.00006021    -0.00045234     0.00066750
H        -0.94448042    -0.07087809     1.85435760     0.00045926    -0.00008519    -0.00048084
H        -1.01596480     0.03281242    -0.52856573     0.00002248     0.00006567     0.00005856
     6
  Step:     3            Position(A)                                  Velocity(au)
C        -0.03461401     0.01797160     0.02291514    -0.00011083    -0.00003231    -0.00048071
N        -0.03957679    -0.05039857     1.29645079    -0.00002282     0.00004303     0.00041648
H         0.92944527    -0.02861782    -0.54896785     0.00070651     0.00028135    -0.00040384
H         0.77746024    -0.11677815     1.82880017     0.00031132    -0.00047372     0.00086073
H        -0.94166843    -0.07134245     1.85157929     0.00056137    -0.00008484    -0.00053002
H        -1.01573813     0.03316744    -0.52836353     0.00005876     0.00006426     0.00001390
     6
  Step:     4            Position(A)                                  Velocity(au)
C        -0.03522594     0.01780577     0.02012013    -0.00011226    -0.00002854    -0.00053829
N        -0.03976560    -0.05016779     1.29885965    -0.00004479     0.00004148     0.00046174
H         0.93324661    -0.02708357    -0.55129104     0.00067857     0.00027993    -0.00044261
H         0.77983294    -0.11942708     1.83402205     0.00054586    -0.00049432     0.00104058
H        -0.93834227    -0.07180577     1.84856226     0.00064472    -0.00008474    -0.00056621
H        -1.01532230     0.03351501    -0.52841378     0.00009114     0.00006286    -0.00003385
     6
  Step:     5            Position(A)                                  Velocity(au)
C        -0.03584251     0.01765931     0.01702459    -0.00011218    -0.00002515    -0.00058865
N        -0.04006697    -0.04994465     1.30150359    -0.00006344     0.00004011     0.00050089
H         0.93687092    -0.02555457    -0.55381139     0.00064021     0.00027859    -0.00047467
H         0.78343367    -0.12218751     1.84018734     0.00075445    -0.00051260     0.00119966
H        -0.93461317    -0.07226973     1.84538327     0.00070513    -0.00008489    -0.00058656
H        -1.01474078     0.03385531    -0.52873391     0.00011864     0.00006143    -0.00008457
     6
  Step:     6            Position(A)                                  Velocity(au)
C        -0.03645533     0.01753010     0.01366913    -0.00011042    -0.00002215    -0.00063039
N        -0.04046082    -0.04972828     1.30434893    -0.00007795     0.00003883     0.00053299
H         0.94026264    -0.02403053    -0.55649290     0.00059154     0.00027692    -0.00049953
H         0.78810088    -0.12504462     1.84716904     0.00092853    -0.00052705     0.00133115
H        -0.93061477    -0.07273613     1.84213417     0.00073869    -0.00008533    -0.00058856
H        -1.01402213     0.03418820    -0.52934057     0.00014034     0.00005991    -0.00013787
     6
  Step:     7            Position(A)                                  Velocity(au)
C        -0.03705517     0.01741606     0.01010169    -0.00010689    -0.00001952    -0.00066226
N        -0.04092301    -0.04951823     1.30735686    -0.00008768     0.00003758     0.00055715
H         0.94336718    -0.02251349    -0.55929718     0.00053315     0.00027453    -0.00051683
H         0.79363070    -0.12797553     1.85480599     0.00106125    -0.00053633     0.00142953
H        -0.92650088    -0.07320683     1.83891973     0.00074236    -0.00008606    -0.00057037
H        -1.01319956     0.03451324    -0.53024796     0.00015549     0.00005826    -0.00019302
     6
  Step:     8            Position(A)                                  Velocity(au)
C        -0.03763233     0.01731516     0.00637668    -0.00010157    -0.00001726    -0.00068337
N        -0.04142635    -0.04931442     1.31048391    -0.00009226     0.00003632     0.00057272
H         0.94613340    -0.02100758    -0.56218399     0.00046617     0.00027113    -0.00052645
H         0.79978683    -0.13095040     1.86291027     0.00114820    -0.00053944     0.00149117
H        -0.92244027    -0.07368375     1.83585352     0.00071450    -0.00008709    -0.00053121
H        -1.01230998     0.03482974    -0.53146604     0.00016360     0.00005645    -0.00024905
     6
  Step:     9            Position(A)                                  Velocity(au)
C        -0.03817718     0.01722543     0.00255304    -0.00009459    -0.00001536    -0.00069334
N        -0.04194208    -0.04911705     1.31368322    -0.00009159     0.00003500     0.00057945
H         0.94851659    -0.01951855    -0.56511249     0.00039225     0.00026655    -0.00052859
H         0.80631400    -0.13393431     1.87127777     0.00118785    -0.00053585     0.00151479
H        -0.91860840    -0.07416885     1.83305183     0.00065528    -0.00008844    -0.00047158
H        -1.01139235     0.03513683    -0.53299908     0.00016460     0.00005448    -0.00030482
     6
  Step:    10            Position(A)                                  Velocity(au)
C        -0.03868079     0.01714492    -0.00130856    -0.00008615    -0.00001381    -0.00069248
N        -0.04244156    -0.04892647     1.31690667    -0.00008595     0.00003363     0.00057759
H         0.95048127    -0.01805303    -0.56804307     0.00031348     0.00026080    -0.00052387
H         0.81295335    -0.13688996     1.87970070     0.00118177    -0.00052562     0.00150172
H        -0.91517689    -0.07466406     1.83062636     0.00056702    -0.00009012    -0.00039339
H        -1.01048555     0.03543359    -0.53484479     0.00015880     0.00005236    -0.00035919
     6
  Step:    11            Position(A)                                  Velocity(au)
C        -0.03913549     0.01707178    -0.00514941    -0.00007659    -0.00001261    -0.00068178
N        -0.04289808    -0.04874303     1.32010777    -0.00007591     0.00003222     0.00056798
H         0.95200346    -0.01661768    -0.57093954     0.00023215     0.00025405    -0.00051335
H         0.81945883    -0.13978076     1.88798141     0.00113439    -0.00050938     0.00145574
H        -0.91230139    -0.07517128     1.82867617     0.00045403    -0.00009215    -0.00029982
H        -1.00962607     0.03571919    -0.53699436     0.00014696     0.00005013    -0.00041122
     6
  Step:    12            Position(A)                                  Velocity(au)
C        -0.03953540     0.01700422    -0.00891654    -0.00006626    -0.00001173    -0.00066290
N        -0.04328862    -0.04856698     1.32324474    -0.00006228     0.00003081     0.00055197
H         0.95307186    -0.01521813    -0.57377152     0.00015052     0.00024665    -0.00049846
H         0.82561191    -0.14257412     1.89594519     0.00105228    -0.00048831     0.00138257
H        -0.91011042    -0.07569234     1.82728074     0.00032213    -0.00009455    -0.00019492
H        -1.00884563     0.03599302    -0.53943356     0.00013020     0.00004787    -0.00046034
     6
  Step:    13            Position(A)                                  Velocity(au)
C        -0.03987681     0.01694055    -0.01256616    -0.00005476    -0.00000867    -0.00069500
N        -0.04359494    -0.04839829     1.32628339    -0.00004681     0.00002756     0.00057728
H         0.95368754    -0.01385811    -0.57651646     0.00003694     0.00026351    -0.00043874
H         0.83123214    -0.14524409     1.90345006     0.00092307    -0.00049134     0.00126453
H        -0.90869729    -0.07622911     1.82649535     0.00020229    -0.00006985    -0.00010131
H        -1.00816937     0.03625480    -0.54214483     0.00014078     0.00001801    -0.00046489
     6
  Step:    14            Position(A)                                  Velocity(au)
C        -0.04014927     0.01690705    -0.01670790    -0.00004248    -0.00000353    -0.00077601
N        -0.04381340    -0.04825797     1.32971642    -0.00003022     0.00002261     0.00064240
H         0.95348596    -0.01226401    -0.57869005    -0.00010496     0.00029461    -0.00033840
H         0.83596000    -0.14808231     1.91012121     0.00075495    -0.00050807     0.00110883
H        -0.90784264    -0.07647541     1.82614500     0.00009861    -0.00002962    -0.00002335
H        -1.00726743     0.03619496    -0.54464519     0.00017764    -0.00002896    -0.00042710
     6
  Step:    15            Position(A)                                  Velocity(au)
C        -0.04035385     0.01690094    -0.02127969    -0.00003052     0.00000106    -0.00084524
N        -0.04393427    -0.04814445     1.33349668    -0.00001237     0.00001801     0.00069845
H         0.95250901    -0.01055002    -0.58031622    -0.00023713     0.00031118    -0.00024406
H         0.83970925    -0.15094899     1.91590078     0.00057621    -0.00050698     0.00094679
H        -0.90759001    -0.07656174     1.82623313    -0.00001077    -0.00000605     0.00005509
H        -1.00617467     0.03592959    -0.54694057     0.00020735    -0.00006096    -0.00039172
     6
  Step:    16            Position(A)                                  Velocity(au)
C        -0.04049245     0.01691893    -0.02621123    -0.00001903     0.00000504    -0.00090246
N        -0.04395247    -0.04805548     1.33756932     0.00000597     0.00001386     0.00074514
H         0.95081983    -0.00876534    -0.58143414    -0.00035674     0.00032100    -0.00015795
H         0.84243848    -0.15378239     1.92076631     0.00039410    -0.00049769     0.00078424
H        -0.90796374    -0.07654339     1.82676434    -0.00012230     0.00000977     0.00013340
H        -1.00493611     0.03550958    -0.54904944     0.00022876    -0.00008566    -0.00036054
     6
  Step:    17            Position(A)                                  Velocity(au)
C        -0.04056795     0.01695771    -0.03143474    -0.00000814     0.00000846    -0.00094868
N        -0.04386709    -0.04798855     1.34188141     0.00002414     0.00001017     0.00078329
H         0.94849481    -0.00693791    -0.58209361    -0.00046205     0.00032702    -0.00008156
H         0.84414384    -0.15654931     1.92472548     0.00021447    -0.00048429     0.00062586
H        -0.90896618    -0.07645184     1.82773419    -0.00023236     0.00002102     0.00021006
H        -1.00360053     0.03496565    -0.55099752     0.00024151    -0.00010582    -0.00033460
     6
  Step:    18            Position(A)                                  Velocity(au)
C        -0.04058404     0.01701413    -0.03688911     0.00000203     0.00001134    -0.00098519
N        -0.04368078    -0.04794099     1.34638559     0.00004159     0.00000697     0.00081397
H         0.94561926    -0.00508461    -0.58235216    -0.00055190     0.00033078    -0.00001588
H         0.84485248    -0.15923328     1.92781069     0.00004194    -0.00046917     0.00047523
H        -0.91057910    -0.07630686     1.82912865    -0.00033768     0.00002936     0.00028355
H        -1.00221778     0.03431849    -0.55281550     0.00024557    -0.00012287    -0.00031453
     6
  Step:    19            Position(A)                                  Velocity(au)
C        -0.04054509     0.01708531    -0.04252095     0.00001138     0.00001374    -0.00101302
N        -0.04339912    -0.04791013     1.35104093     0.00005784     0.00000423     0.00083806
H         0.94228437    -0.00321569    -0.58227236    -0.00062528     0.00033315     0.00003842
H         0.84461580    -0.16182878     1.93007316    -0.00011985    -0.00045382     0.00033490
H        -0.91276606    -0.07612150     1.83092492    -0.00043526     0.00003580     0.00035243
H        -1.00083715     0.03358304    -0.55453693     0.00024103    -0.00013765    -0.00030057
     6
  Step:    20            Position(A)                                  Velocity(au)
C        -0.04045602     0.01716867    -0.04828289     0.00001982     0.00001571    -0.00103268
N        -0.04303023    -0.04789336     1.35581159     0.00007246     0.00000196     0.00085599
H         0.93858648    -0.00133754    -0.58192006    -0.00068107     0.00033454     0.00008086
H         0.84350451    -0.16433755     1.93157747    -0.00026774    -0.00043913     0.00020680
H        -0.91547461    -0.07590424     1.83309256    -0.00052225     0.00004098     0.00041528
H        -0.99950678     0.03277029    -0.55619608     0.00022807    -0.00015068    -0.00029257
     6
  Step:    21            Position(A)                                  Velocity(au)
C        -0.04032228     0.01726189    -0.05413066     0.00002723     0.00001727    -0.00104416
N        -0.04258454    -0.04788815     1.36066424     0.00008500     0.00000012     0.00086772
H         0.93462758     0.00054533    -0.58136327    -0.00071793     0.00033505     0.00011105
H         0.84160575    -0.16676564     1.93239807    -0.00039870    -0.00042559     0.00009254
H        -0.91863735    -0.07566073     1.83559361    -0.00059589     0.00004533     0.00047064
H        -0.99827316     0.03188904    -0.55782609     0.00020693    -0.00016222    -0.00029013
     6
  Step:    22            Position(A)                                  Velocity(au)
C        -0.04014996     0.01736284    -0.06002015     0.00003348     0.00001847    -0.00104721
N        -0.04207475    -0.04789203     1.36556555     0.00009506    -0.00000128     0.00087302
H         0.93051630     0.00242872    -0.58067173    -0.00073454     0.00033462     0.00012867
H         0.83902277    -0.16912157     1.93261775    -0.00050965    -0.00041351    -0.00000630
H        -0.92217297    -0.07539464     1.83838293    -0.00065371     0.00004913     0.00051715
H        -0.99718073     0.03094682    -0.55945744     0.00017807    -0.00017239    -0.00029266
     6
  Step:    23            Position(A)                                  Velocity(au)
C        -0.03994585     0.01746953    -0.06590612     0.00003843     0.00001931    -0.00104170
N        -0.04151565    -0.04790258     1.37048097     0.00010228    -0.00000225     0.00087169
H         0.92636798     0.00430801    -0.57991647    -0.00072993     0.00033318     0.00013358
H         0.83587498    -0.17141540     1.93232728    -0.00059769    -0.00040317    -0.00008822
H        -0.92598807    -0.07510833     1.84140882    -0.00069379     0.00005254     0.00055377
H        -0.99627086     0.02995062    -0.56111693     0.00014224    -0.00018125    -0.00029943
     6
  Step:    24            Position(A)                                  Velocity(au)
C        -0.03971748     0.01758009    -0.07174276     0.00004198     0.00001982    -0.00102787
N        -0.04092382    -0.04791738     1.37537495     0.00010640    -0.00000279     0.00086382
H         0.92230218     0.00617807    -0.57916852    -0.00070389     0.00033072     0.00012601
H         0.83229681    -0.17365862     1.93162500    -0.00066045    -0.00039491    -0.00015198
H        -0.92998038    -0.07480338     1.84461466    -0.00071507     0.00005570     0.00057989
H        -0.99558009     0.02890717    -0.56282703     0.00010052    -0.00018885    -0.00030968
     6
  Step:    25            Position(A)                                  Velocity(au)
C        -0.03947288     0.01769278    -0.07748566     0.00004408     0.00002003    -0.00100643
N        -0.04031694    -0.04793400     1.38021238     0.00010734    -0.00000290     0.00084986
H         0.91843823     0.00803372    -0.57849684    -0.00065717     0.00032736     0.00010662
H         0.82843463    -0.17586434     1.93061518    -0.00069648    -0.00038914    -0.00019681
H        -0.93404380    -0.07448081     1.84794167    -0.00071754     0.00005869     0.00059554
H        -0.99513839     0.02782312    -0.56460564     0.00005430    -0.00019530    -0.00032264
     6
  Step:    26            Position(A)                                  Velocity(au)
C        -0.03922032     0.01780602    -0.08309454     0.00004471     0.00001999    -0.00097857
N        -0.03971306    -0.04795005     1.38496077     0.00010514    -0.00000259     0.00083066
H         0.91488977     0.00987041    -0.57796596    -0.00059144     0.00032333     0.00007643
H         0.82444105    -0.17804784     1.92940509    -0.00070549    -0.00038631    -0.00022263
H        -0.93807364    -0.07414141     1.85133194    -0.00070211     0.00006153     0.00060131
H        -0.99496759     0.02670439    -0.56646611     0.00000513    -0.00020078    -0.00033757
     6
  Step:    27            Position(A)                                  Velocity(au)
C        -0.03896796     0.01791851    -0.08853558     0.00004396     0.00001974    -0.00094574
N        -0.03912967    -0.04796321     1.38959214     0.00010000    -0.00000188     0.00080728
H         0.91175970     0.01168470    -0.57763379    -0.00050912     0.00031896     0.00003683
H         0.82046834    -0.18022653     1.92810122    -0.00068824    -0.00038685    -0.00023001
H        -0.94197196    -0.07378601     1.85473164    -0.00067060     0.00006429     0.00059831
H        -0.99508048     0.02555593    -0.56841751    -0.00004543    -0.00020552    -0.00035386
     6
  Step:    28            Position(A)                                  Velocity(au)
C        -0.03872348     0.01802912    -0.09378305     0.00004194     0.00001932    -0.00090951
N        -0.03858295    -0.04797125     1.39408442     0.00009220    -0.00000079     0.00078089
H         0.90913580     0.01347517    -0.57754975    -0.00041318     0.00031463    -0.00001059
H         0.81666277    -0.18241993     1.92680561    -0.00064646    -0.00039112    -0.00022013
H        -0.94565255    -0.07341484     1.85809389    -0.00062537     0.00006704     0.00058798
H        -0.99548105     0.02438162    -0.57046539    -0.00009592    -0.00020977    -0.00037098
     6
  Step:    29            Position(A)                                  Velocity(au)
C        -0.03849373     0.01813697    -0.09881976     0.00003881     0.00001877    -0.00087132
N        -0.03808717    -0.04797212     1.39842194     0.00008211     0.00000065     0.00075258
H         0.90708776     0.01524234    -0.57775356    -0.00030684     0.00031068    -0.00006411
H         0.81315857    -0.18464907     1.92561214    -0.00058268    -0.00039933    -0.00019472
H        -0.94904331    -0.07302796     1.86138018    -0.00056901     0.00006982     0.00057187
H        -0.99616509     0.02318397    -0.57261227    -0.00014504    -0.00021377    -0.00038844
     6
  Step:    30            Position(A)                                  Velocity(au)
C        -0.03828454     0.01824136    -0.10363644     0.00003477     0.00001812    -0.00083240
N        -0.03765437    -0.04796393     1.40259503     0.00007015     0.00000240     0.00072329
H         0.90566587     0.01698855    -0.57827473    -0.00019343     0.00030739    -0.00012198
H         0.81007353    -0.18693576     1.92460363    -0.00049999    -0.00041152    -0.00015588
H        -0.95208721    -0.07262526     1.86456088    -0.00050406     0.00007266     0.00055148
H        -0.99712121     0.02196415    -0.57485809    -0.00019168    -0.00021776    -0.00040585
     6
  Step:    31            Position(A)                                  Velocity(au)
C        -0.03810059     0.01834182    -0.10823046     0.00003002     0.00001740    -0.00079367
N        -0.03729411    -0.04794500     1.40659916     0.00005672     0.00000443     0.00069375
H         0.90490089     0.01871759    -0.57913258    -0.00007621     0.00030495    -0.00018249
H         0.80750589    -0.18930149     1.92384983    -0.00040190    -0.00042753    -0.00010598
H        -0.95474201    -0.07220653     1.86761493    -0.00043296     0.00007556     0.00052819
H        -0.99833209     0.02072211    -0.57720060    -0.00023492    -0.00022190    -0.00042282
     6
  Step:    32            Position(A)                                  Velocity(au)
C        -0.03794531     0.01843799    -0.11260422     0.00002477     0.00001664    -0.00075579
N        -0.03701345    -0.04791386     1.41043374     0.00004226     0.00000670     0.00066445
H         0.90480474     0.02043422    -0.58033666     0.00004168     0.00030346    -0.00024398
H         0.80553243    -0.19176647     1.92340614    -0.00029217    -0.00044703    -0.00004756
H        -0.95697923    -0.07177149     1.87052897    -0.00035790     0.00007853     0.00050321
H        -0.99977555     0.01945687    -0.57963557    -0.00027399    -0.00022633    -0.00043899
     6
  Step:    33            Position(A)                                  Velocity(au)
C        -0.03782096     0.01852964    -0.11676360     0.00001921     0.00001584    -0.00071918
N        -0.03681697    -0.04786931     1.41410098     0.00002719     0.00000917     0.00063574
H         0.90537150     0.02214378    -0.58188722     0.00015725     0.00030297    -0.00030489
H         0.80420719    -0.19434864     1.92331288    -0.00017480    -0.00046952     0.00001674
H        -0.95878279    -0.07131987     1.87329628    -0.00028089     0.00008156     0.00047755
H        -1.00142556     0.01816677    -0.58215698    -0.00030828    -0.00023113    -0.00045403
     6
  Step:    34            Position(A)                                  Velocity(au)
C        -0.03772860     0.01861661    -0.12071671     0.00001356     0.00001501    -0.00068410
N        -0.03670677    -0.04781041     1.41760498     0.00001193     0.00001178     0.00060785
H         0.90657850     0.02385171    -0.58377583     0.00026765     0.00030344    -0.00036372
H         0.80356067    -0.19706273     1.92359493    -0.00005391    -0.00049435     0.00008421
H        -0.96014774    -0.07085147     1.87591581    -0.00020377     0.00008463     0.00045211
H        -1.00325299     0.01684973    -0.58475709    -0.00033727    -0.00023634    -0.00046761
     6
  Step:    35            Position(A)                                  Velocity(au)
C        -0.03766816     0.01869882    -0.12447301     0.00000800     0.00001417    -0.00065069
N        -0.03668255    -0.04773651     1.42095102    -0.00000310     0.00001449     0.00058090
H         0.90838777     0.02556329    -0.58598611     0.00037032     0.00030481    -0.00041913
H         0.80359962    -0.19991969     1.92426183     0.00006634    -0.00052080     0.00015219
H        -0.96107917    -0.07036618     1.87839126    -0.00012821     0.00008771     0.00042764
H        -1.00522634     0.01550343    -0.58742668    -0.00036056    -0.00024197    -0.00047946
     6
  Step:    36            Position(A)                                  Velocity(au)
C        -0.03763858     0.01877620    -0.12804249     0.00000269     0.00001333    -0.00061898
N        -0.03674171    -0.04764727     1.42414506    -0.00001751     0.00001723     0.00055497
H         0.91074772     0.02728340    -0.58849463     0.00046295     0.00030699    -0.00046993
H         0.80430754    -0.20292616     1.92530832     0.00018192    -0.00054806     0.00021813
H        -0.96159122    -0.06986401     1.88073044    -0.00005575     0.00009078     0.00040481
H        -1.00731239     0.01412551    -0.59015516    -0.00037789    -0.00024802    -0.00048934
     6
  Step:    37            Position(A)                                  Velocity(au)
C        -0.03763787     0.01884875    -0.13143537    -0.00000220     0.00001248    -0.00058899
N        -0.03687950    -0.04754265     1.42719346    -0.00003092     0.00001996     0.00053012
H         0.91359508     0.02901636    -0.59127190     0.00054362     0.00030987    -0.00051510
H         0.80564591    -0.20608432     1.92671534     0.00028908    -0.00057533     0.00027968
H        -0.96170625    -0.06934509     1.88294463     0.00001221     0.00009382     0.00038419
H        -1.00947685     0.01271366    -0.59293088    -0.00038908    -0.00025447    -0.00049707
     6
  Step:    38            Position(A)                                  Velocity(au)
C        -0.03766326     0.01891647    -0.13466176    -0.00000655     0.00001164    -0.00056069
N        -0.03708918    -0.04742293     1.43010273    -0.00004300     0.00002262     0.00050636
H         0.91685718     0.03076588    -0.59428354     0.00061084     0.00031334    -0.00055387
H         0.80755631    -0.20939195     1.92845152     0.00038447    -0.00060185     0.00033481
H        -0.96145398    -0.06880967     1.88504809     0.00007441     0.00009680     0.00036627
H        -1.01168499     0.01126567    -0.59574138    -0.00039409    -0.00026130    -0.00050251
     6
  Step:    39            Position(A)                                  Velocity(au)
C        -0.03771141     0.01897943    -0.13773153    -0.00001027     0.00001080    -0.00053404
N        -0.03736237    -0.04728863     1.43287949    -0.00005348     0.00002517     0.00048370
H         0.92045434     0.03253501    -0.59749153     0.00066352     0.00031729    -0.00058568
H         0.80996322    -0.21284272     1.93047508     0.00046531    -0.00062693     0.00038184
H        -0.96087066    -0.06825811     1.88705763     0.00012975     0.00009971     0.00035149
H        -1.01390224     0.00977949    -0.59857372    -0.00039301    -0.00026847    -0.00050561
     6
  Step:    40            Position(A)                                  Velocity(au)
C        -0.03777850     0.01903768    -0.14065418    -0.00001329     0.00000998    -0.00050899
N        -0.03768929    -0.04714055     1.43553025    -0.00006214     0.00002755     0.00046214
H         0.92430246     0.03432621    -0.60085544     0.00070107     0.00032162    -0.00061020
H         0.81277753    -0.21642670     1.93273609     0.00052949    -0.00064999     0.00041949
H        -0.95999804    -0.06769085     1.88899217     0.00017732     0.00010254     0.00034020
H        -1.01609490     0.00825321    -0.60141481    -0.00038601    -0.00027597    -0.00050638
     6
  Step:    41            Position(A)                                  Velocity(au)
C        -0.03786041     0.01909132    -0.14343883    -0.00001557     0.00000917    -0.00048548
N        -0.03805914    -0.04697966     1.43806146    -0.00006883     0.00002976     0.00044167
H         0.92831548     0.03614140    -0.60433374     0.00072334     0.00032627    -0.00062733
H         0.81590041    -0.22013107     1.93517888     0.00057560    -0.00067058     0.00044696
H        -0.95888234    -0.06710835     1.89087227     0.00021642     0.00010528     0.00033265
H        -1.01823063     0.00668504    -0.60425176    -0.00037340    -0.00028380    -0.00050487
     6
  Step:    42            Position(A)                                  Velocity(au)
C        -0.03795293     0.01914047    -0.14609425    -0.00001709     0.00000839    -0.00046347
N        -0.03846053    -0.04680710     1.44047941    -0.00007346     0.00003176     0.00042228
H         0.93240788     0.03798222    -0.60788499     0.00073060     0.00033116    -0.00063718
H         0.81922744    -0.22394088     1.93774456     0.00060297    -0.00068841     0.00046387
H        -0.95757295    -0.06651110     1.89271966     0.00024657     0.00010795     0.00032903
H        -1.02027906     0.00507311    -0.60707214    -0.00035556    -0.00029195    -0.00050121
     6
  Step:    43            Position(A)                                  Velocity(au)
C        -0.03805183     0.01918527    -0.14862881    -0.00001788     0.00000763    -0.00044289
N        -0.03888180    -0.04662406     1.44279026    -0.00007604     0.00003354     0.00040396
H         0.93649688     0.03984983    -0.61146904     0.00072350     0.00033626    -0.00064008
H         0.82265262    -0.22784003     1.94037336     0.00061162    -0.00070336     0.00047023
H        -0.95612118    -0.06589946     1.89455676     0.00026755     0.00011057     0.00032942
H        -1.02221226     0.00341571    -0.60986443    -0.00033296    -0.00030043    -0.00049559
     6
  Step:    44            Position(A)                                  Velocity(au)
C        -0.03815304     0.01922587    -0.15105050    -0.00001796     0.00000690    -0.00042369
N        -0.03931143    -0.04643180     1.44499997    -0.00007659     0.00003510     0.00038666
H         0.94050441     0.04174517    -0.61504794     0.00070300     0.00034153    -0.00063647
H         0.82607193    -0.23181201     1.94300674     0.00060215    -0.00071544     0.00046641
H        -0.95457884    -0.06527369     1.89640611     0.00027939     0.00011317     0.00033382
H        -1.02400509     0.00171105    -0.61261817    -0.00030611    -0.00030926    -0.00048822
     6