|===============================================================================
|
|  DFTB+ release 20.1
|
|  Copyright (C) 2006 - 2020  DFTB+ developers group
|
|===============================================================================
|
|  When publishing results obtained with DFTB+, please cite the following
|  reference:
|
|  * DFTB+, a software package for efficient approximate density functional
|    theory based atomistic simulations, J. Chem. Phys. 152, 124101 (2020).
|    [doi: 10.1063/1.5143190]
|
|  You should also cite additional publications crediting the parametrization
|  data you use. Please consult the documentation of the SK-files for the
|  references.
|
|===============================================================================

Reading input file 'dftb_in.hsd'
Parser version: 8

--------------------------------------------------------------------------------
Reading SK-files:
Done.


Processed input in HSD format written to 'dftb_pin.hsd'

Starting initialization...
--------------------------------------------------------------------------------
OpenMP threads:              1
Chosen random seed:          509993049
Mode:                        Static calculation
Self consistent charges:     Yes
SCC-tolerance:                 0.100000E-05
Max. scc iterations:                   1000
Shell resolved Hubbard:      No
Spin polarisation:           No
Nr. of up electrons:             6.000000
Nr. of down electrons:           6.000000
Periodic boundaries:         No
Electronic solver:           Relatively robust
Maximal SCC-cycles:                    1000
Initial charges:             Set automatically (system chrg:   0.100E+01)
Included shells:             C:  s, p
                             N:  s, p
                             H:  s
Spin coupling constants:     C   1(s)-1(s):  -0.455900E-01
                             C   1(s)-2(p):  -0.293000E-01
                             C   2(p)-1(s):  -0.293000E-01
                             C   2(p)-2(p):  -0.275500E-01
                             N   1(s)-1(s):  -0.468700E-01
                             N   1(s)-2(p):  -0.317000E-01
                             N   2(p)-1(s):  -0.317000E-01
                             N   2(p)-2(p):  -0.307200E-01
                             H   1(s)-1(s):  -0.792500E-01
Range separated hybrid:      Yes
  Screening parameter omega:   0.300000E+00
  Range separated algorithm:   MatrixBased
Extra options:
                             Mulliken analysis
                             Force calculation
Force type                   original
                             Eigenvector printing


REKS Calcuation:             Yes
SSR(2,2) Calcuation:         Yes
Energy Functional:           (PPS+OSS)/2
Number of Core Orbitals:                  5
Number of Active Orbitals:                2
Number of Basis:                         12
Number of States:                         2
State-Averaging Weight:          0.500000
                                 0.500000
State of Interest:                        1
Initial Guess:               Diagonalize H0 matrix
Newton-Raphson for FON opt:  Yes
NR max. Iterations:                      50
Level Shifting:              Yes
Shift Value:                     0.300000
W Scale Factor:              C  =    3.000000
                             N  =    3.000000
                             H  =    3.000000
Transition Dipole:           No
Gradient of Microstate:      No
CP-REKS Solver:              Preconditioned Conjugate-Gradient
CG max. Iterations:                     100
CG Tolerance:                  0.100000E-07
Memory for A and Hxc:        Direct Updating Without Saving
Non-Adiabatic Coupling:      Yes

--------------------------------------------------------------------------------

***  Geometry step: 0

  iSCC       reks energy        Diff energy         x_a       SCC error   
    1       -6.2827334087       0.0000000000     0.999955    1.19149322
    2       -6.2851339411      -0.0024005324     0.999962    0.02139053
    3       -6.2856399616      -0.0005060204     0.999966    0.00841841
    4       -6.2857845067      -0.0001445451     0.999968    0.00458849
    5       -6.2858383934      -0.0000538868     0.999969    0.00256217
    6       -6.2858631320      -0.0000247386     0.999970    0.00214119
    7       -6.2858760480      -0.0000129159     0.999970    0.00174977
    8       -6.2858832772      -0.0000072293     0.999970    0.00141057
    9       -6.2858874756      -0.0000041984     0.999971    0.00112797
   10       -6.2858899647      -0.0000024891     0.999971    0.00089758
   11       -6.2858914592      -0.0000014945     0.999971    0.00071205
   12       -6.2858923642      -0.0000009050     0.999971    0.00056376
   13       -6.2858929155      -0.0000005514     0.999971    0.00044578
   14       -6.2858932530      -0.0000003375     0.999971    0.00035220
   15       -6.2858934604      -0.0000002074     0.999971    0.00027811
   16       -6.2858935882      -0.0000001278     0.999971    0.00021953
   17       -6.2858936671      -0.0000000789     0.999971    0.00017326
   18       -6.2858937159      -0.0000000488     0.999971    0.00013672
   19       -6.2858937462      -0.0000000303     0.999971    0.00010789
   20       -6.2858937650      -0.0000000188     0.999971    0.00008513
   21       -6.2858937767      -0.0000000117     0.999971    0.00006718
   22       -6.2858937839      -0.0000000073     0.999971    0.00005302
   23       -6.2858937885      -0.0000000045     0.999971    0.00004184
   24       -6.2858937913      -0.0000000028     0.999971    0.00003303
   25       -6.2858937930      -0.0000000018     0.999971    0.00002607
   26       -6.2858937941      -0.0000000011     0.999971    0.00002058
   27       -6.2858937948      -0.0000000007     0.999972    0.00001625
   28       -6.2858937952      -0.0000000004     0.999972    0.00001283
   29       -6.2858937955      -0.0000000003     0.999972    0.00001013
   30       -6.2858937957      -0.0000000002     0.999972    0.00000800
   31       -6.2858937958      -0.0000000001     0.999972    0.00000632
   32       -6.2858937958      -0.0000000001     0.999972    0.00000499
   33       -6.2858937959      -0.0000000000     0.999972    0.00000394
   34       -6.2858937959      -0.0000000000     0.999972    0.00000311
   35       -6.2858937959      -0.0000000000     0.999972    0.00000246
   36       -6.2858937959      -0.0000000000     0.999972    0.00000194
   37       -6.2858937959      -0.0000000000     0.999972    0.00000153
   38       -6.2858937959      -0.0000000000     0.999972    0.00000121
   39       -6.2858937959      -0.0000000000     0.999972    0.00000096
  
--------------------------------------------------
 Final SA-REKS(2,2) energy:      -6.28589380
  
 State     Energy      FON(1)    FON(2)   Spin
  PPS   -6.41478375   1.999943  0.000057  0.00
  OSS   -6.15700384   1.000000  1.000000  0.00
 Trip   -6.23485444   1.000000  1.000000  1.00
--------------------------------------------------

 Lagrangian Wab:   0.00014020  0.00014020

--------------------------------------------------
 SSR: 2SI-2SA-REKS(2,2) Hamiltonian matrix
               PPS           OSS
   PPS    -6.41478375    0.00019721
   OSS     0.00019721   -6.15700384
--------------------------------------------------

----------------------------------------------------------------
 SSR: 2SI-2SA-REKS(2,2) states
                    E_n       C_{PPS}    C_{OSS}
 SSR state  1   -6.41478390  -1.000000   0.000765
 SSR state  2   -6.15700369  -0.000765  -1.000000
----------------------------------------------------------------

 unrelaxed SSR FONs for S0:  1.999942  0.000058

Total Energy:                       -6.4147838995 H         -174.5552 eV
Extrapolated to 0:                  -6.4147838995 H         -174.5552 eV

----------------------------------------------------------------------------------
 Solving CP-REKS equation for  1 state vector...
----------------------------------------------------------------------------------
  CG solver: Constructing Y initial guess
  CG solver: Iteration    1    eps =    0.000029544428
  CG solver: Iteration    2    eps =    0.000000835027
  CG solver: Iteration    3    eps =    0.000000280759
  CG solver: Iteration    4    eps =    0.000000003634
  Convergence reached in CG solver after    4 iterations
  CG solver: Calculating converged R, Z, Q2 matrix
----------------------------------------------------------------------------------

----------------------------------------------------------------------------------
 Solving CP-REKS equation for SI between  1 and  2 state vectors...
----------------------------------------------------------------------------------
  CG solver: Constructing Y initial guess
  CG solver: Iteration    1    eps =    0.000363544967
  CG solver: Iteration    2    eps =    0.000102742213
  CG solver: Iteration    3    eps =    0.000003489063
  CG solver: Iteration    4    eps =    0.000000168438
  CG solver: Iteration    5    eps =    0.000000007668
  Convergence reached in CG solver after    5 iterations
  CG solver: Calculating converged R, Z, Q2 matrix
----------------------------------------------------------------------------------

--------------------------------------------------
 Gradient Information
--------------------------------------------------
           1 st state (SSR)
     0.00401388    -0.00829090     0.01659455
    -0.02354335     0.00758873    -0.01449605
     0.00069379     0.00098363    -0.00203945
     0.00965908    -0.00021305     0.00968694
     0.00803455    -0.00411451     0.00015249
     0.00114205     0.00404610    -0.00989849

           2 st state (SSR)
    -0.01466657     0.00014489     0.11311184
     0.02357733     0.00935150    -0.13227604
    -0.00225987    -0.01748767     0.01601343
    -0.00369713     0.00619233    -0.00039186
    -0.00618882    -0.00994765    -0.00867747
     0.00323506     0.01174661     0.01222011
--------------------------------------------------
 Coupling Information
--------------------------------------------------
 between  1 and  2 states
--------------------------------------------------
 g vector - difference gradient
     0.00933922    -0.00421308    -0.04825823
    -0.02356283    -0.00089182     0.05888976
     0.00148673     0.00923304    -0.00902625
     0.00668787    -0.00320029     0.00503823
     0.00710343     0.00292214     0.00441617
    -0.00105441    -0.00385000    -0.01105968

 h vector - derivative coupling
    -0.00066060     0.00315308     0.00030734
    -0.00160860    -0.00682104    -0.00020118
     0.00646569    -0.00170919     0.00012897
     0.00637331     0.00157338    -0.00076557
    -0.00540072     0.00363518     0.00077400
    -0.00516909     0.00016859    -0.00024356

 G vector - GDV
     0.00934022    -0.00421789    -0.04825864
    -0.02356034    -0.00088138     0.05889000
     0.00147683     0.00923565    -0.00902644
     0.00667811    -0.00320269     0.00503940
     0.00711168     0.00291657     0.00441498
    -0.00104650    -0.00385025    -0.01105930

 H vector - DCV - non-adiabatic coupling
    -0.00250719     0.01220663     0.00090581
    -0.00638005    -0.02646594    -0.00043089
     0.02509099    -0.00657559     0.00044673
     0.02476347     0.00608457    -0.00293993
    -0.02090867     0.01411919     0.00302876
    -0.02005854     0.00063114    -0.00101048
--------------------------------------------------


--------------------------------------------------------------------------------
DFTB+ running times                          cpu [s]             wall clock [s]
--------------------------------------------------------------------------------
Global initialisation                  +     0.00  (  2.9%)      0.01  ( 23.8%)
SCC                                    +     0.02  ( 64.5%)      0.02  ( 50.0%)
Post-SCC processing                    +     0.01  ( 30.8%)      0.01  ( 23.8%)
--------------------------------------------------------------------------------
Missing                                +     0.00  (  1.8%)      0.00  (  2.4%)
Total                                  =     0.03  (100.0%)      0.04  (100.0%)
--------------------------------------------------------------------------------
