     6
  Step:   300            Position(A)                                  Velocity(au)
C        -0.04443982     0.02032902     0.01232082     0.00000374    -0.00001879    -0.00004308
N        -0.03754322    -0.05446160     1.30167440    -0.00001283     0.00008659     0.00004251
H         0.90421248     0.10214838    -0.52416398    -0.00016472     0.00002754    -0.00020148
H         0.82113183    -0.23596077     1.82829609    -0.00015921    -0.00050855     0.00008456
H        -0.88650562    -0.00353733     1.86586915     0.00023197    -0.00040133     0.00028295
H        -1.00051678    -0.01784204    -0.51329595     0.00022565    -0.00009705    -0.00024353
