|===============================================================================
|
|  DFTB+ release 20.1
|
|  Copyright (C) 2006 - 2020  DFTB+ developers group
|
|===============================================================================
|
|  When publishing results obtained with DFTB+, please cite the following
|  reference:
|
|  * DFTB+, a software package for efficient approximate density functional
|    theory based atomistic simulations, J. Chem. Phys. 152, 124101 (2020).
|    [doi: 10.1063/1.5143190]
|
|  You should also cite additional publications crediting the parametrization
|  data you use. Please consult the documentation of the SK-files for the
|  references.
|
|===============================================================================

Reading input file 'dftb_in.hsd'
Parser version: 8

--------------------------------------------------------------------------------
Reading SK-files:
Done.


Processed input in HSD format written to 'dftb_pin.hsd'

Starting initialization...
--------------------------------------------------------------------------------
OpenMP threads:              1
Chosen random seed:          507935325
Mode:                        Static calculation
Self consistent charges:     Yes
SCC-tolerance:                 0.100000E-05
Max. scc iterations:                   1000
Shell resolved Hubbard:      No
Spin polarisation:           No
Nr. of up electrons:             6.000000
Nr. of down electrons:           6.000000
Periodic boundaries:         No
Electronic solver:           Relatively robust
Maximal SCC-cycles:                    1000
Initial charges:             Set automatically (system chrg:   0.100E+01)
Included shells:             C:  s, p
                             N:  s, p
                             H:  s
Spin coupling constants:     C   1(s)-1(s):  -0.455900E-01
                             C   1(s)-2(p):  -0.293000E-01
                             C   2(p)-1(s):  -0.293000E-01
                             C   2(p)-2(p):  -0.275500E-01
                             N   1(s)-1(s):  -0.468700E-01
                             N   1(s)-2(p):  -0.317000E-01
                             N   2(p)-1(s):  -0.317000E-01
                             N   2(p)-2(p):  -0.307200E-01
                             H   1(s)-1(s):  -0.792500E-01
Range separated hybrid:      Yes
  Screening parameter omega:   0.300000E+00
  Range separated algorithm:   MatrixBased
Extra options:
                             Mulliken analysis
                             Force calculation
Force type                   original
                             Eigenvector printing


REKS Calcuation:             Yes
SSR(2,2) Calcuation:         Yes
Energy Functional:           (PPS+OSS)/2
Number of Core Orbitals:                  5
Number of Active Orbitals:                2
Number of Basis:                         12
Number of States:                         2
State-Averaging Weight:          0.500000
                                 0.500000
State of Interest:                        1
Initial Guess:               Diagonalize H0 matrix
Newton-Raphson for FON opt:  Yes
NR max. Iterations:                      50
Level Shifting:              Yes
Shift Value:                     0.300000
W Scale Factor:              C  =    3.000000
                             N  =    3.000000
                             H  =    3.000000
Transition Dipole:           No
Gradient of Microstate:      No
CP-REKS Solver:              Preconditioned Conjugate-Gradient
CG max. Iterations:                     100
CG Tolerance:                  0.100000E-07
Memory for A and Hxc:        Direct Updating Without Saving
Non-Adiabatic Coupling:      Yes

--------------------------------------------------------------------------------

***  Geometry step: 0

  iSCC       reks energy        Diff energy         x_a       SCC error   
    1       -6.2645937324       0.0000000000     0.998477    1.17707337
    2       -6.2779322924      -0.0133385600     0.999450    0.10847555
    3       -6.2815676993      -0.0036354069     0.999715    0.05065473
    4       -6.2830380063      -0.0014703070     0.999816    0.02587948
    5       -6.2837493251      -0.0007113188     0.999861    0.01420333
    6       -6.2841614756      -0.0004121505     0.999884    0.00808504
    7       -6.2844387906      -0.0002773150     0.999896    0.00494635
    8       -6.2846439802      -0.0002051896     0.999903    0.00475111
    9       -6.2848038478      -0.0001598676     0.999907    0.00444616
   10       -6.2849316149      -0.0001277671     0.999910    0.00409757
   11       -6.2850348538      -0.0001032389     0.999912    0.00373805
   12       -6.2851185317      -0.0000836778     0.999913    0.00338465
   13       -6.2851862751      -0.0000677434     0.999914    0.00304668
   14       -6.2852409311      -0.0000546560     0.999914    0.00272932
   15       -6.2852848296      -0.0000438985     0.999914    0.00245616
   16       -6.2853199146      -0.0000350851     0.999915    0.00224971
   17       -6.2853478171      -0.0000279025     0.999915    0.00204754
   18       -6.2853699021      -0.0000220849     0.999915    0.00185342
   19       -6.2853873046      -0.0000174026     0.999915    0.00166989
   20       -6.2854009616      -0.0000136570     0.999915    0.00149848
   21       -6.2854116394      -0.0000106778     0.999915    0.00133995
   22       -6.2854199601      -0.0000083207     0.999915    0.00119455
   23       -6.2854264247      -0.0000064646     0.999915    0.00106208
   24       -6.2854314340      -0.0000050093     0.999915    0.00094210
   25       -6.2854353064      -0.0000038724     0.999915    0.00083396
   26       -6.2854382938      -0.0000029874     0.999915    0.00073691
   27       -6.2854405942      -0.0000023004     0.999914    0.00065011
   28       -6.2854423628      -0.0000017686     0.999914    0.00057274
   29       -6.2854437205      -0.0000013577     0.999914    0.00050395
   30       -6.2854447616      -0.0000010411     0.999914    0.00044294
   31       -6.2854455589      -0.0000007974     0.999914    0.00038895
   32       -6.2854461691      -0.0000006101     0.999914    0.00034124
   33       -6.2854466355      -0.0000004665     0.999914    0.00029916
   34       -6.2854469919      -0.0000003564     0.999914    0.00026210
   35       -6.2854472640      -0.0000002721     0.999914    0.00022950
   36       -6.2854474716      -0.0000002076     0.999914    0.00020085
   37       -6.2854476299      -0.0000001583     0.999914    0.00017569
   38       -6.2854477507      -0.0000001207     0.999914    0.00015362
   39       -6.2854478426      -0.0000000920     0.999914    0.00013428
   40       -6.2854479127      -0.0000000701     0.999914    0.00011734
   41       -6.2854479661      -0.0000000534     0.999914    0.00010250
   42       -6.2854480067      -0.0000000406     0.999914    0.00008952
   43       -6.2854480377      -0.0000000309     0.999914    0.00007817
   44       -6.2854480612      -0.0000000235     0.999914    0.00006824
   45       -6.2854480791      -0.0000000179     0.999914    0.00005957
   46       -6.2854480927      -0.0000000136     0.999914    0.00005199
   47       -6.2854481031      -0.0000000104     0.999914    0.00004537
   48       -6.2854481110      -0.0000000079     0.999914    0.00003958
   49       -6.2854481170      -0.0000000060     0.999914    0.00003453
   50       -6.2854481216      -0.0000000046     0.999914    0.00003013
   51       -6.2854481250      -0.0000000035     0.999914    0.00002628
   52       -6.2854481277      -0.0000000026     0.999914    0.00002292
   53       -6.2854481297      -0.0000000020     0.999914    0.00001999
   54       -6.2854481312      -0.0000000015     0.999914    0.00001744
   55       -6.2854481324      -0.0000000012     0.999914    0.00001521
   56       -6.2854481332      -0.0000000009     0.999914    0.00001326
   57       -6.2854481339      -0.0000000007     0.999914    0.00001156
   58       -6.2854481344      -0.0000000005     0.999914    0.00001008
   59       -6.2854481348      -0.0000000004     0.999914    0.00000879
   60       -6.2854481351      -0.0000000003     0.999914    0.00000767
   61       -6.2854481353      -0.0000000002     0.999914    0.00000669
   62       -6.2854481355      -0.0000000002     0.999914    0.00000583
   63       -6.2854481356      -0.0000000001     0.999914    0.00000508
   64       -6.2854481357      -0.0000000001     0.999914    0.00000443
   65       -6.2854481358      -0.0000000001     0.999914    0.00000386
   66       -6.2854481359      -0.0000000001     0.999914    0.00000337
   67       -6.2854481359      -0.0000000000     0.999914    0.00000294
   68       -6.2854481359      -0.0000000000     0.999914    0.00000256
   69       -6.2854481360      -0.0000000000     0.999914    0.00000223
   70       -6.2854481360      -0.0000000000     0.999914    0.00000195
   71       -6.2854481360      -0.0000000000     0.999914    0.00000170
   72       -6.2854481360      -0.0000000000     0.999914    0.00000148
   73       -6.2854481360      -0.0000000000     0.999914    0.00000129
   74       -6.2854481360      -0.0000000000     0.999914    0.00000112
   75       -6.2854481360      -0.0000000000     0.999914    0.00000098
  
--------------------------------------------------
 Final SA-REKS(2,2) energy:      -6.28544814
  
 State     Energy      FON(1)    FON(2)   Spin
  PPS   -6.40484246   1.999828  0.000172  0.00
  OSS   -6.16605382   1.000000  1.000000  0.00
 Trip   -6.24823575   1.000000  1.000000  1.00
--------------------------------------------------

 Lagrangian Wab:  -0.01008152 -0.01008116

--------------------------------------------------
 SSR: 2SI-2SA-REKS(2,2) Hamiltonian matrix
               PPS           OSS
   PPS    -6.40484246   -0.01412454
   OSS    -0.01412454   -6.16605382
--------------------------------------------------

----------------------------------------------------------------
 SSR: 2SI-2SA-REKS(2,2) states
                    E_n       C_{PPS}    C_{OSS}
 SSR state  1   -6.40567503  -0.998267  -0.058843
 SSR state  2   -6.16522124   0.058843  -0.998267
----------------------------------------------------------------

 unrelaxed SSR FONs for S0:  1.996366  0.003634

Total Energy:                       -6.4056750317 H         -174.3073 eV
Extrapolated to 0:                  -6.4056750317 H         -174.3073 eV

----------------------------------------------------------------------------------
 Solving CP-REKS equation for  1 state vector...
----------------------------------------------------------------------------------
  CG solver: Constructing Y initial guess
  CG solver: Iteration    1    eps =    0.000422190532
  CG solver: Iteration    2    eps =    0.000075431044
  CG solver: Iteration    3    eps =    0.000033947864
  CG solver: Iteration    4    eps =    0.000003508941
  CG solver: Iteration    5    eps =    0.000000040069
  CG solver: Iteration    6    eps =    0.000000022009
  CG solver: Iteration    7    eps =    0.000000000384
  Convergence reached in CG solver after    7 iterations
  CG solver: Calculating converged R, Z, Q2 matrix
----------------------------------------------------------------------------------

----------------------------------------------------------------------------------
 Solving CP-REKS equation for SI between  1 and  2 state vectors...
----------------------------------------------------------------------------------
  CG solver: Constructing Y initial guess
  CG solver: Iteration    1    eps =    0.006760419416
  CG solver: Iteration    2    eps =    0.011237562543
  CG solver: Iteration    3    eps =    0.001009269841
  CG solver: Iteration    4    eps =    0.000016572091
  CG solver: Iteration    5    eps =    0.000002637693
  CG solver: Iteration    6    eps =    0.000000081200
  CG solver: Iteration    7    eps =    0.000000008137
  Convergence reached in CG solver after    7 iterations
  CG solver: Calculating converged R, Z, Q2 matrix
----------------------------------------------------------------------------------

--------------------------------------------------
 Gradient Information
--------------------------------------------------
           1 st state (SSR)
     0.00851898     0.00419413    -0.02547890
    -0.02114749     0.00209999     0.02988290
     0.01407668     0.00300746     0.00735640
     0.02282764     0.00060095    -0.00991899
    -0.00945223    -0.00692863    -0.00499051
    -0.01482357    -0.00297390     0.00314909

           2 st state (SSR)
    -0.00876585    -0.00613984     0.08537373
     0.02233377    -0.00022796    -0.09501050
    -0.01668764     0.00976128     0.02038579
    -0.02081816     0.00150679    -0.01502597
     0.00799018     0.00290561    -0.01359818
     0.01594770    -0.00780587     0.01787512
--------------------------------------------------
 Coupling Information
--------------------------------------------------
 between  1 and  2 states
--------------------------------------------------
 g vector - difference gradient
     0.00889591     0.00554966    -0.06236332
    -0.02338457     0.00133017     0.06819412
     0.01813388    -0.00245158    -0.00588071
     0.02518529    -0.00115364     0.00240278
    -0.01106506    -0.00483217     0.00461358
    -0.01776545     0.00155755    -0.00696645

 h vector - derivative coupling
    -0.00163336    -0.00293013     0.05537117
     0.01261465    -0.00133623    -0.04490182
    -0.02235349    -0.00802087    -0.00574309
    -0.02713582     0.00589642     0.00142452
     0.01929846    -0.00100792    -0.00236456
     0.01920956     0.00739874    -0.00378621

 G vector - GDV
     0.00864241     0.00516699    -0.05542632
    -0.02174063     0.00116398     0.06244670
     0.01538216    -0.00337691    -0.00651470
     0.02182290    -0.00045292     0.00255349
    -0.00872120    -0.00491712     0.00430384
    -0.01538563     0.00241599    -0.00736302

 H vector - DCV - non-adiabatic coupling
    -0.01109221    -0.01481295     0.25915298
     0.06352394    -0.00616855    -0.21876339
    -0.10117996    -0.03192843    -0.02084577
    -0.12437622     0.02491589     0.00470930
     0.08510893    -0.00180179    -0.01201977
     0.08801552     0.02979583    -0.01223337
--------------------------------------------------


--------------------------------------------------------------------------------
DFTB+ running times                          cpu [s]             wall clock [s]
--------------------------------------------------------------------------------
SCC                                    +     0.04  ( 71.7%)      0.05  ( 65.8%)
Post-SCC processing                    +     0.01  ( 25.1%)      0.02  ( 28.8%)
  Force calculation                          0.01  ( 24.4%)      0.01  ( 16.4%)
--------------------------------------------------------------------------------
Missing                                +     0.00  (  3.2%)      0.00  (  5.5%)
Total                                  =     0.05  (100.0%)      0.07  (100.0%)
--------------------------------------------------------------------------------
