     6
  Step:     0            Position(A)                                  Velocity(au)
C        -0.03597327     0.01126535     0.01349356     0.00016387    -0.00014021    -0.00040257
N        -0.03182358    -0.04808947     1.30310689    -0.00006978     0.00007875     0.00040257
H         0.89743103     0.00788473    -0.53898276    -0.00095524     0.00072996     0.00036245
H         0.78422874    -0.13731647     1.83866120     0.00004632    -0.00046075    -0.00066791
H        -1.02484532    -0.05045629     1.81942416     0.00039121    -0.00008377    -0.00070919
H        -0.99886151     0.04413939    -0.49628325    -0.00046541     0.00039097     0.00021748
     6
  Step:     1            Position(A)                                  Velocity(au)
C        -0.03508156     0.01053078     0.01094079     0.00016072    -0.00012889    -0.00052828
N        -0.03231103    -0.04765395     1.30560928    -0.00010820     0.00008031     0.00050999
H         0.89236947     0.01177867    -0.53708214    -0.00088444     0.00069584     0.00032493
H         0.78518212    -0.14001449     1.83547473     0.00030499    -0.00052351    -0.00049294
H        -1.02195323    -0.05100400     1.81525969     0.00066059    -0.00011468    -0.00080775
H        -1.00149792     0.04619220    -0.49518785    -0.00049291     0.00036224     0.00018390
     6
  Step:     2            Position(A)                                  Velocity(au)
C        -0.03421461     0.00985497     0.00771294     0.00015456    -0.00011852    -0.00064736
N        -0.03300748    -0.04721070     1.30868730    -0.00014539     0.00008141     0.00061132
H         0.88775321     0.01549884    -0.53542731    -0.00079052     0.00066521     0.00027208
H         0.78756602    -0.14304491     1.83326728     0.00056396    -0.00058075    -0.00031249
H        -1.01761693    -0.05171119     1.81058554     0.00091438    -0.00014182    -0.00089240
H        -1.00425506     0.04810310    -0.49427101    -0.00050923     0.00033828     0.00015181
     6
  Step:     3            Position(A)                                  Velocity(au)
C        -0.03338873     0.00923268     0.00385029     0.00014533    -0.00010898    -0.00075715
N        -0.03390347    -0.04676225     1.31230495    -0.00017997     0.00008197     0.00070445
H         0.88371098     0.01906459    -0.53410209    -0.00067266     0.00063728     0.00020417
H         0.79135906    -0.14637538     1.83205202     0.00081281    -0.00063094    -0.00013319
H        -1.01193812    -0.05255735     1.80548537     0.00114403    -0.00016517    -0.00095890
H        -1.00707550     0.04989736    -0.49352513    -0.00051520     0.00031830     0.00012091
     6
  Step:     4            Position(A)                                  Velocity(au)
C        -0.03262032     0.00865947    -0.00059290     0.00013312    -0.00010013    -0.00085485
N        -0.03498170    -0.04631146     1.31641504    -0.00021038     0.00008193     0.00078711
H         0.88037427     0.02248973    -0.53318760    -0.00053138     0.00061095     0.00012228
H         0.79648238    -0.14996621     1.83180615     0.00104039    -0.00067260     0.00003811
H        -1.00506712    -0.05352313     1.80006654     0.00133983    -0.00018499    -0.00100273
H        -1.00990676     0.05159480    -0.49294468    -0.00051168     0.00030125     0.00009083
     6
  Step:     5            Position(A)                                  Velocity(au)
C        -0.03192527     0.00813184    -0.00554794     0.00011811    -0.00009182    -0.00093779
N        -0.03621635    -0.04586149     1.32095846    -0.00023504     0.00008123     0.00085704
H         0.87786896     0.02578140    -0.53275777    -0.00036907     0.00058507     0.00002842
H         0.80279709    -0.15376997     1.83247105     0.00123571    -0.00070427     0.00019489
H        -0.99720808    -0.05459117     1.79446136     0.00149163    -0.00020162    -0.00101948
H        -1.01270087     0.05320924    -0.49252653    -0.00049954     0.00028610     0.00006120
     6
  Step:     6            Position(A)                                  Velocity(au)
C        -0.03131816     0.00764717    -0.01093236     0.00010070    -0.00008392    -0.00100370
N        -0.03757310    -0.04541587     1.32586423    -0.00025250     0.00007982     0.00091224
H         0.87630514     0.02894040    -0.53287425    -0.00019007     0.00055869    -0.00007443
H         0.81010656    -0.15773105     1.83395485     0.00138909    -0.00072459     0.00033143
H        -0.98862134    -0.05574611     1.78882645     0.00158954    -0.00021542    -0.00100525
H        -1.01541438     0.05474920    -0.49226993    -0.00047980     0.00027205     0.00003168
     6
  Step:     7            Position(A)                                  Velocity(au)
C        -0.03081121     0.00720345    -0.01665231     0.00008149    -0.00007636    -0.00105117
N        -0.03900984    -0.04497841     1.33105092    -0.00026163     0.00007769     0.00095135
H         0.87576615     0.03196241    -0.53358120    -0.00000059     0.00053118    -0.00018246
H         0.81816521    -0.16178638     1.83613775     0.00149348    -0.00073264     0.00044346
H        -0.97962236    -0.05697450     1.78333986     0.00162547    -0.00022679    -0.00095751
H        -1.01800914     0.05621906    -0.49217609    -0.00045374     0.00025853     0.00000202
     6
  Step:     8            Position(A)                                  Velocity(au)
C        -0.03041314     0.00679909    -0.02260708     0.00006124    -0.00006913    -0.00107999
N        -0.04047890    -0.04455301     1.33643033    -0.00026190     0.00007488     0.00097405
H         0.87629862     0.03483992    -0.53490074     0.00019190     0.00050236    -0.00029136
H         0.82669382    -0.16586804     1.83888009     0.00154557    -0.00072827     0.00052864
H        -0.97056811    -0.05826493     1.77819193     0.00159511    -0.00023620    -0.00087590
H        -1.02045378     0.05762055    -0.49224749    -0.00042293     0.00024528    -0.00002789
     6
  Step:     9            Position(A)                                  Velocity(au)
C        -0.03012833     0.00643254    -0.02869572     0.00004080    -0.00006227    -0.00109146
N        -0.04193039    -0.04414336     1.34191296    -0.00025345     0.00007152     0.00098130
H         0.87790607     0.03756447    -0.53683029     0.00037960     0.00047251    -0.00039681
H         0.83540053    -0.16990765     1.84203278     0.00154647    -0.00071236     0.00058685
H        -0.96183460    -0.05960844     1.77357232     0.00149883    -0.00024427    -0.00076252
H        -1.02272538     0.05895430    -0.49248707    -0.00038924     0.00023234    -0.00005807
     6
  Step:    10            Position(A)                                  Velocity(au)
C        -0.02995638     0.00610202    -0.03482475     0.00002102    -0.00005586    -0.00108837
N        -0.04331594    -0.04375246     1.34741485    -0.00023709     0.00006778     0.00097537
H         0.88054781     0.04012909    -0.53934251     0.00055561     0.00044226    -0.00049505
H         0.84400479    -0.17384205     1.84544922     0.00150141    -0.00068675     0.00062017
H        -0.95379043    -0.06099929     1.76965644     0.00134177    -0.00025181    -0.00062158
H        -1.02481093     0.06022132    -0.49289750    -0.00035468     0.00021998    -0.00008851
     6
  Step:    11            Position(A)                                  Velocity(au)
C        -0.02989233     0.00580535    -0.04091636     0.00000413    -0.00008051    -0.00173132
N        -0.04459250    -0.04338229     1.35286480    -0.00034503     0.00010296     0.00154597
H         0.88414464     0.04253034    -0.54238892     0.00115191     0.00066455    -0.00094039
H         0.85225903    -0.17761873     1.84899630     0.00228542    -0.00105365     0.00101873
H        -0.94676865    -0.06243582     1.76659292     0.00182533    -0.00041842    -0.00073906
H        -1.02670790     0.06142436    -0.49348095    -0.00051737     0.00033614    -0.00019213
     6
  Step:    12            Position(A)                                  Velocity(au)
C        -0.02990039     0.00535272    -0.05023826    -0.00000565    -0.00007905    -0.00155216
N        -0.04644557    -0.04281310     1.36123081    -0.00030401     0.00009752     0.00139950
H         0.89119077     0.04625588    -0.54822243     0.00131161     0.00064795    -0.00110039
H         0.86475192    -0.18342831     1.85469980     0.00209371    -0.00099000     0.00097709
H        -0.93729878    -0.06473257     1.76301244     0.00148030    -0.00039213    -0.00050974
H        -1.02987067     0.06328911    -0.49494717    -0.00059384     0.00032091    -0.00031925
     6
  Step:    13            Position(A)                                  Velocity(au)
C        -0.02995650     0.00490676    -0.05856065    -0.00001277    -0.00007788    -0.00137711
N        -0.04804837    -0.04227369     1.36877371    -0.00025715     0.00009224     0.00125401
H         0.89905444     0.04989596    -0.55489772     0.00143434     0.00063255    -0.00123285
H         0.87605944    -0.18887260     1.86010348     0.00186799    -0.00092322     0.00091374
H        -0.92994122    -0.06689341     1.76079837     0.00108680    -0.00036961    -0.00026172
H        -1.03345841     0.06507230    -0.49711003    -0.00066358     0.00030648    -0.00043559
     6
  Step:    14            Position(A)                                  Velocity(au)
C        -0.03004572     0.00446631    -0.06591212    -0.00001747    -0.00007745    -0.00121787
N        -0.04937242    -0.04176325     1.37550359    -0.00020807     0.00008779     0.00112023
H         0.90751595     0.05345537    -0.56225437     0.00152915     0.00062252    -0.00134684
H         0.88601283    -0.19393607     1.86509968     0.00163050    -0.00086107     0.00084081
H        -0.92492916    -0.06893933     1.76003366     0.00066857    -0.00035337    -0.00000501
H        -1.03742330     0.06677740    -0.49990489    -0.00072878     0.00029483    -0.00054384
     6
  Step:    15            Position(A)                                  Velocity(au)
C        -0.03015477     0.00402769    -0.07238388    -0.00000382    -0.00001483    -0.00020509
N        -0.05041002    -0.04127723     1.38148870    -0.00003020     0.00001607     0.00019060
H         0.91641084     0.05696178    -0.57018479     0.00030495     0.00011789    -0.00027577
H         0.89456620    -0.19864604     1.86964700     0.00026483    -0.00015352     0.00014558
H        -0.92235268    -0.07090423     1.76074150     0.00004581    -0.00006546     0.00004850
H        -1.04173036     0.06841869    -0.50328280    -0.00015044     0.00005454    -0.00012312
     6
  Step:    16            Position(A)                                  Velocity(au)
C        -0.03020528     0.00395183    -0.07356224    -0.00001380    -0.00001235    -0.00021590
N        -0.05045408    -0.04119092     1.38255465     0.00001342     0.00001483     0.00019043
H         0.91831452     0.05757874    -0.57186138     0.00037098     0.00010290    -0.00032102
H         0.89551371    -0.19940569     1.87034746     0.00007682    -0.00011862     0.00010526
H        -0.92325239    -0.07136937     1.76172327    -0.00035642    -0.00010027     0.00029600
H        -1.04246778     0.06873099    -0.50405983    -0.00011343     0.00005712    -0.00015384
     6
  Step:    17            Position(A)                                  Velocity(au)
C        -0.03030912     0.00388953    -0.07479840    -0.00002306    -0.00001007    -0.00022809
N        -0.05025993    -0.04111139     1.38361838     0.00005482     0.00001378     0.00019195
H         0.92055976     0.05811255    -0.57377493     0.00043096     0.00008897    -0.00036392
H         0.89542530    -0.19997265     1.87082416    -0.00010474    -0.00008582     0.00006715
H        -0.92633870    -0.07202557     1.76405183    -0.00073552    -0.00013487     0.00053192
H        -1.04299896     0.06905754    -0.50500328    -0.00007776     0.00006023    -0.00018460
     6
  Step:    18            Position(A)                                  Velocity(au)
C        -0.03046189     0.00383974    -0.07610002    -0.00003153    -0.00000790    -0.00024098
N        -0.04984408    -0.04103757     1.38469032     0.00009307     0.00001286     0.00019479
H         0.92310959     0.05856870    -0.57591052     0.00048314     0.00007541    -0.00040319
H         0.89434829    -0.20036051     1.87109456    -0.00027844    -0.00005492     0.00003217
H        -0.93143609    -0.07286994     1.76764160    -0.00107922    -0.00016871     0.00075102
H        -1.04333292     0.06940109    -0.50611381    -0.00004309     0.00006363    -0.00021537
     6
  Step:    19            Position(A)                                  Velocity(au)
C        -0.03065880     0.00380189    -0.07747104    -0.00003909    -0.00000578    -0.00025412
N        -0.04922776    -0.04096872     1.38577876     0.00012709     0.00001204     0.00019880
H         0.92591808     0.05894885    -0.57824654     0.00052600     0.00006176    -0.00043775
H         0.89233722    -0.20058177     1.87118098    -0.00044152    -0.00002616     0.00000163
H        -0.93830792    -0.07389667     1.77238103    -0.00137534    -0.00020118     0.00094774
H        -1.04347687     0.06976321    -0.50739183    -0.00000954     0.00006717    -0.00024605
     6
  Step:    20            Position(A)                                  Velocity(au)
C        -0.03089453     0.00377571    -0.07891279    -0.00004562    -0.00000369    -0.00026715
N        -0.04843733    -0.04090429     1.38689073     0.00015594     0.00001130     0.00020382
H         0.92893176     0.05925235    -0.58075586     0.00055836     0.00004778    -0.00046677
H         0.88946127    -0.20065005     1.87111266    -0.00059058     0.00000004    -0.00002299
H        -0.94665927    -0.07509670     1.77813180    -0.00161378    -0.00023166     0.00111726
H        -1.04343847     0.07014462    -0.50883722     0.00002261     0.00007075    -0.00027654
     6
  Step:    21            Position(A)                                  Velocity(au)
C        -0.03116321     0.00376107    -0.08042468    -0.00005104    -0.00000161    -0.00027980
N        -0.04750366    -0.04084375     1.38803227     0.00017886     0.00001066     0.00020974
H         0.93209136     0.05947716    -0.58340715     0.00057937     0.00003332    -0.00048963
H         0.88580770    -0.20058133     1.87092675    -0.00072204     0.00002314    -0.00004019
H        -0.95615006    -0.07645795     1.78473362    -0.00178764    -0.00025965     0.00125607
H        -1.04322688     0.07054547    -0.51044934     0.00005295     0.00007428    -0.00030676
     6
  Step:    22            Position(A)                                  Velocity(au)
C        -0.03145848     0.00375793    -0.08200461    -0.00005525     0.00000047    -0.00029186
N        -0.04646096    -0.04078655     1.38920838     0.00019536     0.00001011     0.00021637
H         0.93533380     0.05962052    -0.58616618     0.00058861     0.00001830    -0.00050595
H         0.88148278    -0.20039435     1.87066853    -0.00083242     0.00004259    -0.00004850
H        -0.96641252    -0.07796576     1.79201130    -0.00189359    -0.00028472     0.00136217
H        -1.04285340     0.07096545    -0.51222692     0.00008104     0.00007770    -0.00033659
     6
  Step:    23            Position(A)                                  Velocity(au)
C        -0.03177367     0.00376626    -0.08364923    -0.00012319     0.00000538    -0.00064131
N        -0.04534532    -0.04073202     1.39042274     0.00043417     0.00002052     0.00047273
H         0.93859438     0.05967935    -0.58899703     0.00123971     0.00000576    -0.00109078
H         0.87661098    -0.20011080     1.87039093    -0.00194337     0.00012241    -0.00009860
H        -0.97707078    -0.07960355     1.79978314    -0.00408708    -0.00064862     0.00303614
H        -1.04233151     0.07140391    -0.51416807     0.00022527     0.00017125    -0.00077414
     6
  Step:    24            Position(A)                                  Velocity(au)
C        -0.03244320     0.00378054    -0.08695767    -0.00011694    -0.00000014    -0.00054897
N        -0.04294416    -0.04061307     1.39286989     0.00042292     0.00002236     0.00040829
H         0.94560707     0.05980361    -0.59533537     0.00126915     0.00003765    -0.00117764
H         0.86576426    -0.19947209     1.86988362    -0.00192925     0.00010293    -0.00007077
H        -0.99958236    -0.08315629     1.81667017    -0.00394451    -0.00062580     0.00300197
H        -1.04137546     0.07237044    -0.51879226     0.00012101     0.00017616    -0.00088581
     6
  Step:    25            Position(A)                                  Velocity(au)
C        -0.03307540     0.00376474    -0.08976008    -0.00010899    -0.00000538    -0.00045587
N        -0.04063760    -0.04048315     1.39496767     0.00039782     0.00002428     0.00034403
H         0.95272197     0.06009849    -0.60210601     0.00126611     0.00006651    -0.00123602
H         0.85513550    -0.19896507     1.86960314    -0.00185012     0.00007448    -0.00001702
H        -1.02097921    -0.08656969     1.83319971    -0.00366904    -0.00059397     0.00288949
H        -1.04098445     0.07336483    -0.52402852     0.00002348     0.00017970    -0.00098512
     6
  Step:    26            Position(A)                                  Velocity(au)
C        -0.03366152     0.00372040    -0.09205350    -0.00009994    -0.00001028    -0.00036467
N        -0.03849719    -0.04034168     1.39671561     0.00036219     0.00002634     0.00028107
H         0.95976010     0.06054713    -0.60915202     0.00123461     0.00009213    -0.00126877
H         0.84508298    -0.19863954     1.86969340    -0.00171407     0.00003798     0.00006075
H        -1.04059612    -0.08979583     1.84896984    -0.00329943    -0.00055575     0.00271900
H        -1.04111299     0.07437915    -0.52980424    -0.00006336     0.00018208    -0.00107150
     6
  Step:    27            Position(A)                                  Velocity(au)
C        -0.03419613     0.00364946    -0.09384933    -0.00009037    -0.00001481    -0.00027734
N        -0.03657611    -0.04018776     1.39811956     0.00031927     0.00002860     0.00022028
H         0.96656647     0.06113159    -0.61633359     0.00117984     0.00011458    -0.00128018
H         0.83591450    -0.19853919     1.87028434    -0.00153180    -0.00000537     0.00015951
H        -1.05797794    -0.09280174     1.86368967    -0.00287101    -0.00051383     0.00251009
H        -1.04169492     0.07540666    -0.53604400    -0.00013692     0.00018363    -0.00114572
     6
  Step:    28            Position(A)                                  Velocity(au)
C        -0.03467691     0.00355400    -0.09516953    -0.00008075    -0.00001899    -0.00019503
N        -0.03490999    -0.04002031     1.39919056     0.00027186     0.00003109     0.00016217
H         0.97301614     0.06183452    -0.62353551     0.00110705     0.00013418    -0.00127496
H         0.82787249    -0.19869989     1.87148552    -0.00131501    -0.00005423     0.00027550
H        -1.07285336    -0.09556901     1.87717194    -0.00241183    -0.00047045     0.00227909
H        -1.04265140     0.07644230    -0.54267692    -0.00019594     0.00018465    -0.00120929
     6
  Step:    29            Position(A)                                  Velocity(au)
C        -0.03510404     0.00343599    -0.09604217    -0.00007139    -0.00002285    -0.00011812
N        -0.03351934    -0.03983816     1.39994301     0.00022214     0.00003381     0.00010696
H         0.97901398     0.06264032    -0.63066909     0.00102072     0.00015135    -0.00125735
H         0.82112868    -0.19914890     1.87338199    -0.00107520    -0.00010716     0.00040444
H        -1.08509628    -0.09809140     1.88931543    -0.00194165    -0.00042720     0.00203795
H        -1.04389801     0.07748280    -0.54964109    -0.00024006     0.00018539    -0.00126391
     6
  Step:    30            Position(A)                                  Velocity(au)
C        -0.03547944     0.00329718    -0.09649730    -0.00006251    -0.00002644    -0.00004648
N        -0.03241298    -0.03964024     1.40039293     0.00017170     0.00003672     0.00005465
H         0.98448997     0.06353579    -0.63766929     0.00092415     0.00016650    -0.00123064
H         0.81578623    -0.19990450     1.87603185    -0.00082307    -0.00016269     0.00054166
H        -1.09467932    -0.10037111     1.90008035    -0.00147278    -0.00038503     0.00179435
H        -1.04534986     0.07852631    -0.55688444    -0.00026951     0.00018602    -0.00131096
     6
  Step:    31            Position(A)                                  Velocity(au)
C        -0.03580598     0.00313904    -0.09656408    -0.00005418    -0.00002982     0.00002034
N        -0.03159115    -0.03942578     1.40055670     0.00012172     0.00003975     0.00000513
H         0.98939213     0.06451007    -0.64448919     0.00081955     0.00017999    -0.00119713
H         0.81188564    -0.20097591     1.87946480    -0.00056846    -0.00021924     0.00068210
H        -1.10163561    -0.10241525     1.90946595    -0.00101225    -0.00034438     0.00155270
H        -1.04692457     0.07957184    -0.56436313    -0.00028479     0.00018659    -0.00135132
     6
  Step:    32            Position(A)                                  Velocity(au)
C        -0.03608699     0.00296277    -0.09626925    -0.00004643    -0.00003301     0.00008283
N        -0.03104794    -0.03919447     1.40045050     0.00007307     0.00004279    -0.00004166
H         0.99368076     0.06555430    -0.65109439     0.00070840     0.00019212    -0.00115826
H         0.80941127    -0.20236313     1.88368118    -0.00032045    -0.00027515     0.00082045
H        -1.10603114    -0.10423309     1.91749301    -0.00056366    -0.00030534     0.00131515
H        -1.04854360     0.08061882    -0.57203874    -0.00028652     0.00018708    -0.00138538
     6
  Step:    33            Position(A)                                  Velocity(au)
C        -0.03632581     0.00276939    -0.09563667    -0.00003924    -0.00003604     0.00014147
N        -0.03077297    -0.03894661     1.40009023     0.00002644     0.00004574    -0.00008575
H         0.99732421     0.06666121    -0.65745841     0.00059170     0.00020306    -0.00111489
H         0.80829753    -0.20405683     1.88865155    -0.00008733    -0.00032873     0.00095131
H        -1.10794702    -0.10583422     1.92419192    -0.00012878    -0.00026783     0.00108254
H        -1.05013279     0.08166658    -0.57987542    -0.00027537     0.00018741    -0.00141309
     6
  Step:    34            Position(A)                                  Velocity(au)
C        -0.03652571     0.00255977    -0.09468757    -0.00003259    -0.00003893     0.00019663
N        -0.03075238    -0.03868310     1.39949178    -0.00001760     0.00004846    -0.00012708
H         1.00029622     0.06782460    -0.66355931     0.00047024     0.00021295    -0.00106749
H         0.80843487    -0.20603847     1.89431718     0.00012347    -0.00037830     0.00106937
H        -1.10747096    -0.10722755     1.92959626     0.00029124    -0.00023167     0.00085515
H        -1.05162239     0.08271414    -0.58783764    -0.00025207     0.00018749    -0.00143414
     6
  Step:    35            Position(A)                                  Velocity(au)
C        -0.03668972     0.00233473    -0.09344115    -0.00002644    -0.00004167     0.00024855
N        -0.03096946    -0.03840553     1.39867129    -0.00005852     0.00005083    -0.00016553
H         1.00257475     0.06903896    -0.66937759     0.00034477     0.00022186    -0.00101631
H         0.80967620    -0.20828073     1.90059175     0.00030568    -0.00042227     0.00116976
H        -1.10469510    -0.10842096     1.93374017     0.00069516    -0.00019669     0.00063316
H        -1.05294726     0.08376001    -0.59588852    -0.00021739     0.00018720    -0.00144806
     6
  Step:    36            Position(A)                                  Velocity(au)
C        -0.03682061     0.00209504    -0.09191529    -0.00002074    -0.00004425     0.00029733
N        -0.03140506    -0.03811612     1.39764547    -0.00009586     0.00005275    -0.00020095
H         1.00414170     0.07029917    -0.67489494     0.00021609     0.00022981    -0.00096149
H         0.81184431    -0.21074837     1.90736440     0.00045436    -0.00045928     0.00124827
H        -1.09971740    -0.10942136     1.93665837     0.00108116    -0.00016276     0.00041699
H        -1.05404715     0.08480213    -0.60398895    -0.00017227     0.00018643    -0.00145431
     6
  Step:    37            Position(A)                                  Velocity(au)
C        -0.03692091     0.00184153    -0.09012732    -0.00001547    -0.00004667     0.00034296
N        -0.03203790    -0.03781757     1.39643166    -0.00012924     0.00005414    -0.00023317
H         1.00498310     0.07160022    -0.68009362     0.00008512     0.00023679    -0.00090315
H         0.81474014    -0.21339949     1.91450400     0.00056618    -0.00048821     0.00130157
H        -1.09264528    -0.11023493     1.93838767     0.00144670    -0.00012982     0.00020746
H        -1.05486730     0.08583785    -0.61209717    -0.00011775     0.00018508    -0.00145235
     6
  Step:    38            Position(A)                                  Velocity(au)
C        -0.03699291     0.00157509    -0.08809461    -0.00001058    -0.00004891     0.00038532
N        -0.03284486    -0.03751300     1.39504785    -0.00015830     0.00005492    -0.00026206
H         1.00508993     0.07293707    -0.68495641    -0.00004704     0.00024277    -0.00084145
H         0.81815182    -0.21618719     1.92186452     0.00063952    -0.00050828     0.00132746
H        -1.08360055    -0.11086764     1.93896961     0.00178833    -0.00009792     0.00000591
H        -1.05535895     0.08686400    -0.62016878    -0.00005498     0.00018305    -0.00144172
     6
  Step:    39            Position(A)                                  Velocity(au)
C        -0.03703875     0.00129669    -0.08583514    -0.00000606    -0.00005095     0.00042423
N        -0.03380125    -0.03720578     1.39351251    -0.00018275     0.00005508    -0.00028752
H         1.00445907     0.07430457    -0.68946687    -0.00017912     0.00024775    -0.00077667
H         0.82186396    -0.21906141     1.92929106     0.00067439    -0.00051909     0.00132486
H        -1.07272448    -0.11132569     1.93845350     0.00210177    -0.00006719    -0.00018575
H        -1.05547976     0.08787690    -0.62815699     0.00001474     0.00018027    -0.00142209
     6
  Step:    40            Position(A)                                  Velocity(au)
C        -0.03706044     0.00100742    -0.08336789    -0.00000190    -0.00005277     0.00045949
N        -0.03488103    -0.03689934     1.39184432    -0.00020235     0.00005461    -0.00030955
H         1.00309424     0.07569740    -0.69360991    -0.00030969     0.00025168    -0.00070918
H         0.82566579    -0.22197077     1.93662583     0.00067233    -0.00052058     0.00129384
H        -1.06018310    -0.11161621     1.93689998     0.00238196    -0.00003786    -0.00036502
H        -1.05519468     0.08887248    -0.63601341     0.00008999     0.00017668    -0.00139334
     6
  Step:    41            Position(A)                                  Velocity(au)
C        -0.03705989     0.00070846    -0.08071297     0.00000192    -0.00005435     0.00049088
N        -0.03605698    -0.03659703     1.39006180    -0.00021692     0.00005355    -0.00032821
H         1.00100679     0.07711013    -0.69737242    -0.00043726     0.00025457    -0.00063949
H         0.82935868    -0.22486450     1.94371412     0.00063617    -0.00051304     0.00123560
H        -1.04617171    -0.11174779     1.93438447     0.00262334    -0.00001029    -0.00052888
H        -1.05447664     0.08984646    -0.64368922     0.00016920     0.00017228    -0.00135562
     6
  Step:    42            Position(A)                                  Velocity(au)
C        -0.03703896     0.00040106    -0.07789168     0.00000541    -0.00005570     0.00051824
N        -0.03730095    -0.03630194     1.38818282    -0.00022632     0.00005197    -0.00034369
H         0.99821619     0.07853736    -0.70074402    -0.00056032     0.00025646    -0.00056827
H         0.83276281    -0.22769421     1.95040995     0.00056984    -0.00049712     0.00115228
H        -1.03091749    -0.11173106     1.93099988     0.00282027     0.00001511    -0.00067400
H        -1.05330710     0.09079446    -0.65113653     0.00025079     0.00016709    -0.00130936
     6
  Step:    43            Position(A)                                  Velocity(au)
C        -0.03699947     0.00008655    -0.07492619     0.00000857    -0.00005679     0.00054147
N        -0.03858417    -0.03601677     1.38622411    -0.00023051     0.00004994    -0.00035625
H         0.99475013     0.07997383    -0.70371785    -0.00067741     0.00025741    -0.00049626
H         0.83572171    -0.23041549     1.95658079     0.00047803    -0.00047371     0.00104686
H        -1.01467978    -0.11157906     1.92685836     0.00296736     0.00003789    -0.00079691
H        -1.05167619     0.09171223    -0.65830990     0.00033320     0.00016116    -0.00125528
     6
  Step:    44            Position(A)                                  Velocity(au)
C        -0.03694322    -0.00023379    -0.07183917     0.00001139    -0.00005766     0.00056060
N        -0.03987758    -0.03574368     1.38420068    -0.00022949     0.00004759    -0.00036630
H         0.99064413     0.08141472    -0.70629123    -0.00078728     0.00025755    -0.00042433
H         0.83810620    -0.23298928     1.96211176     0.00036596    -0.00044394     0.00092298
H        -0.99774849    -0.11130755     1.92209209     0.00305972     0.00005754    -0.00089407
H        -1.04958260     0.09259585    -0.66516801     0.00041495     0.00015457    -0.00119439
     6