     6
  Step:     0            Position(A)                                  Velocity(au)
C        -0.03471330     0.00862422     0.00365537     0.00005546     0.00002304    -0.00005067
N        -0.05600599    -0.05797949     1.30722173    -0.00002538     0.00011522     0.00007927
H         0.96961951     0.02982103    -0.54255971    -0.00035907    -0.00040729     0.00006675
H         0.90635860    -0.08211906     1.87366648     0.00020104    -0.00050441     0.00024524
H        -0.89110797    -0.04057793     1.87856945     0.00032221    -0.00080302    -0.00081532
H        -1.00588268     0.12603503    -0.52680573    -0.00047245    -0.00016102     0.00000562
     6
  Step:     1            Position(A)                                  Velocity(au)
C        -0.03439862     0.00874832     0.00305196     0.00005916     0.00002252    -0.00016990
N        -0.05606932    -0.05738190     1.30793864     0.00000291     0.00010352     0.00018242
H         0.96739108     0.02770170    -0.54202932    -0.00045418    -0.00036858     0.00012522
H         0.90679087    -0.08475523     1.87463302    -0.00004449    -0.00046048     0.00010818
H        -0.88968172    -0.04483620     1.87424418     0.00019101    -0.00075572    -0.00075969
H        -1.00838302     0.12526539    -0.52674909    -0.00043783    -0.00012220     0.00001589
     6
  Step:     2            Position(A)                                  Velocity(au)
C        -0.03406637     0.00887054     0.00179734     0.00006192     0.00002243    -0.00028858
N        -0.05597413    -0.05684741     1.30921670     0.00003237     0.00009232     0.00028436
H         0.96465262     0.02579024    -0.54119034    -0.00054549    -0.00033198     0.00017905
H         0.90587202    -0.08715490     1.87484959    -0.00029135    -0.00041883    -0.00002767
H        -0.88901912    -0.04884252     1.87026150     0.00004447    -0.00071208    -0.00069136
H        -1.01067083     0.12469871    -0.52663195    -0.00039537    -0.00008735     0.00002723
     6
  Step:     3            Position(A)                                  Velocity(au)
C        -0.03372175     0.00899353    -0.00010279     0.00006368     0.00002286    -0.00040565
N        -0.05571544    -0.05637267     1.31104724     0.00006247     0.00008179     0.00038427
H         0.96142776     0.02407249    -0.54007193    -0.00063146    -0.00029823     0.00022683
H         0.90360587    -0.08933391     1.87433050    -0.00053545    -0.00038044    -0.00015965
H        -0.88919562    -0.05262059     1.86668626    -0.00011424    -0.00067301    -0.00061196
H        -1.01270515     0.12431049    -0.52645145    -0.00034582    -0.00005732     0.00003861
     6
  Step:     4            Position(A)                                  Velocity(au)
C        -0.03337035     0.00912043    -0.00263653     0.00006434     0.00002386    -0.00051962
N        -0.05529132    -0.05595347     1.31341692     0.00009256     0.00007205     0.00048101
H         0.95775058     0.02253044    -0.53871106    -0.00070948    -0.00026787     0.00026700
H         0.90001937    -0.09131318     1.87310453    -0.00077181    -0.00034602    -0.00028485
H        -0.89026784    -0.05619875     1.86357254    -0.00028119    -0.00063903    -0.00052373
H        -1.01445079     0.12407223    -0.52620996    -0.00029050    -0.00003265     0.00004914
     6
  Step:     5            Position(A)                                  Velocity(au)
C        -0.03301838     0.00925437    -0.00578348     0.00006376     0.00002538    -0.00062857
N        -0.05470356    -0.05558501     1.31630586     0.00012184     0.00006318     0.00057306
H         0.95367142     0.02114405    -0.53715301    -0.00077603    -0.00024102     0.00029793
H         0.89516812    -0.09311670     1.87121646    -0.00099427    -0.00031591    -0.00039992
H        -0.89226965    -0.05960675     1.86096068    -0.00045158    -0.00061002    -0.00042944
H        -1.01588101     0.12395358    -0.52591422    -0.00023114    -0.00001343     0.00005806
     6
  Step:     6            Position(A)                                  Velocity(au)
C        -0.03267290     0.00939805    -0.00951260     0.00006177     0.00002730    -0.00073023
N        -0.05395844    -0.05526238     1.31968579     0.00014938     0.00005516     0.00065860
H         0.94926140     0.01989390    -0.53545188    -0.00082699    -0.00021739     0.00031796
H         0.88914288    -0.09476896     1.86872973    -0.00119546    -0.00029004    -0.00050102
H        -0.89520782    -0.06287184     1.85887481    -0.00061979    -0.00058517    -0.00033230
H        -1.01697931     0.12392529    -0.52557480    -0.00016975     0.00000070     0.00006468
     6
  Step:     7            Position(A)                                  Velocity(au)
C        -0.03234192     0.00955330    -0.01378076     0.00005821     0.00002943    -0.00082214
N        -0.05306756    -0.05498087     1.32351871     0.00017410     0.00004797     0.00073563
H         0.94461440     0.01876330    -0.53367078    -0.00085820    -0.00019639     0.00032547
H         0.88207577    -0.09629310     1.86572946    -0.00136712    -0.00026810    -0.00058383
H        -0.89905750    -0.06601539     1.85732137    -0.00077944    -0.00056326    -0.00023574
H        -1.01774004     0.12396124    -0.52520585    -0.00010840     0.00001041     0.00006834
     6
  Step:     8            Position(A)                                  Velocity(au)
C        -0.03203425     0.00972093    -0.01853203     0.00005299     0.00003159    -0.00090188
N        -0.05204844    -0.05473614     1.32775608     0.00019486     0.00004152     0.00080212
H         0.93984642     0.01773936    -0.53188131    -0.00086595    -0.00017737     0.00031909
H         0.87414472    -0.09771014     1.86232471    -0.00150050    -0.00024974    -0.00064383
H        -0.90375873    -0.06905119     1.85628854    -0.00092374    -0.00054290    -0.00014321
H        -1.01816855     0.12403945    -0.52482508    -0.00004921     0.00001645     0.00006842
     6
  Step:     9            Position(A)                                  Velocity(au)
C        -0.03175919     0.00990070    -0.02369791     0.00004608     0.00003360    -0.00096728
N        -0.05092490    -0.05452426     1.33233881     0.00021052     0.00003578     0.00085622
H         0.93509237     0.01681296    -0.53016200    -0.00084747    -0.00015971     0.00029795
H         0.86557621    -0.09903930     1.85864988    -0.00158689    -0.00023474    -0.00067653
H        -0.90921497    -0.07198510     1.85574661    -0.00104612    -0.00052274    -0.00005796
H        -1.01828110     0.12414211    -0.52445347     0.00000576     0.00001956     0.00006437
     6
  Step:    10            Position(A)                                  Velocity(au)
C        -0.03152606     0.01009146    -0.02919876     0.00003756     0.00003530    -0.00101664
N        -0.04972690    -0.05434158     1.33719813     0.00022012     0.00003069     0.00089648
H         0.93050085     0.01597817    -0.52859563    -0.00080132    -0.00014295     0.00026182
H         0.85664515    -0.10029880     1.85486425    -0.00161880    -0.00022300    -0.00067819
H        -0.91529487    -0.07481580     1.85564943    -0.00114087    -0.00050172     0.00001722
H        -1.01810508     0.12425519    -0.52411523     0.00005447     0.00002042     0.00005570
     6
  Step:    11            Position(A)                                  Velocity(au)
C        -0.03134358     0.01029130    -0.03494635     0.00002763     0.00003659    -0.00104911
N        -0.04848947    -0.05418465     1.34225778     0.00022299     0.00002625     0.00092213
H         0.92622629     0.01523137    -0.52726513    -0.00072782    -0.00012678     0.00021137
H         0.84766535    -0.10150668     1.85114614    -0.00159150    -0.00021456    -0.00064668
H        -0.92183790    -0.07753629     1.85593717    -0.00120395    -0.00047911     0.00008022
H        -1.01767847     0.12436800    -0.52383715     0.00009514     0.00001959     0.00004213
     6
  Step:    12            Position(A)                                  Velocity(au)
C        -0.03121919     0.01049780    -0.04084837     0.00002800     0.00006308    -0.00179532
N        -0.04725077    -0.05405011     1.34743773     0.00036908     0.00003782     0.00157349
H         0.92241899     0.01457035    -0.52624854    -0.00106066    -0.00018727     0.00024975
H         0.83897274    -0.10268130     1.84768330    -0.00253541    -0.00035323    -0.00098093
H        -0.92866387    -0.08013597     1.85654024    -0.00207970    -0.00076647     0.00021891
H        -1.01704861     0.12447271    -0.52364736     0.00021308     0.00002964     0.00003982
     6
  Step:    13            Position(A)                                  Velocity(au)
C        -0.03108824     0.01083155    -0.05054177     0.00001026     0.00003189    -0.00094767
N        -0.04523195    -0.05383843     1.35597209     0.00019806     0.00002170     0.00083819
H         0.91710026     0.01356463    -0.52540123    -0.00046989    -0.00009825     0.00002690
H         0.82531498    -0.10461049     1.84251667    -0.00131124    -0.00019283    -0.00047846
H        -0.94024027    -0.08436384     1.85791735    -0.00115974    -0.00042370     0.00014941
H        -1.01611140     0.12471668    -0.52379409     0.00006614     0.00003316    -0.00005317
     6
  Step:    14            Position(A)                                  Velocity(au)
C        -0.03106714     0.01101093    -0.05583260    -0.00000276     0.00003166    -0.00092673
N        -0.04417165    -0.05372422     1.36064283     0.00017610     0.00001914     0.00081649
H         0.91486465     0.01305627    -0.52548458    -0.00031940    -0.00008259    -0.00005844
H         0.81855560    -0.10570311     1.84020925    -0.00106896    -0.00019700    -0.00033024
H        -0.94664443    -0.08666107     1.85881804    -0.00110254    -0.00039186     0.00016491
H        -1.01569839     0.12488989    -0.52416420     0.00007664     0.00002816    -0.00007945
     6
  Step:    15            Position(A)                                  Velocity(au)
C        -0.03111938     0.01118860    -0.06099212    -0.00001561     0.00003134    -0.00090317
N        -0.04324617    -0.05362262     1.36517931     0.00015095     0.00001721     0.00079242
H         0.91349848     0.01263326    -0.52606024    -0.00016394    -0.00006801    -0.00014682
H         0.81326069    -0.10683201     1.83879264    -0.00079775    -0.00020578    -0.00016548
H        -0.95267320    -0.08878274     1.85977703    -0.00102993    -0.00036195     0.00017127
H        -1.01524719     0.12503427    -0.52468999     0.00007994     0.00002304    -0.00010848
     6
  Step:    16            Position(A)                                  Velocity(au)
C        -0.03124298     0.01136403    -0.06600772    -0.00002804     0.00003101    -0.00087975
N        -0.04247109    -0.05353031     1.36957026     0.00012371     0.00001586     0.00076848
H         0.91301773     0.01229006    -0.52713867    -0.00000729    -0.00005440    -0.00023676
H         0.80956809    -0.10802139     1.83834498    -0.00050756    -0.00021904     0.00001071
H        -0.95824765    -0.09073880     1.86074758    -0.00094678    -0.00033439     0.00017060
H        -1.01479780     0.12514946    -0.52538636     0.00007650     0.00001791    -0.00014046
     6
  Step:    17            Position(A)                                  Velocity(au)
C        -0.03143459     0.01153716    -0.07088188    -0.00003986     0.00003070    -0.00085792
N        -0.04185542    -0.05344432     1.37381825     0.00009528     0.00001500     0.00074605
H         0.91341655     0.01202172    -0.52872185     0.00014763    -0.00004154    -0.00032708
H         0.80755495    -0.10929433     1.83891300    -0.00020713    -0.00023640     0.00019365
H        -0.96331657    -0.09254177     1.86169485    -0.00085632    -0.00030912     0.00016472
H        -1.01438725     0.12523562    -0.52626901     0.00006670     0.00001280    -0.00017557
     6
  Step:    18            Position(A)                                  Velocity(au)
C        -0.03168983     0.01170816    -0.07562495    -0.00005087     0.00003042    -0.00083802
N        -0.04140301    -0.05336218     1.37793341     0.00006638     0.00001453     0.00072555
H         0.91467267     0.01182441    -0.53080517     0.00029817    -0.00002916    -0.00041648
H         0.80724615    -0.11067140     1.84051574     0.00009510    -0.00025720     0.00037865
H        -0.96784698    -0.09420402     1.86259403    -0.00076046    -0.00028576     0.00015508
H        -1.01405005     0.12529294    -0.52735446     0.00005088     0.00000767    -0.00021385
     6
  Step:    19            Position(A)                                  Velocity(au)
C        -0.03200322     0.01187721    -0.08024898    -0.00006083     0.00003016    -0.00081966
N        -0.04111345    -0.05328191     1.38192822     0.00003772     0.00001435     0.00070682
H         0.91674939     0.01169576    -0.53337718     0.00044148    -0.00001701    -0.00050345
H         0.80861794    -0.11216921     1.84314541     0.00039027    -0.00028054     0.00056060
H        -0.97181673    -0.09573588     1.86342833    -0.00066047    -0.00026376     0.00014293
H        -1.01381857     0.12532131    -0.52865932     0.00002932     0.00000244    -0.00025514
     6
  Step:    20            Position(A)                                  Velocity(au)
C        -0.03236810     0.01204442    -0.08476388    -0.00006949     0.00002988    -0.00080221
N        -0.04098240    -0.05320214     1.38581421     0.00001006     0.00001437     0.00068947
H         0.91959505     0.01163477    -0.53641847     0.00057447    -0.00000487    -0.00058622
H         0.81159750    -0.11379928     1.84676617     0.00066893    -0.00030537     0.00073398
H        -0.97521092    -0.09714482     1.86418761    -0.00055757    -0.00024260     0.00012934
H        -1.01372311     0.12532010    -0.53019918     0.00000245    -0.00000298    -0.00029908
     6
  Step:    21            Position(A)                                  Velocity(au)
C        -0.03277653     0.01220976    -0.08917582    -0.00007661     0.00002957    -0.00078498
N        -0.04100154    -0.05312200     1.38960057    -0.00001586     0.00001449     0.00067308
H         0.92314201     0.01164156    -0.53990053     0.00069392     0.00000741    -0.00066293
H         0.81606173    -0.11556736     1.85131301     0.00092158    -0.00033061     0.00089324
H        -0.97802128    -0.09843555     1.86486757    -0.00045321    -0.00022188     0.00011535
H        -1.01379132     0.12528811    -0.53198744    -0.00002917    -0.00000869    -0.00034511
     6
  Step:    22            Position(A)                                  Velocity(au)
C        -0.03321940     0.01237304    -0.09348721    -0.00008196     0.00002920    -0.00076744
N        -0.04115860    -0.05304111     1.39329400    -0.00003928     0.00001464     0.00065729
H         0.92730650     0.01171709    -0.54378550     0.00079684     0.00001993    -0.00073184
H         0.82183889    -0.11747326     1.85669259     0.00113946    -0.00035518     0.00103328
H        -0.98024738    -0.09961057     1.86546944    -0.00034915    -0.00020131     0.00010196
H        -1.01404731     0.12522351    -0.53403428    -0.00006478    -0.00001479    -0.00039251
     6
  Step:    23            Position(A)                                  Velocity(au)
C        -0.03368658     0.01253398    -0.09769738    -0.00008540     0.00002876    -0.00074922
N        -0.04143766    -0.05295949     1.39689910    -0.00005956     0.00001474     0.00064188
H         0.93199003     0.01186281    -0.54802685     0.00088069     0.00003274    -0.00079147
H         0.82871421    -0.11951120     1.86278640     0.00131536    -0.00037814     0.00114988
H        -0.98189822    -0.10067086     1.86599973    -0.00024739    -0.00018072     0.00009014
H        -1.01451061     0.12512388    -0.53634585    -0.00010341    -0.00002139    -0.00044050
     6
  Step:    24            Position(A)                                  Velocity(au)
C        -0.03416737     0.01269225    -0.10180355    -0.00008687     0.00002824    -0.00073012
N        -0.04181968    -0.05287752     1.40041881    -0.00007619     0.00001475     0.00062665
H         0.93708210     0.01208045    -0.55257074     0.00094360     0.00004586    -0.00084066
H         0.83643939    -0.12167057     1.86945622     0.00144422    -0.00039871     0.00124007
H        -0.98299345    -0.10161652     1.86647003    -0.00015006    -0.00016004     0.00008080
H        -1.01519514     0.12498611    -0.53892381    -0.00014394    -0.00002859    -0.00048822
     6
  Step:    25            Position(A)                                  Velocity(au)
C        -0.03465084     0.01284749    -0.10580165    -0.00008637     0.00002766    -0.00071007
N        -0.04228333    -0.05279582     1.40385489    -0.00008883     0.00001462     0.00061151
H         0.94246399     0.01237180    -0.55735813     0.00098455     0.00005928    -0.00087873
H         0.84474500    -0.12393691     1.87655108     0.00152347    -0.00041635     0.00130227
H        -0.98356390    -0.10244732     1.86689660    -0.00005925    -0.00013929     0.00007474
H        -1.01610836     0.12480650    -0.54176505    -0.00018514    -0.00003652    -0.00053482
     6
  Step:    26            Position(A)                                  Velocity(au)
C        -0.03512630     0.01299939    -0.10968720    -0.00008399     0.00002703    -0.00068912
N        -0.04280599    -0.05271515     1.40720822    -0.00009736     0.00001435     0.00059639
H         0.94801327     0.01273859    -0.56232704     0.00100335     0.00007298    -0.00090545
H         0.85335403    -0.12629320     1.88391491     0.00155306    -0.00043073     0.00133633
H        -0.98365130    -0.10316307     1.86729987     0.00002310    -0.00011853     0.00007266
H        -1.01725075     0.12458068    -0.54486176    -0.00022574    -0.00004527    -0.00057950
     6
  Step:    27            Position(A)                                  Velocity(au)
C        -0.03558376     0.01314768    -0.11345589    -0.00007990     0.00002635    -0.00066744
N        -0.04336472    -0.05263638     1.41047910    -0.00010179     0.00001393     0.00058126
H         0.95360840     0.01318241    -0.56741512     0.00100061     0.00008694    -0.00092100
H         0.86199514    -0.12872114     1.89139397     0.00153514    -0.00044177     0.00134335
H        -0.98330735    -0.10376386     1.86770366     0.00009532    -0.00009783     0.00007510
H        -1.01861572     0.12430365    -0.54820171    -0.00026448    -0.00005497    -0.00062156
     6
  Step:    28            Position(A)                                  Velocity(au)
C        -0.03601420     0.01329221    -0.11710417    -0.00007431     0.00002565    -0.00064525
N        -0.04393715    -0.05256033     1.41366750    -0.00010231     0.00001336     0.00056614
H         0.95913258     0.01370474    -0.57256168     0.00097762     0.00010115    -0.00092596
H         0.87041331    -0.13120236     1.89884288     0.00147360    -0.00044958     0.00132540
H        -0.98259205    -0.10425017     1.86813441     0.00015612    -0.00007727     0.00008244
H        -1.02018975     0.12396979    -0.55176881    -0.00030018    -0.00006573    -0.00066040
     6
  Step:    29            Position(A)                                  Velocity(au)
C        -0.03640988     0.01343289    -0.12062962    -0.00006746     0.00002496    -0.00062280
N        -0.04450221    -0.05248779     1.41677338    -0.00009922     0.00001267     0.00055108
H         0.96447741     0.01430693    -0.57770978     0.00093623     0.00011559    -0.00092123
H         0.87837832    -0.13371946     1.90612949     0.00137353    -0.00045446     0.00128527
H        -0.98157163    -0.10462289     1.86862021     0.00020462    -0.00005691     0.00009490
H        -1.02195305     0.12357290    -0.55554387    -0.00033183    -0.00007765    -0.00069559
     6
  Step:    30            Position(A)                                  Velocity(au)
C        -0.03676449     0.01356977    -0.12403117    -0.00005962     0.00002428    -0.00060037
N        -0.04504068    -0.05241944     1.41979680    -0.00009288     0.00001186     0.00053612
H         0.96954568     0.01499041    -0.58280787     0.00087866     0.00013031    -0.00090789
H         0.88569017    -0.13625697     1.91313812     0.00124070    -0.00045682     0.00122614
H        -0.98031615    -0.10488315     1.86918993     0.00024040    -0.00003678     0.00011253
H        -1.02388045     0.12310617    -0.55950544    -0.00035857    -0.00009084    -0.00072686
     6
  Step:    31            Position(A)                                  Velocity(au)
C        -0.03707323     0.01370300    -0.12730917    -0.00005107     0.00002364    -0.00057820
N        -0.04553560    -0.05235584     1.42273812    -0.00008374     0.00001097     0.00052133
H         0.97425306     0.01575674    -0.58781072     0.00080729     0.00014536    -0.00088719
H         0.89218199    -0.13880193     1.91977118     0.00108120    -0.00045720     0.00115138
H        -0.97889698    -0.10503212     1.86987224     0.00026347    -0.00001685     0.00013523
H        -1.02594239     0.12256219    -0.56363067    -0.00037975    -0.00010544    -0.00075405
     6
  Step:    32            Position(A)                                  Velocity(au)
C        -0.03733275     0.01383282    -0.13046512    -0.00004204     0.00002305    -0.00055647
N        -0.04597252    -0.05229739     1.42559786    -0.00007225     0.00001002     0.00050670
H         0.97852877     0.01660787    -0.59268004     0.00072457     0.00016083    -0.00086037
H         0.89772122    -0.14134448     1.92595012     0.00090108    -0.00045618     0.00106436
H        -0.97738440    -0.10507069     1.87069473     0.00027423     0.00000297     0.00016275
H        -1.02810615     0.12193294    -0.56789616    -0.00039493    -0.00012154    -0.00077716
     6
  Step:    33            Position(A)                                  Velocity(au)
C        -0.03754108     0.01395952    -0.13350134    -0.00003278     0.00002252    -0.00053527
N        -0.04633957    -0.05224436     1.42837655    -0.00005887     0.00000904     0.00049224
H         0.98231585     0.01754635    -0.59738468     0.00063291     0.00017685    -0.00082871
H         0.90220894    -0.14387817     1.93161498     0.00070610    -0.00045439     0.00096825
H        -0.97584539    -0.10499911     1.87168323     0.00027347     0.00002284     0.00019470
H        -1.03033700     0.12120970    -0.57227865    -0.00040383    -0.00013931    -0.00079627
     6
  Step:    34            Position(A)                                  Velocity(au)
C        -0.03769746     0.01408344    -0.13642063    -0.00002348     0.00002206    -0.00051466
N        -0.04662753    -0.05219685     1.43107463    -0.00004405     0.00000805     0.00047790
H         0.98557070     0.01857559    -0.60190043     0.00053459     0.00019363    -0.00079338
H         0.90557745    -0.14640018     1.93672309     0.00050148    -0.00045250     0.00086595
H        -0.97434170    -0.10481655     1.87286098     0.00026226     0.00004302     0.00023059
H        -1.03259929     0.12038298    -0.57675562    -0.00040640    -0.00015889    -0.00081155
     6
  Step:    35            Position(A)                                  Velocity(au)
C        -0.03780223     0.01420491    -0.13922604    -0.00001431     0.00002166    -0.00049465
N        -0.04682961    -0.05215484     1.43369241    -0.00002823     0.00000707     0.00046367
H         0.98826235     0.01970021    -0.60620971     0.00043175     0.00021143    -0.00075551
H         0.90778709    -0.14891149     1.94124724     0.00029188    -0.00045119     0.00075999
H        -0.97292816    -0.10452058     1.87424812     0.00024195     0.00006385     0.00026981
H        -1.03485754     0.11944233    -0.58130580    -0.00040273    -0.00018049    -0.00082325
     6
  Step:    36            Position(A)                                  Velocity(au)
C        -0.03785663     0.01432428    -0.14192085    -0.00000543     0.00002132    -0.00047523
N        -0.04694144    -0.05211821     1.43623030    -0.00001181     0.00000613     0.00044950
H         0.99037152     0.02092658    -0.61030122     0.00032640     0.00023063    -0.00071618
H         0.90882296    -0.15141710     1.94517375     0.00008147    -0.00045123     0.00065264
H        -0.97165141    -0.10410652     1.87586114     0.00021407     0.00008584     0.00031170
H        -1.03707741     0.11837603    -0.58590964    -0.00039312    -0.00020439    -0.00083172
     6
  Step:    37            Position(A)                                  Velocity(au)
C        -0.03786263     0.01444184    -0.14450801     0.00000305     0.00002101    -0.00045622
N        -0.04696086    -0.05208676     1.43868843     0.00000481     0.00000523     0.00043529
H         0.99189008     0.02226356    -0.61416966     0.00022048     0.00025181    -0.00067646
H         0.90869257    -0.15392670     1.94850103    -0.00012594    -0.00045356     0.00054590
H        -0.97054887    -0.10356654     1.87771255     0.00018032     0.00010968     0.00035553
H        -1.03922685     0.11717061    -0.59054998    -0.00037809    -0.00023100    -0.00083746
     6
  Step:    38            Position(A)                                  Velocity(au)
C        -0.03782279     0.01455773    -0.14698911     0.00001103     0.00002071    -0.00043719
N        -0.04688795    -0.05206013     1.44106596     0.00002126     0.00000441     0.00042071
H         0.99282084     0.02372399    -0.61781611     0.00011607     0.00027593    -0.00063762
H         0.90742384    -0.15645582     1.95123826    -0.00032682    -0.00045947     0.00044160
H        -0.96964816    -0.10288808     1.87981072     0.00014247     0.00013648     0.00040056
H        -1.04127765     0.11580985    -0.59521308    -0.00035856    -0.00026097    -0.00084127
     6
  Step:    39            Position(A)                                  Velocity(au)
C        -0.03774014     0.01467179    -0.14936236     0.00001845     0.00002031    -0.00041704
N        -0.04672485    -0.05203784     1.44335978     0.00003714     0.00000371     0.00040501
H         0.99317883     0.02532739    -0.62124955     0.00001580     0.00030476    -0.00060157
H         0.90506369    -0.15902842     1.95340439    -0.00051782    -0.00047095     0.00034143
H        -0.96896694    -0.10205117     1.88216018     0.00010225     0.00016809     0.00044620
H        -1.04320815     0.11427296    -0.59989102    -0.00033628    -0.00029544    -0.00084476
     6
  Step:    40            Position(A)                                  Velocity(au)
C        -0.03761801     0.01478315    -0.15161742     0.00002526     0.00001956    -0.00039271
N        -0.04647574    -0.05201901     1.44556079     0.00005213     0.00000324     0.00038608
H         0.99299616     0.02710617    -0.62449233    -0.00007543     0.00034185    -0.00057263
H         0.90167709    -0.16168240     1.95502745    -0.00069562    -0.00049154     0.00024705
H        -0.96851344    -0.10102260     1.88476261     0.00006112     0.00020791     0.00049223
H        -1.04500973     0.11253101    -0.60458826    -0.00031556    -0.00033633    -0.00085224
     6
  Step:    41            Position(A)                                  Velocity(au)
C        -0.03745991     0.01488873    -0.15371854     0.00003132     0.00001754    -0.00035363
N        -0.04614660    -0.05200188     1.44764246     0.00006593     0.00000342     0.00035670
H         0.99234215     0.02911944    -0.62760151    -0.00014320     0.00039131    -0.00056525
H         0.89734745    -0.16448088     1.95614488    -0.00085609    -0.00052376     0.00016112
H        -0.96828897    -0.09974485     1.88762027     0.00001948     0.00025769     0.00053928
H        -1.04670854     0.11054221    -0.60934467    -0.00030968    -0.00038175    -0.00087812
     6
  Step:    42            Position(A)                                  Velocity(au)
C        -0.03727071     0.01497759    -0.15553827     0.00003891     0.00001429    -0.00031108
N        -0.04574471    -0.05198109     1.44951571     0.00008464     0.00000520     0.00033365
H         0.99140836     0.03144486    -0.63075963    -0.00018473     0.00047058    -0.00064530
H         0.89218512    -0.16748966     1.95681389    -0.00107397    -0.00059075     0.00009600
H        -0.96829747    -0.09816545     1.89074194    -0.00002418     0.00031716     0.00063263
H        -1.04844331     0.10829835    -0.61432444    -0.00035704    -0.00043954    -0.00101295
     6
  Step:    43            Position(A)                                  Velocity(au)
C        -0.03704658     0.01505787    -0.15723130     0.00004188     0.00001495    -0.00030303
N        -0.04524523    -0.05195285     1.45133299     0.00009450     0.00000489     0.00032404
H         0.99012749     0.03392420    -0.63422548    -0.00027930     0.00043944    -0.00060168
H         0.88588393    -0.17059580     1.95716340    -0.00118972    -0.00054843     0.00003382
H        -0.96851830    -0.09655124     1.89432079    -0.00005186     0.00028403     0.00065825
H        -1.05025238     0.10596172    -0.61986622    -0.00029148    -0.00042122    -0.00098253
     6
  Step:    44            Position(A)                                  Velocity(au)
C        -0.03680666     0.01514326    -0.15889581     0.00004440     0.00001586    -0.00029779
N        -0.04469761    -0.05192688     1.45310613     0.00010197     0.00000457     0.00031573
H         0.98831372     0.03631390    -0.63742632    -0.00037229     0.00042973    -0.00055497
H         0.87900292    -0.17356632     1.95718863    -0.00128163    -0.00053246    -0.00001886
H        -0.96887207    -0.09501836     1.89803536    -0.00007215     0.00027691     0.00068105
H        -1.05167289     0.10363121    -0.62521094    -0.00022010    -0.00042675    -0.00094621
     6