 Fermi distribution function

Calculation with static geometry


********************************************************************************
 iSCC Total electronic   Diff electronic      SCC error    
    9   -0.54267436E+01   -0.13411494E-12    0.92069893E-06
********************************************************************************

 Total charge:     1.00000000

 Atomic gross charges (e)
 Atom           Charge
    1       0.14384381
    2      -0.02295617
    3       0.17066018
    4       0.27047426
    5       0.27281203
    6       0.16516590

Nr. of electrons (up):     12.00000000
Atom populations (up)
 Atom       Population
    1       3.85615619
    2       5.02295617
    3       0.82933982
    4       0.72952574
    5       0.72718797
    6       0.83483410

l-shell populations (up)
 Atom Sh.   l       Population
    1   1   0       1.30865274
    1   2   1       2.54750346
    2   1   0       1.41858195
    2   2   1       3.60437421
    3   1   0       0.82933982
    4   1   0       0.72952574
    5   1   0       0.72718797
    6   1   0       0.83483410

Orbital populations (up)
 Atom Sh.   l   m       Population  Label
    1   1   0   0       1.30865274  s
    1   2   1  -1       0.61649332  p_y
    1   2   1   0       0.88027820  p_z
    1   2   1   1       1.05073194  p_x
    2   1   0   0       1.41858195  s
    2   2   1  -1       1.34204349  p_y
    2   2   1   0       1.11242954  p_z
    2   2   1   1       1.14990118  p_x
    3   1   0   0       0.82933982  s
    4   1   0   0       0.72952574  s
    5   1   0   0       0.72718797  s
    6   1   0   0       0.83483410  s

Fermi level:                        -0.4980342448 H          -13.5522 eV
Band energy:                        -8.9730630503 H         -244.1695 eV
TS:                                  0.0000000000 H            0.0000 eV
Band free energy (E-TS):            -8.9730630503 H         -244.1695 eV
Extrapolated E(0K):                 -8.9730630503 H         -244.1695 eV
Input / Output electrons (q):     12.0000000000     12.0000000000

Energy H0:                          -5.5615376462 H         -151.3371 eV
Energy SCC:                          0.1347940594 H            3.6679 eV
Total Electronic energy:            -5.4267435869 H         -147.6692 eV
Repulsive energy:                    0.1943330878 H            5.2881 eV
Total energy:                       -5.2324104991 H         -142.3811 eV
Extrapolated to 0:                  -5.2324104991 H         -142.3811 eV
Total Mermin free energy:           -5.2324104991 H         -142.3811 eV
Force related energy:               -5.2324104991 H         -142.3811 eV

SCC converged

Excitation Energy:                   0.1606506259 H            4.3715 eV

Total Forces
    1      0.003450139554     -0.003353461658      0.004190584210
    2      0.002987592479      0.010422129706     -0.022639156827
    3     -0.007482254687     -0.000038315744      0.004208858665
    4     -0.004000744190     -0.004430480578      0.005620066444
    5      0.001425864040     -0.001020320100      0.006615164001
    6      0.003619402804     -0.001579551626      0.002004483507

Maximal derivative component:        0.226392E-01 au


