    14
  Step:   600            Position(A)                                  Velocity(au)
C        -5.06215897    -0.98279264     0.40704746    -0.00007802    -0.00021879    -0.00005429
C        -5.16174396     0.23950527    -0.12010432     0.00030187     0.00026877    -0.00006518
H        -4.09655309    -1.06113164     0.82845539     0.00128113    -0.00010596    -0.00146448
H        -5.77325236    -1.52655826     0.94403379     0.00006202     0.00044890     0.00125411
H        -6.05446403     0.59252378    -0.68083476    -0.00048360    -0.00092959    -0.00032530
C        -3.92160727     0.39672831    -0.81674116    -0.00058468     0.00017700    -0.00011075
C        -2.67592218     0.33367725    -0.28238325    -0.00025332    -0.00038822    -0.00025561
H        -4.07927515     0.37237389    -1.88861707    -0.00184839     0.00113588     0.00008469
H        -1.80608628     0.00944452    -0.93249956    -0.00071737    -0.00296736     0.00091977
C        -2.04367654     1.35778868     0.54621927     0.00085779    -0.00051118     0.00017797
H        -2.54200209     1.82943854     1.40327429     0.00089180     0.00284105    -0.00033133
N        -0.73206404     1.63601015     0.55107739    -0.00015593     0.00048550     0.00016795
H        -0.49280358     2.50165371     1.10493056    -0.00196223     0.00040641    -0.00108046
H        -0.15856634     1.16258316    -0.25440335     0.00204020     0.00043670     0.00227738
