    14
  Step:     0            Position(A)                                  Velocity(au)
C        -6.02939793    -0.64658592    -0.10269848     0.00008967     0.00001948     0.00007714
C        -4.65358156    -0.78355440     0.10759051     0.00001539     0.00013306     0.00006079
H        -6.56695136     0.25864469    -0.54438504    -0.00018888    -0.00094529    -0.00026375
H        -6.67001331    -1.56983016    -0.01240458     0.00043096    -0.00065258    -0.00041002
H        -4.22613204    -1.72623855     0.47592519    -0.00065406     0.00056857    -0.00016741
C        -3.87584920     0.37120329    -0.05513964    -0.00014907     0.00001440    -0.00016904
C        -2.50963201     0.43074830     0.22864836    -0.00017051    -0.00011992     0.00004492
H        -4.41361108     1.30129811    -0.33873809     0.00021294    -0.00049371     0.00030377
H        -1.99543638    -0.44960577     0.43630446    -0.00091244     0.00008405    -0.00047661
C        -1.84490731     1.72238404     0.02909795    -0.00014394     0.00000228     0.00012810
H        -2.43054862     2.60158903    -0.35649949     0.00029380    -0.00079865     0.00067818
N        -0.59121741     1.82768419     0.18121348     0.00033424     0.00009316    -0.00022495
H        -0.16607506     2.76939331     0.02151602    -0.00011512     0.00077852     0.00052568
H         0.08393871     1.01899466     0.34128295     0.00055945    -0.00042296     0.00124504
    14
  Step:     1            Position(A)                                  Velocity(au)
C        -6.02864496    -0.64649231    -0.10195281     0.00004801    -0.00000439     0.00005936
C        -4.65340318    -0.78199005     0.10827177     0.00001563     0.00015403     0.00006317
H        -6.56771325     0.24712495    -0.54632665     0.00004191    -0.00114234    -0.00009674
H        -6.66479314    -1.57574076    -0.01677644     0.00052504    -0.00042302    -0.00038786
H        -4.23341236    -1.71970603     0.47381625    -0.00066235     0.00060220    -0.00020822
C        -3.87793594     0.37130363    -0.05703397    -0.00023008     0.00000313    -0.00017652
C        -2.51112860     0.42993224     0.22906827    -0.00010433    -0.00002773     0.00003132
H        -4.41076174     1.29531076    -0.33538345     0.00029347    -0.00057745     0.00030072
H        -2.00396636    -0.45032744     0.43176594    -0.00063336    -0.00023467    -0.00034871
C        -1.84720499     1.72205665     0.03044039    -0.00026917    -0.00006423     0.00011931
H        -2.42668571     2.59187105    -0.34827832     0.00039257    -0.00094733     0.00081085
N        -0.58685365     1.82882735     0.17880279     0.00045958     0.00011456    -0.00021580
H        -0.16747070     2.77635072     0.02754657    -0.00013963     0.00048495     0.00057625
H         0.08831343     1.01614979     0.35470554     0.00022988    -0.00007889     0.00120092
    14
  Step:     2            Position(A)                                  Velocity(au)
C        -6.02834769    -0.64668191    -0.10139986     0.00000720    -0.00003231     0.00004224
C        -4.65323963    -0.78018465     0.10897250     0.00001270     0.00017721     0.00006430
H        -6.56603445     0.23365378    -0.54650132     0.00025145    -0.00129390     0.00005463
H        -6.65852696    -1.57908453    -0.02088981     0.00061739    -0.00019059    -0.00036221
H        -4.24062214    -1.71306422     0.47136990    -0.00064061     0.00058751    -0.00022859
C        -3.88088266     0.37127166    -0.05900140    -0.00030578    -0.00001022    -0.00018221
C        -2.51191440     0.43014158     0.22933359    -0.00003985     0.00006519     0.00001712
H        -4.40719078     1.28866536    -0.33215937     0.00034135    -0.00060928     0.00027846
H        -2.00929239    -0.45473960     0.42867571    -0.00034085    -0.00056653    -0.00021756
C        -1.85079601     1.72097879     0.03170805    -0.00037755    -0.00013497     0.00011485
H        -2.42196042     2.58086435    -0.33876052     0.00044538    -0.00102641     0.00091189
N        -0.58116329     1.83019049     0.17649240     0.00057352     0.00013324    -0.00020687
H        -0.16912969     2.78000241     0.03412255    -0.00015749     0.00018878     0.00062322
H         0.08896787     1.01726883     0.36755530    -0.00010630     0.00028557     0.00114383
    14
  Step:     3            Position(A)                                  Velocity(au)
C        -6.02848748    -0.64719906    -0.10102877    -0.00003113    -0.00006426     0.00002645
C        -4.65312529    -0.77811334     0.10967849     0.00000683     0.00020253     0.00006417
H        -6.56221225     0.21881846    -0.54513161     0.00042791    -0.00138378     0.00018087
H        -6.65128659    -1.57991035    -0.02470055     0.00069841     0.00002993    -0.00033211
H        -4.24742687    -1.70685312     0.46881539    -0.00058887     0.00052476    -0.00022844
C        -3.88462541     0.37107998    -0.06102007    -0.00037525    -0.00002636    -0.00018576
C        -2.51200042     0.43135831     0.22944279     0.00002431     0.00015415     0.00000321
H        -4.40329415     1.28198167    -0.32929150     0.00035077    -0.00058161     0.00023479
H        -2.01142308    -0.46272143     0.42700645    -0.00006250    -0.00086392    -0.00009417
C        -1.85546458     1.71910395     0.03295297    -0.00046415    -0.00020989     0.00011539
H        -2.41694209     2.56941645    -0.32832896     0.00044154    -0.00102199     0.00097549
N        -0.57430671     1.83174224     0.17427720     0.00067018     0.00014898    -0.00019865
H        -0.17091606     2.78048067     0.04118066    -0.00015764    -0.00008090     0.00066266
H         0.08598791     1.02239710     0.37972906    -0.00042051     0.00063793     0.00108158
    14
  Step:     4            Position(A)                                  Velocity(au)
C        -6.02902876    -0.64808768    -0.10082118    -0.00006552    -0.00010014     0.00001267
C        -4.65309026    -0.77575387     0.11037644    -0.00000149     0.00022949     0.00006298
H        -6.55667316     0.20338085    -0.54254442     0.00055990    -0.00139682     0.00027273
H        -6.64324789    -1.57842986    -0.02815527     0.00075872     0.00022364    -0.00029683
H        -4.25350471    -1.70158412     0.46637239    -0.00050954     0.00041929    -0.00020971
C        -3.88909202     0.37069506    -0.06306516    -0.00043777    -0.00004553    -0.00018697
C        -2.51138251     0.43351385     0.22940388     0.00008914     0.00023492    -0.00000965
H        -4.39951710     1.27594150    -0.32702298     0.00031899    -0.00049149     0.00016895
H        -2.01065959    -0.47363953     0.42661551     0.00017849    -0.00108558     0.00001238
C        -1.86095015     1.71638702     0.03423246    -0.00052590    -0.00028854     0.00012115
H        -2.41230096     2.55850633    -0.31741976     0.00037455    -0.00092582     0.00099846
N        -0.56650182     1.83344963     0.17214657     0.00074505     0.00016177    -0.00019166
H        -0.17257833     2.77823248     0.04861959    -0.00013036    -0.00029641     0.00069164
H         0.07976838     1.03122470     0.39121690    -0.00068481     0.00094545     0.00102351
    14
  Step:     5            Position(A)                                  Velocity(au)
C        -6.02992093    -0.64938989    -0.10075150    -0.00009468    -0.00013966     0.00000150
C        -4.65315797    -0.77309276     0.11105629    -0.00001171     0.00025692     0.00006112
H        -6.54996335     0.18826027    -0.53916522     0.00063784    -0.00132074     0.00032222
H        -6.63468811    -1.57501774    -0.03119419     0.00078931     0.00037588    -0.00025591
H        -4.25857409    -1.69768040     0.46422754    -0.00040749     0.00028175    -0.00017641
C        -3.89420239     0.37008386    -0.06511037    -0.00049242    -0.00006722    -0.00018579
C        -2.51005036     0.43649755     0.22923158     0.00015444     0.00030412    -0.00002106
H        -4.39631566     1.27122932    -0.32559531     0.00024728    -0.00034232     0.00008228
H        -2.00751821    -0.48647061     0.42727720     0.00036727    -0.00120417     0.00009643
C        -1.86696964     1.71279162     0.03560346    -0.00056179    -0.00036946     0.00013178
H        -2.40874803     2.54916234    -0.30648575     0.00024487    -0.00073938     0.00098176
N        -0.55800730     1.83528117     0.17008418     0.00079521     0.00017194    -0.00018646
H        -0.17376784     2.77399620     0.05631166    -0.00006805    -0.00043335     0.00070837
H         0.07100634     1.04308072     0.40212022    -0.00087237     0.00117529     0.00098060
    14
  Step:     6            Position(A)                                  Velocity(au)
C        -6.03110008    -0.65114291    -0.10078832    -0.00011748    -0.00018209    -0.00000666
C        -4.65334634    -0.77013332     0.11171345    -0.00002350     0.00028291     0.00005915
H        -6.54271923     0.17448707    -0.53549530     0.00065588    -0.00114914     0.00032440
H        -6.62598032    -1.57020673    -0.03375384     0.00078184     0.00047277    -0.00020913
H        -4.26241926    -1.69542029     0.46251305    -0.00028955     0.00012727    -0.00013418
C        -3.89986459     0.36922445    -0.06712961    -0.00053791    -0.00008984    -0.00018232
C        -2.50800384     0.44016716     0.22894318     0.00021853     0.00035929    -0.00003093
H        -4.39410733     1.26845254    -0.32522295     0.00014152    -0.00014510    -0.00002153
H        -2.00262476    -0.49998307     0.42872508     0.00049832    -0.00120880     0.00015601
C        -1.87324027     1.70830436     0.03711546    -0.00057273    -0.00044975     0.00014627
H        -2.40694387     2.54233087    -0.29594194     0.00006183    -0.00047728     0.00093163
N        -0.54910498     1.83721112     0.16806738     0.00081938     0.00018021    -0.00018365
H        -0.17406695     2.76875207     0.06411662     0.00003368    -0.00047372     0.00071247
H         0.06068354     1.05693639     0.41266948    -0.00095964     0.00129681     0.00096502
    14
  Step:     7            Position(A)                                  Velocity(au)
C        -6.03249103    -0.65337349    -0.10089727    -0.00013315    -0.00022615    -0.00001178
C        -4.65367212    -0.76690348     0.11235032    -0.00003696     0.00030504     0.00005774
H        -6.53561472     0.16312060    -0.53206837     0.00061426    -0.00088513     0.00027943
H        -6.61758387    -1.56467496    -0.03576928     0.00072942     0.00050254    -0.00015646
H        -4.26490846    -1.69489608     0.46129218    -0.00016372    -0.00002643    -0.00008951
C        -3.90597015     0.36811841    -0.06909899    -0.00057277    -0.00011082    -0.00017687
C        -2.50526965     0.44435779     0.22855492     0.00027857     0.00039870    -0.00003944
H        -4.39321963     1.26805493    -0.32606642     0.00001182     0.00008187    -0.00013657
H        -1.99661644    -0.51291536     0.43069022     0.00057384    -0.00110299     0.00019211
C        -1.87949915     1.70295252     0.03880343    -0.00056117    -0.00052500     0.00016304
H        -2.40739537     2.53872082    -0.28610462    -0.00015635    -0.00016782     0.00085948
N        -0.54008178     1.83922351     0.16606646     0.00081791     0.00018755    -0.00018387
H        -0.17303104     2.76363261     0.07189825     0.00017474    -0.00040973     0.00070511
H         0.05001247     1.07145091     0.42323188    -0.00093046     0.00128684     0.00098848
    14
  Step:     8            Position(A)                                  Velocity(au)
C        -6.03401299    -0.65609029    -0.10104607    -0.00014162    -0.00026982    -0.00001433
C        -4.65415492    -0.76346000     0.11297672    -0.00005238     0.00032071     0.00005754
H        -6.52928114     0.15512315    -0.52938229     0.00052099    -0.00054422     0.00019418
H        -6.61002285    -1.55921280    -0.03717665     0.00062773     0.00045749    -0.00009815
H        -4.26600098    -1.69599843     0.46055484    -0.00003811    -0.00016157    -0.00004881
C        -3.91239495     0.36680002    -0.07099904    -0.00059589    -0.00012703    -0.00016994
C        -2.50190949     0.44888955     0.22808034     0.00033147     0.00042130    -0.00004683
H        -4.39384876     1.27024353    -0.32821061    -0.00012881     0.00031505    -0.00025539
H        -1.99007085    -0.52411313     0.43292778     0.00060108    -0.00090039     0.00020756
C        -1.88551692     1.69681901     0.04068233    -0.00053051    -0.00058985     0.00018017
H        -2.41036430     2.53865941    -0.27713920    -0.00038513     0.00015048     0.00078011
N        -0.53121163     1.84131415     0.16404493     0.00079289     0.00019494    -0.00018759
H        -0.17024418     2.75978842     0.07954230     0.00034967    -0.00024721     0.00068902
H         0.04032792     1.08508840     0.43429446    -0.00078157     0.00113714     0.00105930
    14
  Step:     9            Position(A)                                  Velocity(au)
C        -6.03558931    -0.65927639    -0.10121070    -0.00014383    -0.00031058    -0.00001532
C        -4.65481797    -0.75988724     0.11360916    -0.00007002     0.00032768     0.00005908
H        -6.52421714     0.15121476    -0.52782029     0.00039185    -0.00015472     0.00008246
H        -6.60385111    -1.55466657    -0.03791657     0.00047639     0.00033633    -0.00003486
H        -4.26574229    -1.69843062     0.46022441     0.00008010    -0.00026288    -0.00001740
C        -3.91900644     0.36533932    -0.07281676    -0.00060692    -0.00013536    -0.00016216
C        -2.49801812     0.45357445     0.22753046     0.00037454     0.00042658    -0.00005328
H        -4.39603766     1.27494726    -0.33165352    -0.00026654     0.00052921    -0.00037013
H        -1.98346659    -0.53261304     0.43523093     0.00058966    -0.00062005     0.00020600
C        -1.89110499     1.69004851     0.04274510    -0.00048450    -0.00063885     0.00019575
H        -2.41582078     2.54201291    -0.26903812    -0.00059856     0.00043627     0.00070854
N        -0.52273589     1.84348824     0.16196257     0.00074822     0.00020289    -0.00019486
H        -0.16538124     2.75822438     0.08697193     0.00054742    -0.00000717     0.00066803
H         0.03291421     1.09632806     0.44640600    -0.00052746     0.00086209     0.00117828
    14
  Step:    10            Position(A)                                  Velocity(au)
C        -6.03715949    -0.66288482    -0.10138127    -0.00014170    -0.00034579    -0.00001619
C        -4.65568675    -0.75629136     0.11426930    -0.00009002     0.00032432     0.00006274
H        -6.52070856     0.15173835    -0.52757843     0.00024812     0.00024544    -0.00003686
H        -6.59960083    -1.55185502    -0.03793923     0.00028037     0.00014643     0.00003224
H        -4.26424866    -1.70174948     0.46017419     0.00018542    -0.00031965     0.00000115
C        -3.92567240     0.36383871    -0.07454668    -0.00060614    -0.00013322    -0.00015421
C        -2.49371569     0.45822191     0.22691476     0.00040582     0.00041455    -0.00005889
H        -4.39967991     1.28182107    -0.33630798    -0.00038896     0.00070153    -0.00047364
H        -1.97717099    -0.53767799     0.43743451     0.00054973    -0.00028323     0.00019126
C        -1.89611623     1.68284300     0.04496472    -0.00042667    -0.00066736     0.00020818
H        -2.42345901     2.54820361    -0.26163853    -0.00077459     0.00065391     0.00065665
N        -0.51484279     1.84575284     0.15978204     0.00068950     0.00021111    -0.00020499
H        -0.15826831     2.75963146     0.09415663     0.00075223     0.00027593     0.00064629
H         0.02878876     1.10394829     0.46007168    -0.00020150     0.00050172     0.00133547
    14
  Step:    11            Position(A)                                  Velocity(au)
C        -6.03868921    -0.66684114    -0.10156482    -0.00013785    -0.00037338    -0.00001842
C        -4.65678734    -0.75279221     0.11498173    -0.00011237     0.00030979     0.00006867
H        -6.51878895     0.15658423    -0.52862665     0.00011218     0.00061541    -0.00014351
H        -6.59771753    -1.55146321    -0.03721116     0.00005052    -0.00009520     0.00010135
H        -4.26168579    -1.70542362     0.46024949     0.00027437    -0.00032668     0.00000532
C        -3.93226683     0.36242498    -0.07619045    -0.00059428    -0.00011887    -0.00014667
C        -2.48914004     0.46264346     0.22624204     0.00042403     0.00038559    -0.00006372
H        -4.40454687     1.29029464    -0.34201531    -0.00048678     0.00081507    -0.00056037
H        -1.97144015    -0.53880914     0.43941508     0.00049113     0.00008850     0.00016703
C        -1.90043930     1.67544877     0.04729934    -0.00035994    -0.00067217     0.00021640
H        -2.43276635     2.55631844    -0.25467258    -0.00089859     0.00077993     0.00063121
N        -0.50765176     1.84810672     0.15747799     0.00062330     0.00021847    -0.00021651
H        -0.14892483     2.76426081     0.10111067     0.00094583     0.00055978     0.00062735
H         0.02850594     1.10730408     0.47562203     0.00014912     0.00011638     0.00150970
    14
  Step:    12            Position(A)                                  Velocity(au)
C        -6.04017532    -0.67105329    -0.10178414    -0.00013512    -0.00039245    -0.00002322
C        -4.65814497    -0.74951418     0.11577161    -0.00013691     0.00028409     0.00007683
H        -6.51825439     0.16520170    -0.53071790     0.00000286     0.00091922    -0.00022009
H        -6.59849561    -1.55393763    -0.03572194    -0.00019701    -0.00036301     0.00017010
H        -4.25824621    -1.70889634     0.46029048     0.00034538    -0.00028417    -0.00000449
C        -3.93867333     0.36123831    -0.07775537    -0.00057231    -0.00009166    -0.00013996
C        -2.48443930     0.46665744     0.22552083     0.00042854     0.00034064    -0.00006778
H        -4.41032924     1.29965224    -0.34856715    -0.00055471     0.00086071    -0.00062693
H        -1.96642667    -0.53574180     0.44108857     0.00042301     0.00047386     0.00013686
C        -1.90399065     1.66813800     0.04969889    -0.00028645    -0.00065183     0.00021996
H        -2.44311732     2.56526616    -0.24782970    -0.00096438     0.00080532     0.00063354
N        -0.50120694     1.85053227     0.15504550     0.00055617     0.00022340    -0.00022735
H        -0.13757639     2.77187763     0.10788115     0.00111035     0.00080211     0.00061336
H         0.03205111     1.10649429     0.49309929     0.00047385    -0.00022695     0.00167248
    14
  Step:    13            Position(A)                                  Velocity(au)
C        -6.04164524    -0.67542662    -0.10207279    -0.00013604    -0.00040341    -0.00003128
C        -4.65978250    -0.74657723     0.11666244    -0.00016336     0.00024801     0.00008696
H        -6.51872632     0.17669389    -0.53344151    -0.00006781     0.00113181    -0.00025519
H        -6.60202739    -1.55940485    -0.03348987    -0.00044280    -0.00062643     0.00023575
H        -4.25412986    -1.71164039     0.46015125     0.00039850    -0.00019683    -0.00002634
C        -3.94478725     0.36041972    -0.07925228    -0.00054138    -0.00005207    -0.00013429
C        -2.47976500     0.47009558     0.22475916     0.00041929     0.00028128    -0.00007118
H        -4.41668231     1.30912434    -0.35573061    -0.00059126     0.00083725    -0.00067210
H        -1.96218606    -0.52844261     0.44240919     0.00035411     0.00085162     0.00010429
C        -1.90670587     1.66118880     0.05211146    -0.00020768    -0.00060661     0.00021892
H        -2.45386391     2.57393637    -0.24081262    -0.00097289     0.00073387     0.00066074
N        -0.49548457     1.85299409     0.15250422     0.00049350     0.00022456    -0.00023538
H        -0.12463385     2.78180846     0.11452920     0.00123104     0.00096853     0.00060471
H         0.03887228     1.10233912     0.51221081     0.00073053    -0.00047157     0.00179508
    14
  Step:    14            Position(A)                                  Velocity(au)
C        -6.04315151    -0.67987865    -0.10246842    -0.00014251    -0.00040783    -0.00004267
C        -4.66171877    -0.74408842     0.11767403    -0.00019128     0.00020306     0.00009867
H        -6.51973779     0.18996210    -0.53630072    -0.00009547     0.00124139    -0.00024441
H        -6.60818272    -1.56764205    -0.03056436    -0.00066735    -0.00085505     0.00029550
H        -4.24952827    -1.71320239     0.45971421     0.00043500    -0.00007285    -0.00005721
C        -3.95051713     0.36009927    -0.08069322    -0.00050280    -0.00000154    -0.00012970
C        -2.47526659     0.47281104     0.22396372     0.00039675     0.00020995    -0.00007408
H        -4.42326415     1.31796859    -0.36327069    -0.00059789     0.00074998    -0.00069651
H        -1.95867990    -0.51711088     0.44337014     0.00029310     0.00120023     0.00007303
C        -1.90853407     1.65486724     0.05448820    -0.00012476    -0.00053834     0.00021372
H        -2.46440106     2.58132093    -0.23337465    -0.00092982     0.00057846     0.00070732
N        -0.49041068     1.85544488     0.14989619     0.00043885     0.00022126    -0.00023885
H        -0.11064500     2.79306597     0.12111028     0.00129838     0.00103782     0.00060020
H         0.04803294     1.09617785     0.53237021     0.00089343    -0.00058320     0.00185552
    14
  Step:    15            Position(A)                                  Velocity(au)
C        -6.04476293    -0.68434858    -0.10300636    -0.00015557    -0.00040782    -0.00005699
C        -4.66396715    -0.74213498     0.11882101    -0.00022011     0.00015128     0.00011143
H        -6.52081492     0.20385165    -0.53878851    -0.00008230     0.00124833    -0.00018950
H        -6.61662703    -1.57811072    -0.02702526    -0.00085426    -0.00102392     0.00034679
H        -4.24461334    -1.71323406     0.45889968     0.00045705     0.00007732    -0.00009342
C        -3.95578703     0.36038610    -0.08208962    -0.00045804     0.00005766    -0.00012603
C        -2.47108534     0.47468873     0.22313847     0.00036184     0.00013002    -0.00007683
H        -4.42976228     1.32553149    -0.37096814    -0.00057812     0.00060894    -0.00070218
H        -1.95577403    -0.50218532     0.44400678     0.00024899     0.00149727     0.00004716
C        -1.90943518     1.64941157     0.05678694    -0.00003864    -0.00045009     0.00020506
H        -2.47420543     2.58659137    -0.22533871    -0.00084332     0.00035706     0.00076672
N        -0.48588392     1.85783448     0.14727882     0.00039375     0.00021362    -0.00023680
H        -0.09622934     2.80451283     0.12765963     0.00130869     0.00100349     0.00059763
H         0.05841787     1.08958048     0.55280382     0.00095488    -0.00055327     0.00184251
    14
  Step:    16            Position(A)                                  Velocity(au)
C        -6.04655479    -0.68880040    -0.10371510    -0.00017538    -0.00040552    -0.00007348
C        -4.66653420    -0.74077880     0.12011167    -0.00024920     0.00009518     0.00012462
H        -6.52153819     0.21727176    -0.54044648    -0.00003483     0.00116196    -0.00009649
H        -6.62687139    -1.59004224    -0.02297763    -0.00099245    -0.00111701     0.00038767
H        -4.23952939    -1.71151095     0.45767053     0.00046741     0.00024193    -0.00013101
C        -3.96053753     0.36136079    -0.08345047    -0.00040864     0.00012270    -0.00012303
C        -2.46735067     0.47565545     0.22228294     0.00031578     0.00004572    -0.00007990
H        -4.43591155     1.33129040    -0.37863224    -0.00053664     0.00042708    -0.00069206
H        -1.95323276    -0.48435531     0.44440184     0.00023139     0.00171954     0.00003128
C        -1.90937944     1.64502070     0.05897420     0.00004969    -0.00034587     0.00019379
H        -2.48285033     2.58913234    -0.21660113    -0.00072246     0.00008972     0.00083237
N        -0.48179667     1.86011813     0.14471577     0.00035806     0.00020233    -0.00022900
H        -0.08201491     2.81501918     0.13418465     0.00126369     0.00087206     0.00059445
H         0.06892285     1.08407400     0.57267868     0.00092186    -0.00039438     0.00175562
    14
  Step:    17            Position(A)                                  Velocity(au)
C        -6.04859979    -0.69322011    -0.10461393    -0.00020139    -0.00040268    -0.00009130
C        -4.66941895    -0.74005278     0.12154722    -0.00027786     0.00003747     0.00013758
H        -6.52157695     0.22927170    -0.54089941     0.00003817     0.00099687     0.00002634
H        -6.63833871    -1.60254737    -0.01854433    -0.00107698    -0.00112833     0.00041689
H        -4.23438791    -1.70794147     0.45603364     0.00046925     0.00040873    -0.00016599
C        -3.96472671     0.36307050    -0.08478121    -0.00035621     0.00019041    -0.00012032
C        -2.46417706     0.47568891     0.22139060     0.00026005    -0.00003803    -0.00008389
H        -4.44150233     1.33487477    -0.38610830    -0.00047873     0.00021878    -0.00066969
H        -1.95071199    -0.46456716     0.44469102     0.00025023     0.00184415     0.00003034
C        -1.90834816     1.64184507     0.06102646     0.00013917    -0.00023039     0.00018085
H        -2.49001058     2.58855416    -0.20712899    -0.00057646    -0.00020301     0.00089809
N        -0.47805060     1.86226073     0.14226892     0.00033053     0.00018830    -0.00021589
H        -0.06858375     2.82359086     0.14066428     0.00116932     0.00065972     0.00058824
H         0.07858531     1.08095257     0.59121139     0.00081030    -0.00013213     0.00160262
    14
  Step:    18            Position(A)                                  Velocity(au)
C        -6.05096052    -0.69760981    -0.10571239    -0.00023242    -0.00040050    -0.00010956
C        -4.67261289    -0.73995905     0.12312152    -0.00030542    -0.00001903     0.00014965
H        -6.52070315     0.23908022    -0.53987023     0.00012728     0.00077015     0.00016990
H        -6.65043246    -1.61472659    -0.01385731    -0.00110858    -0.00106082     0.00043400
H        -4.22926358    -1.70256923     0.45403919     0.00046608     0.00056551    -0.00019451
C        -3.96833037     0.36552642    -0.08608279    -0.00030234     0.00025748    -0.00011747
C        -2.46166164     0.47482342     0.22044765     0.00019633    -0.00011609    -0.00008948
H        -4.44638464     1.33607670    -0.39328290    -0.00040993    -0.00000092    -0.00063900
H        -1.94775859    -0.44401110     0.44506562     0.00031468     0.00185125     0.00004916
C        -1.90633481     1.63998053     0.06293070     0.00022869    -0.00010880     0.00016721
H        -2.49546143     2.58469103    -0.19695370    -0.00041452    -0.00050082     0.00095827
N        -0.47456578     1.86423747     0.13999279     0.00030926     0.00017239    -0.00019828
H        -0.05643373     2.82945188     0.14705348     0.00103441     0.00038855     0.00057713
H         0.08664962     1.08118330     0.60773896     0.00064002     0.00020238     0.00139622
    14
  Step:    19            Position(A)                                  Velocity(au)
C        -6.05368432    -0.70198182    -0.10701068    -0.00026693    -0.00039970    -0.00012744
C        -4.67610068    -0.74046911     0.12482108    -0.00033134    -0.00007161     0.00016017
H        -6.51879238     0.24612025    -0.53718244     0.00022323     0.00049969     0.00032516
H        -6.66259096    -1.62575480    -0.00904976    -0.00109219    -0.00092393     0.00043918
H        -4.22419142    -1.69556994     0.45177844     0.00046160     0.00070058    -0.00021298
C        -3.97134108     0.36870327    -0.08735118    -0.00024849     0.00032063    -0.00011402
C        -2.45988188     0.47314916     0.21943304     0.00012659    -0.00018376    -0.00009725
H        -4.45047035     1.33485472    -0.40008760    -0.00033596    -0.00021683    -0.00060426
H        -1.94382772    -0.42406744     0.44576641     0.00043094     0.00172862     0.00009130
C        -1.90334517     1.63946493     0.06468440     0.00031716     0.00001358     0.00015379
H        -2.49907909     2.57759783    -0.18616502    -0.00024609    -0.00078357     0.00100780
N        -0.47128496     1.86603207     0.13793118     0.00029213     0.00015528    -0.00017723
H        -0.04595400     2.83209111     0.15329004     0.00086953     0.00008370     0.00055989
H         0.09258706     1.08538008     0.62175633     0.00043164     0.00057728     0.00115163
    14
  Step:    20            Position(A)                                  Velocity(au)
C        -6.05680007    -0.70635403    -0.10850045    -0.00030317    -0.00040066    -0.00014422
C        -4.67986154    -0.74152570     0.12662556    -0.00035518    -0.00011782     0.00016856
H        -6.51581947     0.25001197    -0.53275667     0.00031726     0.00020341     0.00048351
H        -6.67432615    -1.63493942    -0.00424939    -0.00103557    -0.00073122     0.00043318
H        -4.21916528    -1.68724277     0.44937988     0.00045950     0.00080337    -0.00021827
C        -3.97376657     0.37254075    -0.08857713    -0.00019593     0.00037680    -0.00010948
C        -2.45889225     0.47080341     0.21832008     0.00005318    -0.00023753    -0.00010754
H        -4.45373450     1.33133316    -0.40650214    -0.00026265    -0.00041398    -0.00056999
H        -1.93833093    -0.40619434     0.44706298     0.00059887     0.00147733     0.00015755
C        -1.89939634     1.64027763     0.06629518     0.00040364     0.00013150     0.00014150
H        -2.50084502     2.56754903    -0.17490616    -0.00008113    -0.00103116     0.00104198
N        -0.46817496     1.86763457     0.13611546     0.00027692     0.00013748    -0.00015395