     6
  Step:     0            Position(A)                                  Velocity(au)
C        -0.03505381     0.01088317     0.00449841     0.00004177     0.00010338    -0.00018007
N        -0.04695473    -0.04651602     1.30731147    -0.00012644    -0.00002844     0.00016429
H         0.95684546    -0.01124654    -0.52736076    -0.00045287    -0.00052500     0.00024871
H         0.82751741    -0.16078327     1.85629498     0.00128494    -0.00001248     0.00096398
H        -0.90082987    -0.08336259     1.87359437     0.00088878    -0.00004405    -0.00119165
H        -1.02626785     0.10233250    -0.53095092    -0.00046164    -0.00025518    -0.00015832
     6
  Step:     1            Position(A)                                  Velocity(au)
C        -0.03482684     0.01145010     0.00342375     0.00004098     0.00010393    -0.00021188
N        -0.04763644    -0.04667201     1.30829808    -0.00012067    -0.00002866     0.00019551
H         0.95423529    -0.01410240    -0.52612134    -0.00049804    -0.00051955     0.00020176
H         0.83449676    -0.16085932     1.86157529     0.00125156    -0.00001311     0.00095656
H        -0.89605348    -0.08363112     1.86715133     0.00084085    -0.00005508    -0.00115155
H        -1.02864533     0.10094484    -0.53193205    -0.00040596    -0.00025244    -0.00019891
     6
  Step:     2            Position(A)                                  Velocity(au)
C        -0.03460550     0.01202006     0.00218069     0.00003970     0.00010447    -0.00024146
N        -0.04827472    -0.04682955     1.30945017    -0.00011064    -0.00002898     0.00022458
H         0.95139741    -0.01692985    -0.52515373    -0.00053569    -0.00051459     0.00014922
H         0.84120804    -0.16092671     1.86675873     0.00118820    -0.00000955     0.00092944
H        -0.89163186    -0.08396510     1.86099773     0.00075888    -0.00006800    -0.00108576
H        -1.03070866     0.09957104    -0.53312677    -0.00034706    -0.00025004    -0.00023649
     6
  Step:     3            Position(A)                                  Velocity(au)
C        -0.03439259     0.01259297     0.00078224     0.00003789     0.00010499    -0.00026855
N        -0.04884677    -0.04698906     1.31075495    -0.00009659    -0.00002935     0.00025119
H         0.94837500    -0.01973178    -0.52448894    -0.00056517    -0.00051024     0.00009100
H         0.84749526    -0.16096375     1.87174298     0.00109808    -0.00000226     0.00088481
H        -0.88775167    -0.08437506     1.85527357     0.00064346    -0.00008286    -0.00099505
H        -1.03244198     0.09820953    -0.53451920    -0.00028562    -0.00024790    -0.00027130
     6
  Step:     4            Position(A)                                  Velocity(au)
C        -0.03419104     0.01316869    -0.00075719     0.00003553     0.00010550    -0.00029292
N        -0.04933146    -0.04715067     1.31219814    -0.00007891    -0.00002973     0.00027511
H         0.94521454    -0.02251179    -0.52415823    -0.00058595    -0.00050664     0.00002708
H         0.85322091    -0.16095143     1.87643852     0.00098464     0.00000825     0.00082510
H        -0.88459249    -0.08487159     1.85011190     0.00049664    -0.00009963    -0.00088124
H        -1.03383327     0.09685901    -0.53609478    -0.00022233    -0.00024599    -0.00030359
     6
  Step:     5            Position(A)                                  Velocity(au)
C        -0.03400389     0.01374711    -0.00242216     0.00003261     0.00010600    -0.00031442
N        -0.04970996    -0.04731433     1.31376460    -0.00005804    -0.00003009     0.00029627
H         0.94196487    -0.02527424    -0.52419270    -0.00059771    -0.00050395    -0.00004247
H         0.85826684    -0.16087351     1.88076928     0.00085145     0.00002148     0.00075278
H        -0.88231866    -0.08546496     1.84563314     0.00032195    -0.00011822    -0.00074712
H        -1.03487416     0.09551846    -0.53784038    -0.00015782    -0.00024426    -0.00033364
     6
  Step:     6            Position(A)                                  Velocity(au)
C        -0.03383430     0.01432814    -0.00419651     0.00002911     0.00010648    -0.00033295
N        -0.04996637    -0.04747981     1.31543897    -0.00003458    -0.00003040     0.00031467
H         0.93867638    -0.02802434    -0.52462285    -0.00060024    -0.00050231    -0.00011752
H         0.86253465    -0.16071645     1.88467295     0.00070206     0.00003695     0.00067033
H        -0.88107079    -0.08616476     1.84193940     0.00012440    -0.00013847    -0.00059646
H        -1.03555963     0.09418709    -0.53974443    -0.00009268    -0.00024267    -0.00036175
     6
  Step:     7            Position(A)                                  Velocity(au)
C        -0.03368548     0.01491172    -0.00606364     0.00002502     0.00010697    -0.00034844
N        -0.05008821    -0.04764677     1.31720625    -0.00000918    -0.00003063     0.00033043
H         0.93539998    -0.03076805    -0.52547808    -0.00059352    -0.00050183    -0.00019783
H         0.86594543    -0.16046934     1.88810077     0.00053994     0.00005420     0.00058015
H        -0.88095803    -0.08697947     1.83910956    -0.00008968    -0.00016016    -0.00043382
H        -1.03588776     0.09286433    -0.54179695    -0.00002742    -0.00024117    -0.00038821
     6
  Step:     8            Position(A)                                  Velocity(au)
C        -0.03356065     0.01549783    -0.00800676     0.00002035     0.00010745    -0.00036087
N        -0.05006681    -0.04781480     1.31905228     0.00001743    -0.00003079     0.00034371
H         0.93218611    -0.03351197    -0.52678614    -0.00057774    -0.00050262    -0.00028302
H         0.86843903    -0.16012373     1.89101701     0.00036842     0.00007279     0.00048455
H        -0.88205147    -0.08791609     1.83719545    -0.00031295    -0.00018296    -0.00026434
H        -1.03585946     0.09154987    -0.54398960     0.00003746    -0.00023970    -0.00041330
     6
  Step:     9            Position(A)                                  Velocity(au)
C        -0.03346299     0.01608645    -0.01000902     0.00001511     0.00010792    -0.00037022
N        -0.04989766    -0.04798343     1.32096400     0.00004449    -0.00003086     0.00035471
H         0.92908354    -0.03626318    -0.52857239    -0.00055327    -0.00050471    -0.00037259
H         0.86997335    -0.15967349     1.89339841     0.00019073     0.00009230     0.00038575
H        -0.88437952    -0.08897977     1.83621950    -0.00053737    -0.00020651    -0.00009346
H        -1.03547819     0.09024372    -0.54631556     0.00010151    -0.00023819    -0.00043727
     6
  Step:    10            Position(A)                                  Velocity(au)
C        -0.03339552     0.01667750    -0.01205360     0.00000933     0.00010837    -0.00037648
N        -0.04958047    -0.04815218     1.32292957     0.00007122    -0.00003085     0.00036363
H         0.92613827    -0.03902897    -0.53085897    -0.00052072    -0.00050811    -0.00046585
H         0.87052388    -0.15911477     1.89523367     0.00001009     0.00011232     0.00028591
H        -0.88792548    -0.09017350     1.83617384    -0.00075466    -0.00023040     0.00007335
H        -1.03474989     0.08894623    -0.54876942     0.00016426    -0.00023656    -0.00046035
     6
  Step:    11            Position(A)                                  Velocity(au)
C        -0.03336101     0.01727089    -0.01412377     0.00000308     0.00010878    -0.00037967
N        -0.04911924    -0.04832056     1.32493830     0.00009684    -0.00003073     0.00037066
H         0.92339236    -0.04181658    -0.53366386    -0.00048090    -0.00051277    -0.00056190
H         0.87008361    -0.15844593     1.89652329    -0.00017024     0.00013242     0.00018720
H        -0.89262755    -0.09149792     1.83702114    -0.00095673    -0.00025416     0.00023086
H        -1.03368290     0.08765823    -0.55134698     0.00022526    -0.00023472    -0.00048273
     6
  Step:    12            Position(A)                                  Velocity(au)
C        -0.03336186     0.01786638    -0.01620296    -0.00000357     0.00010913    -0.00037981
N        -0.04852208    -0.04848807     1.32698041     0.00012062    -0.00003053     0.00037592
H         0.92088269    -0.04463287    -0.53699981    -0.00043485    -0.00051857    -0.00065965
H         0.86866342    -0.15766756     1.89727956    -0.00034686     0.00015220     0.00009182
H        -0.89838135    -0.09295116     1.83869681    -0.00113615    -0.00027732     0.00037437
H        -1.03228809     0.08638105    -0.55404507     0.00028401    -0.00023255    -0.00050455
     6
  Step:    13            Position(A)                                  Velocity(au)
C        -0.03340000     0.01846359    -0.01827475    -0.00001051     0.00010938    -0.00037692
N        -0.04780093    -0.04865418     1.32904673     0.00014188    -0.00003022     0.00037947
H         0.91863985    -0.04748409    -0.54087326    -0.00038384    -0.00052536    -0.00075781
H         0.86629279    -0.15678253     1.89752684    -0.00051621     0.00017121     0.00000205
H        -0.90504464    -0.09452883     1.84111263    -0.00128653    -0.00029943     0.00049992
H        -1.03057892     0.08511661    -0.55686131     0.00033999    -0.00022996    -0.00052593
     6
  Step:    14            Position(A)                                  Velocity(au)
C        -0.03347672     0.01906200    -0.02032300    -0.00001761     0.00010950    -0.00037106
N        -0.04697117    -0.04881835     1.33112828     0.00016004    -0.00002980     0.00038131
H         0.91668697    -0.05037552    -0.54528329    -0.00032935    -0.00053295    -0.00085492
H         0.86302078    -0.15579607     1.89730194    -0.00067457     0.00018902    -0.00007978
H        -0.91244417    -0.09622418     1.84416129    -0.00140290    -0.00032006     0.00060446
H        -1.02857170     0.08386739    -0.55979389     0.00039266    -0.00022683    -0.00054694
     6
  Step:    15            Position(A)                                  Velocity(au)
C        -0.03359258     0.01966087    -0.02233189    -0.00002643     0.00011194    -0.00041370
N        -0.04605112    -0.04897996     1.33321589     0.00017547    -0.00003075     0.00042238
H         0.91503876    -0.05331129    -0.55022080    -0.00030247    -0.00058835    -0.00091050
H         0.85891710    -0.15471583     1.89665458    -0.00083687     0.00025508    -0.00016230
H        -0.92038375    -0.09802830     1.84772172    -0.00146646    -0.00039422     0.00066246
H        -1.02628564     0.08263651    -0.56284142     0.00048215    -0.00017902    -0.00052953
     6
  Step:    16            Position(A)                                  Velocity(au)
C        -0.03376583     0.02028646    -0.02484848    -0.00003654     0.00011668    -0.00050677
N        -0.04505166    -0.04915477     1.33574873     0.00018751    -0.00003323     0.00050425
H         0.91337831    -0.05681141    -0.55524324    -0.00030448    -0.00068051    -0.00092144
H         0.85386630    -0.15300575     1.89552658    -0.00099950     0.00035783    -0.00024631
H        -0.92848578    -0.10053657     1.85140790    -0.00147294    -0.00050935     0.00067226
H        -1.02329742     0.08190912    -0.56558644     0.00060644    -0.00009666    -0.00047308
     6
  Step:    17            Position(A)                                  Velocity(au)
C        -0.03399258     0.02093830    -0.02787993    -0.00004578     0.00012109    -0.00059812
N        -0.04399826    -0.04934374     1.33873638     0.00019459    -0.00003568     0.00058499
H         0.91170533    -0.06076141    -0.56030858    -0.00030578    -0.00075587    -0.00092503
H         0.84797472    -0.15079833     1.89395805    -0.00113716     0.00044062    -0.00031879
H        -0.93650928    -0.10360464     1.85508150    -0.00143640    -0.00060318     0.00065815
H        -1.01964641     0.08157824    -0.56802060     0.00072074    -0.00002874    -0.00041631
     6
  Step:    18            Position(A)                                  Velocity(au)
C        -0.03426770     0.02161385    -0.03140491    -0.00005391     0.00012484    -0.00068355
N        -0.04291865    -0.04954588     1.34216124     0.00019632    -0.00003783     0.00066052
H         0.91002645    -0.06509703    -0.56538318    -0.00030532    -0.00082017    -0.00092211
H         0.84140099    -0.14817579     1.89203213    -0.00124101     0.00050916    -0.00037307
H        -0.94423125    -0.10714853     1.85862236    -0.00136011    -0.00068272     0.00062312
H        -1.01539686     0.08159409    -0.57014991     0.00082057     0.00003174    -0.00036155
     6
  Step:    19            Position(A)                                  Velocity(au)
C        -0.03458455     0.02230919    -0.03538603    -0.00006063     0.00012769    -0.00076031
N        -0.04184247    -0.04975912     1.34598962     0.00019244    -0.00003950     0.00072809
H         0.90835260    -0.06976783    -0.57043441    -0.00030237    -0.00087491    -0.00091276
H         0.83434709    -0.14520720     1.88986133    -0.00130360     0.00056492    -0.00040433
H        -0.95144474    -0.11110164     1.86192410    -0.00124772    -0.00075001     0.00056998
H        -1.01063569     0.08192679    -0.57199083     0.00090175     0.00008735    -0.00031072
     6
  Step:    20            Position(A)                                  Velocity(au)
C        -0.03493494     0.02301916    -0.03977291    -0.00006565     0.00012943    -0.00082617
N        -0.04080064    -0.04998062     1.35017457     0.00018285    -0.00004058     0.00078541
H         0.90669857    -0.07472627    -0.57542900    -0.00029636    -0.00092029    -0.00089693
H         0.82705358    -0.14195823     1.88758205    -0.00131889     0.00060829    -0.00040889
H        -0.95796368    -0.11540314     1.86489552    -0.00110398    -0.00080571     0.00050186
H        -1.00547215     0.08255544    -0.57356968     0.00096044     0.00013927    -0.00026562
     6
  Step:    21            Position(A)                                  Velocity(au)
C        -0.03530913     0.02373758    -0.04450392    -0.00006875     0.00012992    -0.00087938
N        -0.03982444    -0.05020693     1.35465762     0.00016769    -0.00004098     0.00083069
H         0.90508194    -0.07992445    -0.58033319    -0.00028693    -0.00095622    -0.00087477
H         0.81979145    -0.13849390     1.88534872    -0.00128296     0.00063946    -0.00038443
H        -0.96362861    -0.11999370     1.86746273    -0.00093477    -0.00085005     0.00042234
H        -1.00003596     0.08346385    -0.57492230     0.00099343     0.00018810    -0.00022795
     6
  Step:    22            Position(A)                                  Velocity(au)
C        -0.03569603     0.02445750    -0.04950860    -0.00006972     0.00012908    -0.00091880
N        -0.03894412    -0.05043429     1.35937121     0.00014737    -0.00004067     0.00086277
H         0.90352194    -0.08531270    -0.58511362    -0.00027398    -0.00098264    -0.00084669
H         0.81284984    -0.13487867     1.88332599    -0.00119477     0.00065882    -0.00033042
H        -0.96831264    -0.12481414     1.86957132    -0.00074698    -0.00088326     0.00033534
H        -0.99447380     0.08463792    -0.57609335     0.00099852     0.00023409    -0.00019918
     6
  Step:    23            Position(A)                                  Velocity(au)
C        -0.03608369     0.02517158    -0.05471093    -0.00006852     0.00012694    -0.00094414
N        -0.03818728    -0.05065877     1.36424226     0.00012263    -0.00003968     0.00088138
H         0.90203831    -0.09084065    -0.58973910    -0.00025765    -0.00099990    -0.00081353
H         0.80651863    -0.13117505     1.88167807    -0.00105685     0.00066725    -0.00024838
H        -0.97192690    -0.12980591     1.87118802    -0.00054822    -0.00090595     0.00024489
H        -0.98894334     0.08606433    -0.57713500     0.00097498     0.00027737    -0.00018041
     6
  Step:    24            Position(A)                                  Velocity(au)
C        -0.03645986     0.02587260    -0.06003385    -0.00006518     0.00012361    -0.00095612
N        -0.03757707    -0.05087663     1.36919674     0.00009447    -0.00003807     0.00088721
H         0.90064970    -0.09645948    -0.59418283    -0.00023840    -0.00100892    -0.00077659
H         0.80106816    -0.12744023     1.88055707    -0.00087538     0.00066629    -0.00014188
H        -0.97442420    -0.13491365     1.87230138    -0.00034623    -0.00091934     0.00015494
H        -0.98360476     0.08772996    -0.57810460     0.00092384     0.00031811    -0.00017227
     6
  Step:    25            Position(A)                                  Velocity(au)
C        -0.03681273     0.02655406    -0.06540461    -0.00005990     0.00011932    -0.00095647
N        -0.03713068    -0.05108462     1.37416521     0.00006410    -0.00003598     0.00088202
H         0.89937195    -0.10212482    -0.59842483    -0.00021692    -0.00101133    -0.00073755
H         0.79672807    -0.12372295     1.88009125    -0.00065966     0.00065813    -0.00001614
H        -0.97579925    -0.14008820     1.87292092    -0.00014817    -0.00092534     0.00006897
H        -0.97861079     0.08962224    -0.57906173     0.00084773     0.00035671    -0.00017486
     6
  Step:    26            Position(A)                                  Velocity(au)
C        -0.03713163     0.02721075    -0.07076025    -0.00005295     0.00011438    -0.00094772
N        -0.03685824    -0.05128018     1.37908827     0.00003276    -0.00003356     0.00086834
H         0.89821703    -0.10780119    -0.60245417    -0.00019401    -0.00100942    -0.00069831
H         0.79367034    -0.12005960     1.88037611    -0.00042083     0.00064542     0.00012274
H        -0.97608590    -0.14529097     1.87307489     0.00003996    -0.00092652    -0.00001019
H        -0.97409779     0.09173038    -0.58006554     0.00075053     0.00039384    -0.00018784
     6
  Step:    27            Position(A)                                  Velocity(au)
C        -0.03740761     0.02783911    -0.07605203    -0.00004466     0.00010910    -0.00093284
N        -0.03676265    -0.05146163     1.38392076     0.00000161    -0.00003094     0.00084907
H         0.89719233    -0.11346546    -0.60627023    -0.00017044    -0.00100577    -0.00066072
H         0.79200018    -0.11647183     1.88147025    -0.00017029     0.00063097     0.00026863
H        -0.97535036    -0.15049741     1.87280638     0.00021380    -0.00092576    -0.00008059
H        -0.97017876     0.09404696    -0.58117205     0.00063665     0.00043043    -0.00021052
     6
  Step:    28            Position(A)                                  Velocity(au)
C        -0.03763367     0.02843733    -0.08124753    -0.00003534     0.00010377    -0.00091461
N        -0.03684020    -0.05162806     1.38863379    -0.00002839    -0.00002826     0.00082696
H         0.89630089    -0.11910837    -0.60988223    -0.00014685    -0.00100280    -0.00062623
H         0.79175588    -0.11296599     1.88339610     0.00008146     0.00061732     0.00041593
H        -0.97368223    -0.15569866     1.87216884     0.00037064    -0.00092585    -0.00014102
H        -0.96694029     0.09656941    -0.58243223     0.00051038     0.00046752    -0.00024191
     6
  Step:    29            Position(A)                                  Velocity(au)
C        -0.03780474     0.02900519    -0.08632971    -0.00002529     0.00009858    -0.00089521
N        -0.03708173    -0.05177922     1.39321355    -0.00005646    -0.00002559     0.00080416
H         0.89554213    -0.12473415    -0.61330730    -0.00012367    -0.00100238    -0.00059571
H         0.79291558    -0.10953485     1.88614417     0.00032539     0.00060638     0.00055983
H        -0.97118543    -0.16090136     1.87122168     0.00050884    -0.00092906    -0.00019081
H        -0.96444349     0.09930060    -0.58389051     0.00037540     0.00050602    -0.00028085
     6
  Step:    30            Position(A)                                  Velocity(au)
C        -0.03791748     0.02954358    -0.09129344    -0.00001475     0.00009362    -0.00087593
N        -0.03747384    -0.05191526     1.39765797    -0.00008196    -0.00002296     0.00078196
H         0.89491311    -0.13035699    -0.61656724    -0.00010112    -0.00100551    -0.00056941
H         0.79540732    -0.10616126     1.88967842     0.00055383     0.00059936     0.00069608
H        -0.96797212    -0.16612445     1.87002761     0.00062717    -0.00093692    -0.00022944
H        -0.96272764     0.10224786    -0.58558389     0.00023476     0.00054654    -0.00032595
     6
  Step:    31            Position(A)                                  Velocity(au)
C        -0.03796995     0.03005383    -0.09614063    -0.00000394     0.00008890    -0.00085724
N        -0.03799973    -0.05203643     1.40197193    -0.00010430    -0.00002036     0.00076085
H         0.89440954    -0.13599646    -0.61968503    -0.00007932    -0.00101233    -0.00054703
H         0.79911878    -0.10282165     1.89394069     0.00076010     0.00059678     0.00082080
H        -0.96416079    -0.17139546     1.86865179     0.00072423    -0.00095023    -0.00025637
H        -0.96181403     0.10542220    -0.58754130     0.00009124     0.00058933    -0.00037558
     6
  Step:    32            Position(A)                                  Velocity(au)
C        -0.03796155     0.03053734    -0.10087573     0.00000690     0.00008437    -0.00083903
N        -0.03863966    -0.05214286     1.40616286    -0.00012292    -0.00001774     0.00074079
H         0.89402642    -0.14167295    -0.62268201    -0.00005837    -0.00102237    -0.00052797
H         0.80390379    -0.09949039     1.89885342     0.00093823     0.00059857     0.00093037
H        -0.95987667    -0.17674617     1.86716189     0.00079831    -0.00096917    -0.00027095
H        -0.96170775     0.10883547    -0.58978218    -0.00005230     0.00063415    -0.00042784
     6
  Step:    33            Position(A)                                  Velocity(au)
C        -0.03789300     0.03099521    -0.10550251     0.00001751     0.00007995    -0.00082089
N        -0.03937125    -0.05223438     1.41023769    -0.00013733    -0.00001504     0.00072140
H         0.89375828    -0.14740413    -0.62557615    -0.00003836    -0.00103479    -0.00051150
H         0.80958757    -0.09614278     1.90432182     0.00108309     0.00060429     0.00102160
H        -0.95525322    -0.18220950     1.86562849     0.00084758    -0.00099362    -0.00027256
H        -0.96239760     0.11249804    -0.59231521    -0.00019270     0.00068042    -0.00048061
     6
  Step:    34            Position(A)                                  Velocity(au)
C        -0.03776643     0.03142821    -0.11002249     0.00002763     0.00007560    -0.00080238
N        -0.04016981    -0.05231048     1.41420107    -0.00014712    -0.00001220     0.00070224
H         0.89359895    -0.15320306    -0.62838135    -0.00001949    -0.00104864    -0.00049689
H         0.81597207    -0.09275713     1.91023657     0.00119072     0.00061328     0.00109196
H        -0.95043252    -0.18781754     1.86412493     0.00087041    -0.00102329    -0.00026071
H        -0.96385496     0.11641700    -0.59513742    -0.00032654     0.00072737    -0.00053169
     6
  Step:    35            Position(A)                                  Velocity(au)
C        -0.03758543     0.03183678    -0.11443460     0.00003697     0.00007127    -0.00078311
N        -0.04100895    -0.05237024     1.41805499    -0.00015204    -0.00000916     0.00068288
H         0.89354129    -0.15907761    -0.63110757    -0.00000199    -0.00106304    -0.00048353
H         0.82284267    -0.08931576     1.91647751     0.00125869     0.00062480     0.00113983
H        -0.94556380    -0.19360076     1.86272623     0.00086578    -0.00105787    -0.00023528
H        -0.96603270     0.12059512    -0.59823398    -0.00045031     0.00077415    -0.00057893
     6
  Step:    36            Position(A)                                  Velocity(au)
C        -0.03735506     0.03222117    -0.11873567     0.00004528     0.00006695    -0.00076288
N        -0.04186144    -0.05241240     1.42179902    -0.00015204    -0.00000586     0.00066304
H         0.89357679    -0.16503081    -0.63376131     0.00001386    -0.00107727    -0.00047092
H         0.82997660    -0.08580544     1.92291865     0.00128631     0.00063809     0.00116466
H        -0.94079961    -0.19958770     1.86150711     0.00083365    -0.00109706    -0.00019661
H        -0.96886527     0.12503039    -0.60157882    -0.00056069     0.00081991    -0.00062044
     6
  Step:    37            Position(A)                                  Velocity(au)
C        -0.03708167     0.03258151    -0.12292122     0.00005235     0.00006263    -0.00074160
N        -0.04270030    -0.05243542     1.42543094    -0.00014728    -0.00000226     0.00064253
H         0.89369543    -0.17106161    -0.63634628     0.00002775    -0.00109076    -0.00045866
H         0.83715218    -0.08221734     1.92943370     0.00127464     0.00065246     0.00116693
H        -0.93628988    -0.20580489     1.86053908     0.00077522    -0.00114054    -0.00014560
H        -0.97227010     0.12971621    -0.60513602    -0.00065482     0.00086392    -0.00065464
     6
  Step:    38            Position(A)                                  Velocity(au)
C        -0.03677266     0.03291795    -0.12698621     0.00005801     0.00005834    -0.00071931
N        -0.04349996    -0.05243754     1.42894746    -0.00013812     0.00000166     0.00062131
H         0.89388550    -0.17716596    -0.63886409     0.00003938    -0.00110317    -0.00044648
H         0.84415745    -0.07854660     1.93590118     0.00122623     0.00066727     0.00114801
H        -0.93217503    -0.21227659     1.85988725     0.00069293    -0.00118795    -0.00008375
H        -0.97615042     0.13464187    -0.60886188    -0.00073049     0.00090556    -0.00068037
     6
  Step:    39            Position(A)                                  Velocity(au)
C        -0.03643618     0.03323073    -0.13092577     0.00006216     0.00005410    -0.00069616
N        -0.04423726    -0.05241694     1.43234493    -0.00012509     0.00000590     0.00059941
H         0.89413369    -0.18333778    -0.64131480     0.00004848    -0.00111428    -0.00043419
H         0.85079774    -0.07479187     1.94220893     0.00114484     0.00068202     0.00111002
H        -0.92857885    -0.21902448     1.85960715     0.00059048    -0.00123884    -0.00001306
H        -0.98039907     0.13979333    -0.61270725    -0.00078623     0.00094435    -0.00069694
     6
  Step:    40            Position(A)                                  Velocity(au)
C        -0.03608075     0.03352020    -0.13473569     0.00006477     0.00004994    -0.00067234
N        -0.04489242    -0.05237181     1.43561998    -0.00010888     0.00001045     0.00057697
H         0.89442522    -0.18956985    -0.64369741     0.00005481    -0.00112403    -0.00042166
H         0.85690161    -0.07095452     1.94825764     0.00103514     0.00069631     0.00105555
H        -0.92560196    -0.22606709     1.85974187     0.00047258    -0.00129265     0.00006400
H        -0.98490260     0.14515412    -0.61662001    -0.00082138     0.00097999    -0.00070405
     6
  Step:    41            Position(A)                                  Velocity(au)
C        -0.03571495     0.03378688    -0.13841272     0.00006586     0.00004589    -0.00064806
N        -0.04544966    -0.05230055     1.43876990    -0.00009024     0.00001526     0.00055417
H         0.89474403    -0.19585463    -0.64601028     0.00005816    -0.00113247    -0.00040882
H         0.86232469    -0.06703803     1.95396314     0.00090219     0.00070986     0.00098747
H        -0.92331631    -0.23341902     1.86031988     0.00034477    -0.00134866     0.00014468
H        -0.98954565     0.15070621    -0.62054738    -0.00083598     0.00101235    -0.00070184
     6
  Step:    42            Position(A)                                  Velocity(au)
C        -0.03534709     0.03403139    -0.14195465     0.00006552     0.00004197    -0.00062354
N        -0.04589763    -0.05220182     1.44179298    -0.00006999     0.00002027     0.00053120
H         0.89507308    -0.20218478    -0.64825137     0.00005839    -0.00113971    -0.00039563
H         0.86695140    -0.06304723     1.95925737     0.00075126     0.00072250     0.00090876
H        -0.92176147    -0.24109016     1.86135352     0.00021300    -0.00140599     0.00022605
H        -0.99421486     0.15643095    -0.62443804    -0.00083078     0.00104140    -0.00069075
     6
  Step:    43            Position(A)                                  Velocity(au)
C        -0.03498491     0.03425448    -0.14536038     0.00006386     0.00003819    -0.00059896
N        -0.04622955    -0.05207468     1.44468866    -0.00004895     0.00002540     0.00050828
H         0.89539460    -0.20855353    -0.65041848     0.00005539    -0.00114588    -0.00038207
H         0.87069537    -0.05898773     1.96408871     0.00058749     0.00073416     0.00082230
H        -0.92094300    -0.24908489     1.86283861     0.00008332    -0.00146364     0.00030521
H        -0.99880235     0.16230976    -0.62824385    -0.00080699     0.00106724    -0.00067145
     6
  Step:    44            Position(A)                                  Velocity(au)
C        -0.03463541     0.03445698    -0.14862973     0.00006102     0.00003457    -0.00057447
N        -0.04644313    -0.05191869     1.44745750    -0.00002788     0.00003057     0.00048560
H         0.89569035    -0.21495492    -0.65250934     0.00004911    -0.00115114    -0.00036814
H         0.87349861    -0.05486542     1.96842144     0.00041581     0.00074483     0.00073087
H        -0.92083293    -0.25740153     1.86475493    -0.00003850    -0.00152049     0.00037942
H        -1.00320829     0.16832470    -0.63192100    -0.00076623     0.00109003    -0.00064481
     6