|===============================================================================
|
|  DFTB+ release 20.1
|
|  Copyright (C) 2006 - 2020  DFTB+ developers group
|
|===============================================================================
|
|  When publishing results obtained with DFTB+, please cite the following
|  reference:
|
|  * DFTB+, a software package for efficient approximate density functional
|    theory based atomistic simulations, J. Chem. Phys. 152, 124101 (2020).
|    [doi: 10.1063/1.5143190]
|
|  You should also cite additional publications crediting the parametrization
|  data you use. Please consult the documentation of the SK-files for the
|  references.
|
|===============================================================================

Reading input file 'dftb_in.hsd'
Parser version: 8

--------------------------------------------------------------------------------
Reading SK-files:
Done.


Processed input in HSD format written to 'dftb_pin.hsd'

Starting initialization...
--------------------------------------------------------------------------------
OpenMP threads:              1
Chosen random seed:          502763256
Mode:                        Static calculation
Self consistent charges:     Yes
SCC-tolerance:                 0.100000E-05
Max. scc iterations:                   1000
Shell resolved Hubbard:      No
Spin polarisation:           No
Nr. of up electrons:            16.000000
Nr. of down electrons:          16.000000
Periodic boundaries:         No
Electronic solver:           Relatively robust
Maximal SCC-cycles:                    1000
Initial charges:             Set automatically (system chrg:   0.100E+01)
Included shells:             C:  s, p
                             H:  s
                             N:  s, p
Spin coupling constants:     C   1(s)-1(s):  -0.455900E-01
                             C   1(s)-2(p):  -0.293000E-01
                             C   2(p)-1(s):  -0.293000E-01
                             C   2(p)-2(p):  -0.275500E-01
                             H   1(s)-1(s):  -0.792500E-01
                             N   1(s)-1(s):  -0.468700E-01
                             N   1(s)-2(p):  -0.317000E-01
                             N   2(p)-1(s):  -0.317000E-01
                             N   2(p)-2(p):  -0.307200E-01
Range separated hybrid:      Yes
  Screening parameter omega:   0.300000E+00
  Range separated algorithm:   MatrixBased
Extra options:
                             Mulliken analysis
                             Force calculation
Force type                   original
                             Eigenvector printing


REKS Calcuation:             Yes
SSR(2,2) Calcuation:         Yes
Energy Functional:           (PPS+OSS)/2
Number of Core Orbitals:                 15
Number of Active Orbitals:                2
Number of Basis:                         32
Number of States:                         2
State-Averaging Weight:          0.500000
                                 0.500000
State of Interest:                        1
Initial Guess:               Diagonalize H0 matrix
Newton-Raphson for FON opt:  Yes
NR max. Iterations:                      50
Level Shifting:              Yes
Shift Value:                     0.300000
W Scale Factor:              C  =    3.200000
                             H  =    3.200000
                             N  =    3.200000
Transition Dipole:           No
Gradient of Microstate:      No
CP-REKS Solver:              Preconditioned Conjugate-Gradient
CG max. Iterations:                     100
CG Tolerance:                  0.100000E-07
Memory for A and Hxc:        Direct Updating Without Saving
Non-Adiabatic Coupling:      Yes

--------------------------------------------------------------------------------

***  Geometry step: 0

  iSCC       reks energy        Diff energy         x_a       SCC error   
    1      -16.3884100037       0.0000000000     0.999378    1.16829375
    2      -16.4058064696      -0.0173964660     0.999934    0.06701642
    3      -16.4096620208      -0.0038555512     0.999983    0.02883006
    4      -16.4111368235      -0.0014748027     0.999994    0.01482413
    5      -16.4118268975      -0.0006900740     0.999997    0.00857197
    6      -16.4121822798      -0.0003553823     0.999998    0.00521497
    7      -16.4123786367      -0.0001963569     0.999999    0.00360850
    8      -16.4124945271      -0.0001158904     0.999999    0.00243889
    9      -16.4125675215      -0.0000729944     0.999999    0.00186655
   10      -16.4126164103      -0.0000488888     0.999999    0.00149957
   11      -16.4126509906      -0.0000345803     0.999999    0.00122854
   12      -16.4126766067      -0.0000256160     0.999999    0.00102441
   13      -16.4126963203      -0.0000197136     0.999999    0.00087599
   14      -16.4127119769      -0.0000156566     0.999999    0.00076558
   15      -16.4127247437      -0.0000127669     0.999999    0.00067002
   16      -16.4127353921      -0.0000106484     0.999999    0.00058756
   17      -16.4127444505      -0.0000090584     1.000000    0.00051659
   18      -16.4127522917      -0.0000078412     1.000000    0.00046637
   19      -16.4127591852      -0.0000068935     1.000000    0.00043281
   20      -16.4127653291      -0.0000061439     1.000000    0.00040307
   21      -16.4127708714      -0.0000055423     1.000000    0.00037666
   22      -16.4127759238      -0.0000050525     1.000000    0.00035314
   23      -16.4127805719      -0.0000046480     1.000000    0.00033216
   24      -16.4127848813      -0.0000043094     1.000000    0.00031338
   25      -16.4127889034      -0.0000040221     1.000000    0.00029654
   26      -16.4127926783      -0.0000037749     1.000000    0.00028252
   27      -16.4127962380      -0.0000035597     1.000000    0.00028722
   28      -16.4127996080      -0.0000033700     1.000000    0.00029056
   29      -16.4128028091      -0.0000032010     1.000000    0.00029276
   30      -16.4128058580      -0.0000030490     1.000000    0.00029401
   31      -16.4128087689      -0.0000029109     1.000000    0.00029445
   32      -16.4128115535      -0.0000027846     1.000000    0.00029421
   33      -16.4128142218      -0.0000026682     1.000000    0.00029341
   34      -16.4128167822      -0.0000025604     1.000000    0.00029213
   35      -16.4128192422      -0.0000024600     1.000000    0.00029045
   36      -16.4128216082      -0.0000023661     1.000000    0.00028843
   37      -16.4128238861      -0.0000022779     1.000000    0.00028615
   38      -16.4128260809      -0.0000021948     1.000000    0.00028363
   39      -16.4128281973      -0.0000021164     1.000000    0.00028093
   40      -16.4128302395      -0.0000020422     1.000000    0.00027808
   41      -16.4128322113      -0.0000019718     1.000000    0.00027511
   42      -16.4128341163      -0.0000019050     1.000000    0.00027205
   43      -16.4128359577      -0.0000018414     1.000000    0.00026892
   44      -16.4128377386      -0.0000017809     1.000000    0.00026574
   45      -16.4128394618      -0.0000017232     1.000000    0.00026252
   46      -16.4128411299      -0.0000016681     1.000000    0.00025929
   47      -16.4128427454      -0.0000016155     1.000000    0.00025606
   48      -16.4128443106      -0.0000015652     1.000000    0.00025282
   49      -16.4128458278      -0.0000015172     1.000000    0.00024960
   50      -16.4128472989      -0.0000014711     1.000000    0.00024640
   51      -16.4128487260      -0.0000014271     1.000000    0.00024323
   52      -16.4128501108      -0.0000013848     1.000000    0.00024009
   53      -16.4128514551      -0.0000013443     1.000000    0.00023699
   54      -16.4128527606      -0.0000013055     0.999999    0.00023393
   55      -16.4128540288      -0.0000012682     0.999999    0.00023091
   56      -16.4128552612      -0.0000012324     0.999999    0.00022793
   57      -16.4128564592      -0.0000011980     0.999999    0.00022501
   58      -16.4128576242      -0.0000011650     0.999999    0.00022213
   59      -16.4128587573      -0.0000011332     0.999999    0.00021930
   60      -16.4128598600      -0.0000011026     0.999999    0.00021652
   61      -16.4128609332      -0.0000010732     0.999999    0.00021379
   62      -16.4128619781      -0.0000010449     0.999999    0.00021111
   63      -16.4128629958      -0.0000010177     0.999999    0.00020848
   64      -16.4128639872      -0.0000009914     0.999999    0.00020590
   65      -16.4128649534      -0.0000009661     0.999999    0.00020337
   66      -16.4128658951      -0.0000009418     0.999999    0.00020090
   67      -16.4128668134      -0.0000009182     0.999999    0.00019847
   68      -16.4128677089      -0.0000008956     0.999999    0.00019608
   69      -16.4128685826      -0.0000008737     0.999999    0.00019375
   70      -16.4128694352      -0.0000008526     0.999999    0.00019146
   71      -16.4128702674      -0.0000008322     0.999999    0.00018922
   72      -16.4128710798      -0.0000008125     0.999999    0.00018702
   73      -16.4128718733      -0.0000007934     0.999999    0.00018487
   74      -16.4128726483      -0.0000007751     0.999999    0.00018276
   75      -16.4128734056      -0.0000007573     0.999999    0.00018070
   76      -16.4128741457      -0.0000007401     0.999999    0.00017867
   77      -16.4128748692      -0.0000007235     0.999999    0.00017669
   78      -16.4128755765      -0.0000007074     0.999999    0.00017474
   79      -16.4128762683      -0.0000006918     0.999999    0.00017283
   80      -16.4128769451      -0.0000006767     0.999999    0.00017096
   81      -16.4128776072      -0.0000006621     0.999999    0.00016913
   82      -16.4128782552      -0.0000006480     0.999999    0.00016734
   83      -16.4128788895      -0.0000006343     0.999999    0.00016558
   84      -16.4128795105      -0.0000006210     0.999999    0.00016385
   85      -16.4128801187      -0.0000006082     0.999999    0.00016216
   86      -16.4128807144      -0.0000005957     0.999999    0.00016050
   87      -16.4128812979      -0.0000005836     0.999999    0.00015887
   88      -16.4128818698      -0.0000005718     0.999999    0.00015727
   89      -16.4128824302      -0.0000005605     0.999999    0.00015570
   90      -16.4128829797      -0.0000005494     0.999999    0.00015417
   91      -16.4128835183      -0.0000005387     0.999999    0.00015266
   92      -16.4128840466      -0.0000005283     0.999999    0.00015118
   93      -16.4128845647      -0.0000005181     0.999999    0.00014973
   94      -16.4128850730      -0.0000005083     0.999999    0.00014830
   95      -16.4128855718      -0.0000004988     0.999999    0.00014691
   96      -16.4128860613      -0.0000004895     0.999999    0.00014553
   97      -16.4128865418      -0.0000004805     0.999999    0.00014418
   98      -16.4128870134      -0.0000004717     0.999999    0.00014286
   99      -16.4128874766      -0.0000004632     0.999999    0.00014156
  100      -16.4128879315      -0.0000004549     0.999999    0.00014029
  101      -16.4128883783      -0.0000004468     0.999999    0.00013903
  102      -16.4128888172      -0.0000004390     0.999999    0.00013780
  103      -16.4128892485      -0.0000004313     0.999999    0.00013659
  104      -16.4128896724      -0.0000004239     0.999999    0.00013541
  105      -16.4128900890      -0.0000004166     0.999999    0.00013424
  106      -16.4128904986      -0.0000004096     0.999999    0.00013309
  107      -16.4128909013      -0.0000004027     0.999999    0.00013197
  108      -16.4128912974      -0.0000003960     0.999999    0.00013086
  109      -16.4128916869      -0.0000003895     0.999999    0.00012977
  110      -16.4128920700      -0.0000003832     0.999999    0.00012870
  111      -16.4128924470      -0.0000003770     0.999999    0.00012765
  112      -16.4128928179      -0.0000003709     0.999999    0.00012662
  113      -16.4128931829      -0.0000003650     0.999999    0.00012560
  114      -16.4128935423      -0.0000003593     0.999999    0.00012460
  115      -16.4128938960      -0.0000003537     0.999999    0.00012362
  116      -16.4128942442      -0.0000003483     0.999999    0.00012265
  117      -16.4128945872      -0.0000003429     0.999999    0.00012170
  118      -16.4128949249      -0.0000003377     0.999999    0.00012077
  119      -16.4128952576      -0.0000003327     0.999999    0.00011985
  120      -16.4128955853      -0.0000003277     0.999999    0.00011894
  121      -16.4128959082      -0.0000003229     0.999999    0.00011805
  122      -16.4128962263      -0.0000003182     0.999999    0.00011718
  123      -16.4128965399      -0.0000003136     0.999999    0.00011632
  124      -16.4128968490      -0.0000003091     0.999999    0.00011547
  125      -16.4128971536      -0.0000003047     0.999999    0.00011463
  126      -16.4128974540      -0.0000003004     0.999999    0.00011381
  127      -16.4128977502      -0.0000002962     0.999999    0.00011301
  128      -16.4128980423      -0.0000002921     0.999999    0.00011221
  129      -16.4128983304      -0.0000002881     0.999999    0.00011143
  130      -16.4128986145      -0.0000002842     0.999999    0.00011065
  131      -16.4128988949      -0.0000002803     0.999999    0.00010990
  132      -16.4128991714      -0.0000002766     0.999999    0.00010915
  133      -16.4128994444      -0.0000002729     0.999999    0.00010841
  134      -16.4128997137      -0.0000002694     0.999999    0.00010769
  135      -16.4128999796      -0.0000002659     0.999999    0.00010697
  136      -16.4129002420      -0.0000002624     0.999999    0.00010627
  137      -16.4129005011      -0.0000002591     0.999999    0.00010558
  138      -16.4129007569      -0.0000002558     0.999999    0.00010490
  139      -16.4129010095      -0.0000002526     0.999999    0.00010422
  140      -16.4129012589      -0.0000002495     0.999999    0.00010356
  141      -16.4129015053      -0.0000002464     0.999999    0.00010291
  142      -16.4129017487      -0.0000002434     0.999999    0.00010227
  143      -16.4129019891      -0.0000002404     0.999999    0.00010163
  144      -16.4129022267      -0.0000002375     0.999999    0.00010101
  145      -16.4129024614      -0.0000002347     0.999999    0.00010039
  146      -16.4129026933      -0.0000002320     0.999999    0.00009979
  147      -16.4129029226      -0.0000002292     0.999999    0.00009919
  148      -16.4129031492      -0.0000002266     0.999999    0.00009860
  149      -16.4129033731      -0.0000002240     0.999999    0.00009802
  150      -16.4129035946      -0.0000002214     0.999999    0.00009745
  151      -16.4129038135      -0.0000002189     0.999999    0.00009689
  152      -16.4129040300      -0.0000002165     0.999999    0.00009633
  153      -16.4129042441      -0.0000002141     0.999999    0.00009578
  154      -16.4129044559      -0.0000002118     0.999999    0.00009524
  155      -16.4129046653      -0.0000002094     0.999999    0.00009471
  156      -16.4129048725      -0.0000002072     0.999999    0.00009419
  157      -16.4129050775      -0.0000002050     0.999999    0.00009367
  158      -16.4129052803      -0.0000002028     0.999999    0.00009316
  159      -16.4129054810      -0.0000002007     0.999999    0.00009266
  160      -16.4129056796      -0.0000001986     0.999999    0.00009216
  161      -16.4129058761      -0.0000001965     0.999999    0.00009167
  162      -16.4129060706      -0.0000001945     0.999999    0.00009119
  163      -16.4129062632      -0.0000001926     0.999999    0.00009071
  164      -16.4129064538      -0.0000001906     0.999999    0.00009024
  165      -16.4129066425      -0.0000001887     0.999999    0.00008978
  166      -16.4129068294      -0.0000001869     0.999999    0.00008932
  167      -16.4129070144      -0.0000001850     0.999999    0.00008887
  168      -16.4129071977      -0.0000001832     0.999999    0.00008843
  169      -16.4129073792      -0.0000001815     0.999999    0.00008799
  170      -16.4129075589      -0.0000001798     0.999999    0.00008756
  171      -16.4129077370      -0.0000001781     0.999999    0.00008713
  172      -16.4129079134      -0.0000001764     0.999999    0.00008671
  173      -16.4129080882      -0.0000001748     0.999999    0.00008629
  174      -16.4129082613      -0.0000001732     0.999999    0.00008588
  175      -16.4129084329      -0.0000001716     0.999999    0.00008548
  176      -16.4129086030      -0.0000001700     0.999999    0.00008508
  177      -16.4129087715      -0.0000001685     0.999999    0.00008468
  178      -16.4129089385      -0.0000001670     0.999999    0.00008430
  179      -16.4129091041      -0.0000001656     0.999999    0.00008391
  180      -16.4129092682      -0.0000001641     0.999999    0.00008353
  181      -16.4129094309      -0.0000001627     0.999999    0.00008316
  182      -16.4129095922      -0.0000001613     0.999999    0.00008279
  183      -16.4129097522      -0.0000001600     0.999999    0.00008243
  184      -16.4129099108      -0.0000001586     0.999999    0.00008207
  185      -16.4129100681      -0.0000001573     0.999999    0.00008171
  186      -16.4129102241      -0.0000001560     0.999999    0.00008136
  187      -16.4129103788      -0.0000001547     0.999999    0.00008102
  188      -16.4129105323      -0.0000001535     0.999999    0.00008068
  189      -16.4129106845      -0.0000001522     0.999999    0.00008034
  190      -16.4129108356      -0.0000001510     0.999999    0.00008001
  191      -16.4129109854      -0.0000001499     0.999999    0.00007968
  192      -16.4129111341      -0.0000001487     0.999999    0.00007935
  193      -16.4129112816      -0.0000001475     0.999999    0.00007903
  194      -16.4129114281      -0.0000001464     0.999999    0.00007872
  195      -16.4129115734      -0.0000001453     0.999999    0.00007841
  196      -16.4129117176      -0.0000001442     0.999999    0.00007810
  197      -16.4129118607      -0.0000001431     0.999999    0.00007780
  198      -16.4129120028      -0.0000001421     0.999999    0.00007750
  199      -16.4129121438      -0.0000001410     0.999999    0.00007720
  200      -16.4129122839      -0.0000001400     0.999999    0.00007691
  201      -16.4129124229      -0.0000001390     0.999999    0.00007662
  202      -16.4129125609      -0.0000001380     0.999999    0.00007633
  203      -16.4129126980      -0.0000001371     0.999999    0.00007605
  204      -16.4129128341      -0.0000001361     0.999999    0.00007577
  205      -16.4129129693      -0.0000001352     0.999999    0.00007550
  206      -16.4129131035      -0.0000001343     0.999999    0.00007523
  207      -16.4129132369      -0.0000001333     0.999999    0.00007496
  208      -16.4129133693      -0.0000001325     0.999999    0.00007470
  209      -16.4129135009      -0.0000001316     0.999999    0.00007444
  210      -16.4129136316      -0.0000001307     0.999999    0.00007418
  211      -16.4129137615      -0.0000001299     0.999999    0.00007392
  212      -16.4129138905      -0.0000001290     0.999999    0.00007367
  213      -16.4129140187      -0.0000001282     0.999999    0.00007342
  214      -16.4129141461      -0.0000001274     0.999999    0.00007318
  215      -16.4129142727      -0.0000001266     0.999999    0.00007294
  216      -16.4129143985      -0.0000001258     0.999999    0.00007270
  217      -16.4129145235      -0.0000001250     0.999999    0.00007246
  218      -16.4129146478      -0.0000001243     0.999999    0.00007223
  219      -16.4129147713      -0.0000001235     0.999999    0.00007200
  220      -16.4129148941      -0.0000001228     0.999999    0.00007177
  221      -16.4129150162      -0.0000001221     0.999999    0.00007155
  222      -16.4129151375      -0.0000001214     0.999999    0.00007133
  223      -16.4129152582      -0.0000001207     0.999999    0.00007111
  224      -16.4129153782      -0.0000001200     0.999999    0.00007089
  225      -16.4129154974      -0.0000001193     0.999999    0.00007068
  226      -16.4129156161      -0.0000001186     0.999999    0.00007047
  227      -16.4129157340      -0.0000001180     0.999999    0.00007026
  228      -16.4129158513      -0.0000001173     0.999999    0.00007005
  229      -16.4129159680      -0.0000001167     0.999999    0.00006985
  230      -16.4129160841      -0.0000001161     0.999999    0.00006965
  231      -16.4129161995      -0.0000001154     0.999999    0.00006945
  232      -16.4129163143      -0.0000001148     0.999999    0.00006926
  233      -16.4129164286      -0.0000001142     0.999999    0.00006906
  234      -16.4129165422      -0.0000001136     0.999999    0.00006887
  235      -16.4129166553      -0.0000001131     0.999999    0.00006868
  236      -16.4129167678      -0.0000001125     0.999999    0.00006850
  237      -16.4129168797      -0.0000001119     0.999999    0.00006831
  238      -16.4129169911      -0.0000001114     0.999999    0.00006813
  239      -16.4129171019      -0.0000001108     0.999999    0.00006795
  240      -16.4129172122      -0.0000001103     0.999999    0.00006778
  241      -16.4129173220      -0.0000001098     0.999999    0.00006760
  242      -16.4129174312      -0.0000001093     0.999999    0.00006743
  243      -16.4129175400      -0.0000001087     0.999999    0.00006726
  244      -16.4129176482      -0.0000001082     0.999999    0.00006709
  245      -16.4129177560      -0.0000001077     0.999999    0.00006692
  246      -16.4129178632      -0.0000001073     0.999999    0.00006676
  247      -16.4129179700      -0.0000001068     0.999999    0.00006660
  248      -16.4129180763      -0.0000001063     0.999999    0.00006644
  249      -16.4129181822      -0.0000001058     0.999999    0.00006628
  250      -16.4129182876      -0.0000001054     0.999999    0.00006613
  251      -16.4129183925      -0.0000001049     0.999999    0.00006597
  252      -16.4129184970      -0.0000001045     0.999999    0.00006582
  253      -16.4129186010      -0.0000001041     0.999999    0.00006567
  254      -16.4129187047      -0.0000001036     0.999999    0.00006552
  255      -16.4129188079      -0.0000001032     0.999999    0.00006538
  256      -16.4129189107      -0.0000001028     0.999999    0.00006523
  257      -16.4129190131      -0.0000001024     0.999999    0.00006509
  258      -16.4129191150      -0.0000001020     0.999999    0.00006495
  259      -16.4129192166      -0.0000001016     0.999999    0.00006481
  260      -16.4129193178      -0.0000001012     0.999999    0.00006467
  261      -16.4129194186      -0.0000001008     0.999999    0.00006454
  262      -16.4129195191      -0.0000001004     0.999999    0.00006440
  263      -16.4129196191      -0.0000001001     0.999999    0.00006427
  264      -16.4129197188      -0.0000000997     0.999999    0.00006414
  265      -16.4129198182      -0.0000000993     0.999999    0.00006401
  266      -16.4129199171      -0.0000000990     0.999999    0.00006389
  267      -16.4129200158      -0.0000000986     0.999999    0.00006376
  268      -16.4129201141      -0.0000000983     0.999999    0.00006364
  269      -16.4129202120      -0.0000000980     0.999999    0.00006352
  270      -16.4129203097      -0.0000000976     0.999999    0.00006340
  271      -16.4129204070      -0.0000000973     0.999999    0.00006328
  272      -16.4129205039      -0.0000000970     0.999999    0.00006316
  273      -16.4129206006      -0.0000000967     0.999999    0.00006305
  274      -16.4129206970      -0.0000000964     0.999999    0.00006293
  275      -16.4129207930      -0.0000000961     0.999999    0.00006282
  276      -16.4129208888      -0.0000000958     0.999999    0.00006271
  277      -16.4129209842      -0.0000000955     0.999999    0.00006260
  278      -16.4129210794      -0.0000000952     0.999999    0.00006249
  279      -16.4129211743      -0.0000000949     0.999999    0.00006239
  280      -16.4129212689      -0.0000000946     0.999999    0.00006228
  281      -16.4129213632      -0.0000000943     0.999999    0.00006218
  282      -16.4129214573      -0.0000000941     0.999999    0.00006208
  283      -16.4129215510      -0.0000000938     0.999999    0.00006198
  284      -16.4129216446      -0.0000000935     0.999999    0.00006188
  285      -16.4129217379      -0.0000000933     0.999999    0.00006178
  286      -16.4129218309      -0.0000000930     0.999999    0.00006169
  287      -16.4129219236      -0.0000000928     0.999999    0.00006159
  288      -16.4129220162      -0.0000000925     0.999999    0.00006150
  289      -16.4129221085      -0.0000000923     0.999999    0.00006141
  290      -16.4129222005      -0.0000000921     0.999999    0.00006131
  291      -16.4129222924      -0.0000000918     0.999999    0.00006123
  292      -16.4129223840      -0.0000000916     0.999999    0.00006114
  293      -16.4129224753      -0.0000000914     0.999999    0.00006105
  294      -16.4129225665      -0.0000000912     0.999999    0.00006096
  295      -16.4129226574      -0.0000000909     0.999999    0.00006088
  296      -16.4129227482      -0.0000000907     0.999999    0.00006080
  297      -16.4129228387      -0.0000000905     0.999999    0.00006072
  298      -16.4129229290      -0.0000000903     0.999999    0.00006063
  299      -16.4129230192      -0.0000000901     0.999999    0.00006056
  300      -16.4129231091      -0.0000000899     0.999999    0.00006048
  301      -16.4129231988      -0.0000000897     0.999999    0.00006040
  302      -16.4129232884      -0.0000000896     0.999999    0.00006032
  303      -16.4129233778      -0.0000000894     0.999999    0.00006025
  304      -16.4129234670      -0.0000000892     0.999999    0.00006018
  305      -16.4129235560      -0.0000000890     0.999999    0.00006010
  306      -16.4129236448      -0.0000000888     0.999999    0.00006003
  307      -16.4129237335      -0.0000000887     0.999999    0.00005996
  308      -16.4129238220      -0.0000000885     0.999999    0.00005989
  309      -16.4129239104      -0.0000000883     0.999999    0.00005983
  310      -16.4129239985      -0.0000000882     0.999999    0.00005976
  311      -16.4129240866      -0.0000000880     0.999999    0.00005969
  312      -16.4129241745      -0.0000000879     0.999999    0.00005963
  313      -16.4129242622      -0.0000000877     0.999999    0.00005957
  314      -16.4129243498      -0.0000000876     0.999999    0.00005951
  315      -16.4129244372      -0.0000000874     0.999999    0.00005944
  316      -16.4129245245      -0.0000000873     0.999999    0.00005938
  317      -16.4129246117      -0.0000000872     0.999999    0.00005932
  318      -16.4129246988      -0.0000000870     0.999999    0.00005927
  319      -16.4129247857      -0.0000000869     0.999999    0.00005921
  320      -16.4129248725      -0.0000000868     0.999999    0.00005915
  321      -16.4129249591      -0.0000000867     0.999999    0.00005910
  322      -16.4129250457      -0.0000000865     0.999999    0.00005904
  323      -16.4129251321      -0.0000000864     0.999999    0.00005899
  324      -16.4129252184      -0.0000000863     0.999999    0.00005894
  325      -16.4129253046      -0.0000000862     0.999999    0.00005889
  326      -16.4129253907      -0.0000000861     0.999999    0.00005884
  327      -16.4129254767      -0.0000000860     0.999999    0.00005879
  328      -16.4129255626      -0.0000000859     0.999999    0.00005874
  329      -16.4129256484      -0.0000000858     0.999999    0.00005869
  330      -16.4129257341      -0.0000000857     0.999999    0.00005865
  331      -16.4129258197      -0.0000000856     0.999999    0.00005860
  332      -16.4129259052      -0.0000000855     0.999999    0.00005856
  333      -16.4129259906      -0.0000000854     0.999999    0.00005851
  334      -16.4129260759      -0.0000000853     0.999999    0.00005847
  335      -16.4129261612      -0.0000000853     0.999999    0.00005843
  336      -16.4129262463      -0.0000000852     0.999999    0.00005839
  337      -16.4129263314      -0.0000000851     0.999999    0.00005835
  338      -16.4129264165      -0.0000000850     0.999999    0.00005831
  339      -16.4129265014      -0.0000000849     0.999999    0.00005827
  340      -16.4129265863      -0.0000000849     0.999999    0.00005824
  341      -16.4129266711      -0.0000000848     0.999999    0.00005820
  342      -16.4129267558      -0.0000000847     0.999999    0.00005816
  343      -16.4129268405      -0.0000000847     0.999999    0.00005813
  344      -16.4129269251      -0.0000000846     0.999999    0.00005810
  345      -16.4129270097      -0.0000000846     0.999999    0.00005806
  346      -16.4129270942      -0.0000000845     0.999999    0.00005803
  347      -16.4129271787      -0.0000000845     0.999999    0.00005800
  348      -16.4129272631      -0.0000000844     0.999999    0.00005797
  349      -16.4129273475      -0.0000000844     0.999999    0.00005794
  350      -16.4129274318      -0.0000000843     0.999999    0.00005791
  351      -16.4129275161      -0.0000000843     0.999999    0.00005788
  352      -16.4129276003      -0.0000000842     0.999999    0.00005785
  353      -16.4129276845      -0.0000000842     0.999999    0.00005783
  354      -16.4129277687      -0.0000000842     0.999999    0.00005780
  355      -16.4129278528      -0.0000000841     0.999999    0.00005778
  356      -16.4129279369      -0.0000000841     0.999999    0.00005775
  357      -16.4129280210      -0.0000000841     0.999999    0.00005773
  358      -16.4129281050      -0.0000000840     0.999999    0.00005771
  359      -16.4129281891      -0.0000000840     0.999999    0.00005768
  360      -16.4129282731      -0.0000000840     0.999999    0.00005766
  361      -16.4129283570      -0.0000000840     0.999999    0.00005764
  362      -16.4129284410      -0.0000000840     0.999999    0.00005762
  363      -16.4129285250      -0.0000000840     0.999999    0.00005760
  364      -16.4129286089      -0.0000000839     0.999999    0.00005758
  365      -16.4129286928      -0.0000000839     0.999999    0.00005757
  366      -16.4129287768      -0.0000000839     0.999999    0.00005755
  367      -16.4129288607      -0.0000000839     0.999999    0.00005753
  368      -16.4129289446      -0.0000000839     0.999999    0.00005752
  369      -16.4129290285      -0.0000000839     0.999999    0.00005750
  370      -16.4129291124      -0.0000000839     0.999999    0.00005749
  371      -16.4129291963      -0.0000000839     0.999999    0.00005747
  372      -16.4129292802      -0.0000000839     0.999999    0.00005746
  373      -16.4129293641      -0.0000000839     0.999999    0.00005745
  374      -16.4129294481      -0.0000000839     0.999999    0.00005744
  375      -16.4129295320      -0.0000000839     0.999999    0.00005743
  376      -16.4129296160      -0.0000000840     0.999999    0.00005742
  377      -16.4129296999      -0.0000000840     0.999999    0.00005741
  378      -16.4129297839      -0.0000000840     0.999999    0.00005740
  379      -16.4129298679      -0.0000000840     0.999999    0.00005739
  380      -16.4129299519      -0.0000000840     0.999999    0.00005738
  381      -16.4129300360      -0.0000000840     0.999999    0.00005737
  382      -16.4129301200      -0.0000000841     0.999999    0.00005737
  383      -16.4129302041      -0.0000000841     0.999999    0.00005736
  384      -16.4129302882      -0.0000000841     0.999999    0.00005736
  385      -16.4129303724      -0.0000000841     0.999999    0.00005735
  386      -16.4129304566      -0.0000000842     0.999999    0.00005735
  387      -16.4129305408      -0.0000000842     0.999999    0.00005734
  388      -16.4129306250      -0.0000000842     0.999999    0.00005734
  389      -16.4129307093      -0.0000000843     0.999999    0.00005736
  390      -16.4129307936      -0.0000000843     0.999999    0.00005742
  391      -16.4129308780      -0.0000000844     0.999999    0.00005747
  392      -16.4129309624      -0.0000000844     0.999999    0.00005753
  393      -16.4129310469      -0.0000000845     0.999999    0.00005758
  394      -16.4129311314      -0.0000000845     0.999999    0.00005764
  395      -16.4129312159      -0.0000000845     0.999999    0.00005769
  396      -16.4129313005      -0.0000000846     0.999999    0.00005775
  397      -16.4129313851      -0.0000000846     0.999999    0.00005780
  398      -16.4129314698      -0.0000000847     0.999999    0.00005786
  399      -16.4129315546      -0.0000000848     0.999999    0.00005792
  400      -16.4129316394      -0.0000000848     0.999999    0.00005798
  401      -16.4129317243      -0.0000000849     0.999999    0.00005804
  402      -16.4129318092      -0.0000000849     0.999999    0.00005810
  403      -16.4129318942      -0.0000000850     0.999999    0.00005816
  404      -16.4129319792      -0.0000000851     0.999999    0.00005822
  405      -16.4129320643      -0.0000000851     0.999999    0.00005828
  406      -16.4129321495      -0.0000000852     0.999999    0.00005835
  407      -16.4129322348      -0.0000000852     0.999999    0.00005841
  408      -16.4129323201      -0.0000000853     0.999999    0.00005847
  409      -16.4129324055      -0.0000000854     0.999999    0.00005854
  410      -16.4129324909      -0.0000000855     0.999999    0.00005860
  411      -16.4129325765      -0.0000000855     0.999999    0.00005867
  412      -16.4129326621      -0.0000000856     0.999999    0.00005873
  413      -16.4129327478      -0.0000000857     0.999999    0.00005880
  414      -16.4129328336      -0.0000000858     0.999999    0.00005886
  415      -16.4129329194      -0.0000000859     0.999999    0.00005893
  416      -16.4129330053      -0.0000000859     0.999999    0.00005900
  417      -16.4129330914      -0.0000000860     0.999999    0.00005907
  418      -16.4129331775      -0.0000000861     0.999999    0.00005914
  419      -16.4129332637      -0.0000000862     0.999999    0.00005921
  420      -16.4129333499      -0.0000000863     0.999999    0.00005928
  421      -16.4129334363      -0.0000000864     0.999999    0.00005935
  422      -16.4129335228      -0.0000000865     0.999999    0.00005942
  423      -16.4129336093      -0.0000000866     0.999999    0.00005949
  424      -16.4129336960      -0.0000000866     0.999999    0.00005956
  425      -16.4129337827      -0.0000000867     0.999999    0.00005963
  426      -16.4129338695      -0.0000000868     0.999999    0.00005971
  427      -16.4129339565      -0.0000000869     0.999999    0.00005978
  428      -16.4129340435      -0.0000000870     0.999999    0.00005985
  429      -16.4129341307      -0.0000000871     0.999999    0.00005993
  430      -16.4129342179      -0.0000000872     0.999999    0.00006000
  431      -16.4129343053      -0.0000000873     0.999999    0.00006008
  432      -16.4129343927      -0.0000000875     0.999999    0.00006016
  433      -16.4129344803      -0.0000000876     0.999999    0.00006023
  434      -16.4129345679      -0.0000000877     0.999999    0.00006031
  435      -16.4129346557      -0.0000000878     0.999999    0.00006039
  436      -16.4129347436      -0.0000000879     0.999999    0.00006046
  437      -16.4129348316      -0.0000000880     0.999999    0.00006054
  438      -16.4129349197      -0.0000000881     0.999999    0.00006062
  439      -16.4129350079      -0.0000000882     0.999999    0.00006070
  440      -16.4129350963      -0.0000000883     0.999999    0.00006078
  441      -16.4129351848      -0.0000000885     0.999999    0.00006086
  442      -16.4129352733      -0.0000000886     0.999999    0.00006094
  443      -16.4129353620      -0.0000000887     0.999999    0.00006102
  444      -16.4129354509      -0.0000000888     0.999999    0.00006110
  445      -16.4129355398      -0.0000000889     0.999999    0.00006119
  446      -16.4129356289      -0.0000000891     0.999999    0.00006127
  447      -16.4129357181      -0.0000000892     0.999999    0.00006135
  448      -16.4129358074      -0.0000000893     0.999999    0.00006144
  449      -16.4129358968      -0.0000000894     0.999999    0.00006152
  450      -16.4129359864      -0.0000000896     0.999999    0.00006160
  451      -16.4129360761      -0.0000000897     0.999999    0.00006169
  452      -16.4129361660      -0.0000000898     0.999999    0.00006177
  453      -16.4129362559      -0.0000000900     0.999999    0.00006186
  454      -16.4129363460      -0.0000000901     0.999999    0.00006194
  455      -16.4129364363      -0.0000000902     0.999999    0.00006203
  456      -16.4129365266      -0.0000000904     0.999999    0.00006212
  457      -16.4129366171      -0.0000000905     0.999999    0.00006220
  458      -16.4129367078      -0.0000000906     0.999999    0.00006229
  459      -16.4129367986      -0.0000000908     0.999999    0.00006238
  460      -16.4129368895      -0.0000000909     0.999999    0.00006247
  461      -16.4129369806      -0.0000000911     0.999999    0.00006256
  462      -16.4129370718      -0.0000000912     0.999999    0.00006264
  463      -16.4129371631      -0.0000000913     0.999999    0.00006273
  464      -16.4129372546      -0.0000000915     0.999999    0.00006282
  465      -16.4129373462      -0.0000000916     0.999999    0.00006291
  466      -16.4129374380      -0.0000000918     0.999999    0.00006300
  467      -16.4129375300      -0.0000000919     0.999999    0.00006309
  468      -16.4129376220      -0.0000000921     0.999999    0.00006319
  469      -16.4129377143      -0.0000000922     0.999999    0.00006328
  470      -16.4129378066      -0.0000000924     0.999999    0.00006337
  471      -16.4129378992      -0.0000000925     0.999999    0.00006346
  472      -16.4129379918      -0.0000000927     0.999999    0.00006355
  473      -16.4129380847      -0.0000000928     0.999999    0.00006365
  474      -16.4129381777      -0.0000000930     0.999999    0.00006374
  475      -16.4129382708      -0.0000000931     0.999999    0.00006383
  476      -16.4129383641      -0.0000000933     0.999999    0.00006393
  477      -16.4129384575      -0.0000000934     0.999999    0.00006402
  478      -16.4129385511      -0.0000000936     0.999999    0.00006411
  479      -16.4129386449      -0.0000000938     0.999999    0.00006421
  480      -16.4129387388      -0.0000000939     0.999999    0.00006430
  481      -16.4129388329      -0.0000000941     0.999999    0.00006440
  482      -16.4129389271      -0.0000000942     0.999999    0.00006449
  483      -16.4129390215      -0.0000000944     0.999999    0.00006459
  484      -16.4129391161      -0.0000000946     0.999999    0.00006468
  485      -16.4129392108      -0.0000000947     0.999999    0.00006478
  486      -16.4129393057      -0.0000000949     0.999999    0.00006488
  487      -16.4129394007      -0.0000000950     0.999999    0.00006497
  488      -16.4129394959      -0.0000000952     0.999999    0.00006507
  489      -16.4129395913      -0.0000000954     0.999999    0.00006517
  490      -16.4129396868      -0.0000000955     0.999999    0.00006526
  491      -16.4129397825      -0.0000000957     0.999999    0.00006536
  492      -16.4129398784      -0.0000000959     0.999999    0.00006546
  493      -16.4129399744      -0.0000000960     0.999999    0.00006556
  494      -16.4129400706      -0.0000000962     0.999999    0.00006565
  495      -16.4129401670      -0.0000000964     0.999999    0.00006575
  496      -16.4129402635      -0.0000000965     0.999999    0.00006585
  497      -16.4129403602      -0.0000000967     0.999999    0.00006595
  498      -16.4129404571      -0.0000000969     0.999999    0.00006605
  499      -16.4129405542      -0.0000000970     0.999999    0.00006615
  500      -16.4129406514      -0.0000000972     0.999999    0.00006625
  501      -16.4129407488      -0.0000000974     0.999999    0.00006635
  502      -16.4129408463      -0.0000000976     0.999999    0.00006644
  503      -16.4129409440      -0.0000000977     0.999999    0.00006654
  504      -16.4129410419      -0.0000000979     0.999999    0.00006664
  505      -16.4129411400      -0.0000000981     0.999999    0.00006674
  506      -16.4129412382      -0.0000000982     0.999999    0.00006684
  507      -16.4129413366      -0.0000000984     0.999999    0.00006694
  508      -16.4129414352      -0.0000000986     0.999999    0.00006704
  509      -16.4129415340      -0.0000000988     0.999999    0.00006714
  510      -16.4129416329      -0.0000000989     0.999999    0.00006724
  511      -16.4129417320      -0.0000000991     0.999999    0.00006734
  512      -16.4129418313      -0.0000000993     0.999999    0.00006744
  513      -16.4129419308      -0.0000000995     0.999999    0.00006755
  514      -16.4129420304      -0.0000000996     0.999999    0.00006765
  515      -16.4129421302      -0.0000000998     0.999999    0.00006775
  516      -16.4129422302      -0.0000001000     0.999999    0.00006785
  517      -16.4129423303      -0.0000001001     0.999999    0.00006795
  518      -16.4129424306      -0.0000001003     0.999999    0.00006805
  519      -16.4129425311      -0.0000001005     0.999999    0.00006815
  520      -16.4129426318      -0.0000001007     0.999999    0.00006825
  521      -16.4129427326      -0.0000001008     0.999999    0.00006835
  522      -16.4129428336      -0.0000001010     0.999999    0.00006845
  523      -16.4129429348      -0.0000001012     0.999999    0.00006855
  524      -16.4129430362      -0.0000001014     0.999999    0.00006865
  525      -16.4129431377      -0.0000001015     0.999999    0.00006875
  526      -16.4129432395      -0.0000001017     0.999999    0.00006885
  527      -16.4129433413      -0.0000001019     0.999999    0.00006895
  528      -16.4129434434      -0.0000001021     0.999999    0.00006905
  529      -16.4129435456      -0.0000001022     0.999999    0.00006915
  530      -16.4129436480      -0.0000001024     0.999999    0.00006925
  531      -16.4129437506      -0.0000001026     0.999999    0.00006935
  532      -16.4129438534      -0.0000001027     0.999999    0.00006946
  533      -16.4129439563      -0.0000001029     0.999999    0.00006956
  534      -16.4129440594      -0.0000001031     0.999999    0.00006965
  535      -16.4129441626      -0.0000001033     0.999999    0.00006975
  536      -16.4129442661      -0.0000001034     0.999999    0.00006985
  537      -16.4129443697      -0.0000001036     0.999999    0.00006995
  538      -16.4129444735      -0.0000001038     0.999999    0.00007005
  539      -16.4129445774      -0.0000001039     0.999999    0.00007015
  540      -16.4129446815      -0.0000001041     0.999999    0.00007025
  541      -16.4129447858      -0.0000001043     0.999999    0.00007035
  542      -16.4129448902      -0.0000001044     0.999999    0.00007045
  543      -16.4129449949      -0.0000001046     0.999999    0.00007055
  544      -16.4129450996      -0.0000001048     0.999999    0.00007065
  545      -16.4129452046      -0.0000001049     0.999999    0.00007074
  546      -16.4129453097      -0.0000001051     0.999999    0.00007084
  547      -16.4129454150      -0.0000001053     0.999999    0.00007094
  548      -16.4129455204      -0.0000001054     0.999999    0.00007104
  549      -16.4129456260      -0.0000001056     0.999999    0.00007113
  550      -16.4129457318      -0.0000001058     0.999999    0.00007123
  551      -16.4129458377      -0.0000001059     0.999999    0.00007133
  552      -16.4129459438      -0.0000001061     0.999999    0.00007142
  553      -16.4129460500      -0.0000001062     0.999999    0.00007152
  554      -16.4129461565      -0.0000001064     0.999999    0.00007161
  555      -16.4129462630      -0.0000001066     0.999999    0.00007171
  556      -16.4129463697      -0.0000001067     0.999999    0.00007180
  557      -16.4129464766      -0.0000001069     0.999999    0.00007190
  558      -16.4129465836      -0.0000001070     0.999999    0.00007199
  559      -16.4129466908      -0.0000001072     0.999999    0.00007209
  560      -16.4129467982      -0.0000001073     0.999999    0.00007218
  561      -16.4129469056      -0.0000001075     0.999999    0.00007227
  562      -16.4129470133      -0.0000001076     0.999999    0.00007236
  563      -16.4129471211      -0.0000001078     0.999999    0.00007246
  564      -16.4129472290      -0.0000001079     0.999999    0.00007255
  565      -16.4129473371      -0.0000001081     0.999999    0.00007264
  566      -16.4129474453      -0.0000001082     0.999999    0.00007273
  567      -16.4129475536      -0.0000001084     0.999999    0.00007282
  568      -16.4129476622      -0.0000001085     0.999999    0.00007291
  569      -16.4129477708      -0.0000001086     0.999999    0.00007300
  570      -16.4129478796      -0.0000001088     0.999999    0.00007309
  571      -16.4129479885      -0.0000001089     0.999999    0.00007318
  572      -16.4129480976      -0.0000001091     0.999999    0.00007327
  573      -16.4129482068      -0.0000001092     0.999999    0.00007335
  574      -16.4129483161      -0.0000001093     0.999999    0.00007344
  575      -16.4129484256      -0.0000001095     0.999999    0.00007353
  576      -16.4129485351      -0.0000001096     0.999999    0.00007361
  577      -16.4129486449      -0.0000001097     0.999999    0.00007370
  578      -16.4129487547      -0.0000001098     0.999999    0.00007378
  579      -16.4129488647      -0.0000001100     0.999999    0.00007387
  580      -16.4129489748      -0.0000001101     0.999999    0.00007395
  581      -16.4129490850      -0.0000001102     0.999999    0.00007403
  582      -16.4129491953      -0.0000001103     0.999999    0.00007411
  583      -16.4129493057      -0.0000001104     0.999999    0.00007420
  584      -16.4129494163      -0.0000001106     0.999999    0.00007428
  585      -16.4129495270      -0.0000001107     0.999999    0.00007436
  586      -16.4129496378      -0.0000001108     0.999999    0.00007444
  587      -16.4129497486      -0.0000001109     0.999999    0.00007451
  588      -16.4129498596      -0.0000001110     0.999999    0.00007459
  589      -16.4129499708      -0.0000001111     0.999999    0.00007467
  590      -16.4129500820      -0.0000001112     0.999999    0.00007475
  591      -16.4129501933      -0.0000001113     0.999999    0.00007482
  592      -16.4129503047      -0.0000001114     0.999999    0.00007490
  593      -16.4129504162      -0.0000001115     0.999999    0.00007497
  594      -16.4129505278      -0.0000001116     0.999999    0.00007504
  595      -16.4129506395      -0.0000001117     0.999999    0.00007512
  596      -16.4129507512      -0.0000001118     0.999999    0.00007519
  597      -16.4129508631      -0.0000001119     0.999999    0.00007526
  598      -16.4129509750      -0.0000001119     0.999999    0.00007533
  599      -16.4129510871      -0.0000001120     0.999999    0.00007540
  600      -16.4129511992      -0.0000001121     0.999999    0.00007547
  601      -16.4129513114      -0.0000001122     0.999999    0.00007553
  602      -16.4129514236      -0.0000001123     0.999999    0.00007560
  603      -16.4129515359      -0.0000001123     0.999999    0.00007567
  604      -16.4129516483      -0.0000001124     0.999999    0.00007573
  605      -16.4129517608      -0.0000001125     0.999999    0.00007579
  606      -16.4129518733      -0.0000001125     0.999999    0.00007586
  607      -16.4129519859      -0.0000001126     0.999999    0.00007592
  608      -16.4129520986      -0.0000001126     0.999999    0.00007598
  609      -16.4129522113      -0.0000001127     0.999999    0.00007604
  610      -16.4129523240      -0.0000001128     0.999999    0.00007610
  611      -16.4129524368      -0.0000001128     0.999999    0.00007616
  612      -16.4129525497      -0.0000001128     0.999999    0.00007621
  613      -16.4129526626      -0.0000001129     0.999999    0.00007627
  614      -16.4129527755      -0.0000001129     0.999999    0.00007632
  615      -16.4129528885      -0.0000001130     0.999999    0.00007638
  616      -16.4129530015      -0.0000001130     0.999999    0.00007643
  617      -16.4129531145      -0.0000001130     0.999999    0.00007648
  618      -16.4129532275      -0.0000001131     0.999999    0.00007653
  619      -16.4129533406      -0.0000001131     0.999999    0.00007658
  620      -16.4129534537      -0.0000001131     0.999999    0.00007663
  621      -16.4129535669      -0.0000001131     0.999999    0.00007668
  622      -16.4129536800      -0.0000001131     0.999999    0.00007672
  623      -16.4129537932      -0.0000001132     0.999999    0.00007677
  624      -16.4129539063      -0.0000001132     0.999999    0.00007681
  625      -16.4129540195      -0.0000001132     0.999999    0.00007685
  626      -16.4129541326      -0.0000001132     0.999999    0.00007689
  627      -16.4129542458      -0.0000001132     0.999999    0.00007693
  628      -16.4129543590      -0.0000001132     0.999999    0.00007697
  629      -16.4129544721      -0.0000001132     0.999999    0.00007701
  630      -16.4129545853      -0.0000001131     0.999999    0.00007704
  631      -16.4129546984      -0.0000001131     0.999999    0.00007708
  632      -16.4129548115      -0.0000001131     0.999999    0.00007711
  633      -16.4129549246      -0.0000001131     0.999999    0.00007714
  634      -16.4129550376      -0.0000001131     0.999999    0.00007718
  635      -16.4129551507      -0.0000001130     0.999999    0.00007721
  636      -16.4129552636      -0.0000001130     0.999999    0.00007723
  637      -16.4129553766      -0.0000001130     0.999999    0.00007726
  638      -16.4129554895      -0.0000001129     0.999999    0.00007729
  639      -16.4129556024      -0.0000001129     0.999999    0.00007731
  640      -16.4129557152      -0.0000001128     0.999999    0.00007733
  641      -16.4129558280      -0.0000001128     0.999999    0.00007735
  642      -16.4129559407      -0.0000001127     0.999999    0.00007737
  643      -16.4129560533      -0.0000001127     0.999999    0.00007739
  644      -16.4129561659      -0.0000001126     0.999999    0.00007741
  645      -16.4129562784      -0.0000001125     0.999999    0.00007743
  646      -16.4129563909      -0.0000001124     0.999999    0.00007744
  647      -16.4129565033      -0.0000001124     0.999999    0.00007745
  648      -16.4129566156      -0.0000001123     0.999999    0.00007746
  649      -16.4129567278      -0.0000001122     0.999999    0.00007747
  650      -16.4129568399      -0.0000001121     0.999999    0.00007748
  651      -16.4129569519      -0.0000001120     0.999999    0.00007749
  652      -16.4129570639      -0.0000001119     0.999999    0.00007749
  653      -16.4129571757      -0.0000001118     0.999999    0.00007750
  654      -16.4129572874      -0.0000001117     0.999999    0.00007750
  655      -16.4129573991      -0.0000001116     0.999999    0.00007750
  656      -16.4129575106      -0.0000001115     0.999999    0.00007750
  657      -16.4129576220      -0.0000001114     0.999999    0.00007750
  658      -16.4129577333      -0.0000001113     0.999999    0.00007749
  659      -16.4129578444      -0.0000001112     0.999999    0.00007749
  660      -16.4129579554      -0.0000001110     0.999999    0.00007748
  661      -16.4129580663      -0.0000001109     0.999999    0.00007747
  662      -16.4129581771      -0.0000001108     0.999999    0.00007746
  663      -16.4129582877      -0.0000001106     0.999999    0.00007745
  664      -16.4129583982      -0.0000001105     0.999999    0.00007744
  665      -16.4129585085      -0.0000001103     0.999999    0.00007742
  666      -16.4129586187      -0.0000001102     0.999999    0.00007740
  667      -16.4129587287      -0.0000001100     0.999999    0.00007739
  668      -16.4129588385      -0.0000001099     0.999999    0.00007737
  669      -16.4129589482      -0.0000001097     0.999999    0.00007734
  670      -16.4129590577      -0.0000001095     0.999999    0.00007732
  671      -16.4129591671      -0.0000001093     0.999999    0.00007730
  672      -16.4129592762      -0.0000001092     0.999999    0.00007727
  673      -16.4129593852      -0.0000001090     0.999999    0.00007724
  674      -16.4129594940      -0.0000001088     0.999999    0.00007721
  675      -16.4129596026      -0.0000001086     0.999999    0.00007718
  676      -16.4129597110      -0.0000001084     0.999999    0.00007714
  677      -16.4129598192      -0.0000001082     0.999999    0.00007711
  678      -16.4129599272      -0.0000001080     0.999999    0.00007707
  679      -16.4129600350      -0.0000001078     0.999999    0.00007703
  680      -16.4129601426      -0.0000001076     0.999999    0.00007699
  681      -16.4129602500      -0.0000001074     0.999999    0.00007695
  682      -16.4129603571      -0.0000001071     0.999999    0.00007690
  683      -16.4129604641      -0.0000001069     0.999999    0.00007686
  684      -16.4129605707      -0.0000001067     0.999999    0.00007681
  685      -16.4129606772      -0.0000001065     0.999999    0.00007676
  686      -16.4129607834      -0.0000001062     0.999999    0.00007671
  687      -16.4129608894      -0.0000001060     0.999999    0.00007666
  688      -16.4129609951      -0.0000001057     0.999999    0.00007660
  689      -16.4129611006      -0.0000001055     0.999999    0.00007654
  690      -16.4129612059      -0.0000001052     0.999999    0.00007649
  691      -16.4129613108      -0.0000001050     0.999999    0.00007643
  692      -16.4129614155      -0.0000001047     0.999999    0.00007636
  693      -16.4129615200      -0.0000001044     0.999999    0.00007630
  694      -16.4129616242      -0.0000001042     0.999999    0.00007623
  695      -16.4129617281      -0.0000001039     0.999999    0.00007617
  696      -16.4129618317      -0.0000001036     0.999999    0.00007610
  697      -16.4129619350      -0.0000001033     0.999999    0.00007603
  698      -16.4129620381      -0.0000001030     0.999999    0.00007595
  699      -16.4129621408      -0.0000001028     0.999999    0.00007588
  700      -16.4129622433      -0.0000001025     0.999999    0.00007580
  701      -16.4129623454      -0.0000001022     0.999999    0.00007572
  702      -16.4129624473      -0.0000001019     0.999999    0.00007564
  703      -16.4129625489      -0.0000001016     0.999999    0.00007556
  704      -16.4129626501      -0.0000001012     0.999999    0.00007548
  705      -16.4129627510      -0.0000001009     0.999999    0.00007539
  706      -16.4129628516      -0.0000001006     0.999999    0.00007530
  707      -16.4129629519      -0.0000001003     0.999999    0.00007521
  708      -16.4129630519      -0.0000001000     0.999999    0.00007512
  709      -16.4129631515      -0.0000000996     0.999999    0.00007503
  710      -16.4129632508      -0.0000000993     0.999999    0.00007494
  711      -16.4129633498      -0.0000000990     0.999999    0.00007484
  712      -16.4129634484      -0.0000000986     0.999999    0.00007474
  713      -16.4129635467      -0.0000000983     0.999999    0.00007464
  714      -16.4129636446      -0.0000000979     0.999999    0.00007454
  715      -16.4129637422      -0.0000000976     0.999999    0.00007443
  716      -16.4129638394      -0.0000000972     0.999999    0.00007433
  717      -16.4129639363      -0.0000000969     0.999999    0.00007422
  718      -16.4129640328      -0.0000000965     0.999999    0.00007411
  719      -16.4129641289      -0.0000000961     0.999999    0.00007400
  720      -16.4129642247      -0.0000000958     0.999999    0.00007389
  721      -16.4129643201      -0.0000000954     0.999999    0.00007377
  722      -16.4129644151      -0.0000000950     0.999999    0.00007366
  723      -16.4129645098      -0.0000000946     0.999999    0.00007354
  724      -16.4129646040      -0.0000000943     0.999999    0.00007342
  725      -16.4129646979      -0.0000000939     0.999999    0.00007329
  726      -16.4129647914      -0.0000000935     0.999999    0.00007317
  727      -16.4129648845      -0.0000000931     0.999999    0.00007305
  728      -16.4129649772      -0.0000000927     0.999999    0.00007292
  729      -16.4129650695      -0.0000000923     0.999999    0.00007279
  730      -16.4129651614      -0.0000000919     0.999999    0.00007266
  731      -16.4129652529      -0.0000000915     0.999999    0.00007253
  732      -16.4129653440      -0.0000000911     0.999999    0.00007239
  733      -16.4129654347      -0.0000000907     0.999999    0.00007226
  734      -16.4129655249      -0.0000000903     0.999999    0.00007212
  735      -16.4129656148      -0.0000000899     0.999999    0.00007198
  736      -16.4129657042      -0.0000000894     0.999999    0.00007184
  737      -16.4129657932      -0.0000000890     0.999999    0.00007169
  738      -16.4129658818      -0.0000000886     0.999999    0.00007155
  739      -16.4129659700      -0.0000000882     0.999999    0.00007140
  740      -16.4129660577      -0.0000000877     0.999999    0.00007126
  741      -16.4129661450      -0.0000000873     0.999999    0.00007111
  742      -16.4129662319      -0.0000000869     0.999999    0.00007095
  743      -16.4129663183      -0.0000000864     0.999999    0.00007080
  744      -16.4129664043      -0.0000000860     0.999999    0.00007065
  745      -16.4129664899      -0.0000000856     0.999999    0.00007049
  746      -16.4129665750      -0.0000000851     0.999999    0.00007033
  747      -16.4129666597      -0.0000000847     0.999999    0.00007017
  748      -16.4129667439      -0.0000000842     0.999999    0.00007001
  749      -16.4129668277      -0.0000000838     0.999999    0.00006985
  750      -16.4129669110      -0.0000000833     0.999999    0.00006969
  751      -16.4129669939      -0.0000000829     0.999999    0.00006952
  752      -16.4129670763      -0.0000000824     0.999999    0.00006935
  753      -16.4129671583      -0.0000000820     0.999999    0.00006918
  754      -16.4129672398      -0.0000000815     0.999999    0.00006901
  755      -16.4129673208      -0.0000000810     0.999999    0.00006884
  756      -16.4129674014      -0.0000000806     0.999999    0.00006867
  757      -16.4129674815      -0.0000000801     0.999999    0.00006849
  758      -16.4129675612      -0.0000000797     0.999999    0.00006832
  759      -16.4129676404      -0.0000000792     0.999999    0.00006814
  760      -16.4129677191      -0.0000000787     0.999999    0.00006796
  761      -16.4129677973      -0.0000000782     0.999999    0.00006778
  762      -16.4129678751      -0.0000000778     0.999999    0.00006760
  763      -16.4129679524      -0.0000000773     0.999999    0.00006741
  764      -16.4129680292      -0.0000000768     0.999999    0.00006723
  765      -16.4129681056      -0.0000000764     0.999999    0.00006704
  766      -16.4129681815      -0.0000000759     0.999999    0.00006685
  767      -16.4129682569      -0.0000000754     0.999999    0.00006666
  768      -16.4129683318      -0.0000000749     0.999999    0.00006647
  769      -16.4129684063      -0.0000000745     0.999999    0.00006628
  770      -16.4129684802      -0.0000000740     0.999999    0.00006609
  771      -16.4129685537      -0.0000000735     0.999999    0.00006589
  772      -16.4129686267      -0.0000000730     0.999999    0.00006570
  773      -16.4129686993      -0.0000000725     0.999999    0.00006550
  774      -16.4129687713      -0.0000000720     0.999999    0.00006530
  775      -16.4129688429      -0.0000000716     0.999999    0.00006510
  776      -16.4129689140      -0.0000000711     0.999999    0.00006490
  777      -16.4129689846      -0.0000000706     0.999999    0.00006470
  778      -16.4129690547      -0.0000000701     0.999999    0.00006450
  779      -16.4129691243      -0.0000000696     0.999999    0.00006429
  780      -16.4129691934      -0.0000000691     0.999999    0.00006409
  781      -16.4129692621      -0.0000000687     0.999999    0.00006388
  782      -16.4129693302      -0.0000000682     0.999999    0.00006367
  783      -16.4129693979      -0.0000000677     0.999999    0.00006346
  784      -16.4129694651      -0.0000000672     0.999999    0.00006325
  785      -16.4129695318      -0.0000000667     0.999999    0.00006304
  786      -16.4129695981      -0.0000000662     0.999999    0.00006283
  787      -16.4129696638      -0.0000000657     0.999999    0.00006262
  788      -16.4129697290      -0.0000000653     0.999999    0.00006240
  789      -16.4129697938      -0.0000000648     0.999999    0.00006219
  790      -16.4129698581      -0.0000000643     0.999999    0.00006197
  791      -16.4129699219      -0.0000000638     0.999999    0.00006175
  792      -16.4129699852      -0.0000000633     0.999999    0.00006153
  793      -16.4129700480      -0.0000000628     0.999999    0.00006132
  794      -16.4129701103      -0.0000000623     0.999999    0.00006109
  795      -16.4129701722      -0.0000000619     0.999999    0.00006087
  796      -16.4129702336      -0.0000000614     0.999999    0.00006065
  797      -16.4129702945      -0.0000000609     0.999999    0.00006043
  798      -16.4129703549      -0.0000000604     0.999999    0.00006020
  799      -16.4129704148      -0.0000000599     0.999999    0.00005998
  800      -16.4129704742      -0.0000000594     0.999999    0.00005975
  801      -16.4129705332      -0.0000000590     0.999999    0.00005953
  802      -16.4129705917      -0.0000000585     0.999999    0.00005930
  803      -16.4129706497      -0.0000000580     0.999999    0.00005907
  804      -16.4129707072      -0.0000000575     0.999999    0.00005885
  805      -16.4129707643      -0.0000000571     0.999999    0.00005862
  806      -16.4129708208      -0.0000000566     0.999999    0.00005839
  807      -16.4129708769      -0.0000000561     0.999999    0.00005816
  808      -16.4129709326      -0.0000000556     0.999999    0.00005792
  809      -16.4129709877      -0.0000000552     0.999999    0.00005769
  810      -16.4129710424      -0.0000000547     0.999999    0.00005746
  811      -16.4129710966      -0.0000000542     0.999999    0.00005723
  812      -16.4129711504      -0.0000000537     0.999999    0.00005699
  813      -16.4129712037      -0.0000000533     0.999999    0.00005676
  814      -16.4129712565      -0.0000000528     0.999999    0.00005652
  815      -16.4129713088      -0.0000000523     0.999999    0.00005629
  816      -16.4129713607      -0.0000000519     0.999999    0.00005605
  817      -16.4129714121      -0.0000000514     0.999999    0.00005581
  818      -16.4129714631      -0.0000000510     0.999999    0.00005558
  819      -16.4129715136      -0.0000000505     0.999999    0.00005534
  820      -16.4129715637      -0.0000000500     0.999999    0.00005510
  821      -16.4129716132      -0.0000000496     0.999999    0.00005486
  822      -16.4129716624      -0.0000000491     0.999999    0.00005462
  823      -16.4129717111      -0.0000000487     0.999999    0.00005438
  824      -16.4129717593      -0.0000000482     0.999999    0.00005414
  825      -16.4129718071      -0.0000000478     0.999999    0.00005390
  826      -16.4129718544      -0.0000000473     0.999999    0.00005366
  827      -16.4129719013      -0.0000000469     0.999999    0.00005342
  828      -16.4129719478      -0.0000000465     0.999999    0.00005318
  829      -16.4129719938      -0.0000000460     0.999999    0.00005294
  830      -16.4129720394      -0.0000000456     0.999999    0.00005270
  831      -16.4129720845      -0.0000000451     0.999999    0.00005246
  832      -16.4129721292      -0.0000000447     0.999999    0.00005221
  833      -16.4129721735      -0.0000000443     0.999999    0.00005197
  834      -16.4129722173      -0.0000000438     0.999999    0.00005173
  835      -16.4129722607      -0.0000000434     0.999999    0.00005148
  836      -16.4129723037      -0.0000000430     0.999999    0.00005124
  837      -16.4129723463      -0.0000000426     0.999999    0.00005100
  838      -16.4129723884      -0.0000000421     0.999999    0.00005075
  839      -16.4129724301      -0.0000000417     0.999999    0.00005051
  840      -16.4129724714      -0.0000000413     0.999999    0.00005027
  841      -16.4129725123      -0.0000000409     0.999999    0.00005002
  842      -16.4129725528      -0.0000000405     0.999999    0.00004978
  843      -16.4129725928      -0.0000000401     0.999999    0.00004954
  844      -16.4129726324      -0.0000000396     0.999999    0.00004929
  845      -16.4129726717      -0.0000000392     0.999999    0.00004905
  846      -16.4129727105      -0.0000000388     0.999999    0.00004880
  847      -16.4129727489      -0.0000000384     0.999999    0.00004856
  848      -16.4129727870      -0.0000000380     0.999999    0.00004832
  849      -16.4129728246      -0.0000000376     0.999999    0.00004807
  850      -16.4129728619      -0.0000000372     0.999999    0.00004783
  851      -16.4129728987      -0.0000000368     0.999999    0.00004758
  852      -16.4129729352      -0.0000000365     0.999999    0.00004734
  853      -16.4129729712      -0.0000000361     0.999999    0.00004710
  854      -16.4129730069      -0.0000000357     0.999999    0.00004685
  855      -16.4129730422      -0.0000000353     0.999999    0.00004661
  856      -16.4129730771      -0.0000000349     0.999999    0.00004637
  857      -16.4129731117      -0.0000000345     0.999999    0.00004612
  858      -16.4129731458      -0.0000000342     0.999999    0.00004588
  859      -16.4129731796      -0.0000000338     0.999999    0.00004564
  860      -16.4129732131      -0.0000000334     0.999999    0.00004540
  861      -16.4129732461      -0.0000000331     0.999999    0.00004515
  862      -16.4129732788      -0.0000000327     0.999999    0.00004491
  863      -16.4129733111      -0.0000000323     0.999999    0.00004467
  864      -16.4129733431      -0.0000000320     0.999999    0.00004443
  865      -16.4129733747      -0.0000000316     0.999999    0.00004419
  866      -16.4129734060      -0.0000000313     0.999999    0.00004395
  867      -16.4129734369      -0.0000000309     0.999999    0.00004371
  868      -16.4129734674      -0.0000000306     0.999999    0.00004347
  869      -16.4129734976      -0.0000000302     0.999999    0.00004323
  870      -16.4129735275      -0.0000000299     0.999999    0.00004299
  871      -16.4129735570      -0.0000000295     0.999999    0.00004275
  872      -16.4129735862      -0.0000000292     0.999999    0.00004251
  873      -16.4129736151      -0.0000000289     0.999999    0.00004227
  874      -16.4129736436      -0.0000000285     0.999999    0.00004203
  875      -16.4129736718      -0.0000000282     0.999999    0.00004179
  876      -16.4129736996      -0.0000000279     0.999999    0.00004156
  877      -16.4129737272      -0.0000000275     0.999999    0.00004132
  878      -16.4129737544      -0.0000000272     0.999999    0.00004108
  879      -16.4129737813      -0.0000000269     0.999999    0.00004085
  880      -16.4129738078      -0.0000000266     0.999999    0.00004061
  881      -16.4129738341      -0.0000000263     0.999999    0.00004038
  882      -16.4129738601      -0.0000000259     0.999999    0.00004014
  883      -16.4129738857      -0.0000000256     0.999999    0.00003991
  884      -16.4129739110      -0.0000000253     0.999999    0.00003967
  885      -16.4129739360      -0.0000000250     0.999999    0.00003944
  886      -16.4129739608      -0.0000000247     0.999999    0.00003921
  887      -16.4129739852      -0.0000000244     0.999999    0.00003898
  888      -16.4129740093      -0.0000000241     0.999999    0.00003874
  889      -16.4129740332      -0.0000000238     0.999999    0.00003851
  890      -16.4129740567      -0.0000000235     0.999999    0.00003828
  891      -16.4129740800      -0.0000000233     0.999999    0.00003805
  892      -16.4129741029      -0.0000000230     0.999999    0.00003782
  893      -16.4129741256      -0.0000000227     0.999999    0.00003760
  894      -16.4129741480      -0.0000000224     0.999999    0.00003737
  895      -16.4129741702      -0.0000000221     0.999999    0.00003714
  896      -16.4129741920      -0.0000000219     0.999999    0.00003691
  897      -16.4129742136      -0.0000000216     0.999999    0.00003669
  898      -16.4129742349      -0.0000000213     0.999999    0.00003646
  899      -16.4129742560      -0.0000000210     0.999999    0.00003624
  900      -16.4129742767      -0.0000000208     0.999999    0.00003601
  901      -16.4129742973      -0.0000000205     0.999999    0.00003579
  902      -16.4129743175      -0.0000000203     0.999999    0.00003557
  903      -16.4129743375      -0.0000000200     0.999999    0.00003535
  904      -16.4129743573      -0.0000000197     0.999999    0.00003512
  905      -16.4129743768      -0.0000000195     0.999999    0.00003490
  906      -16.4129743960      -0.0000000192     0.999999    0.00003468
  907      -16.4129744150      -0.0000000190     0.999999    0.00003446
  908      -16.4129744337      -0.0000000188     0.999999    0.00003425
  909      -16.4129744523      -0.0000000185     0.999999    0.00003403
  910      -16.4129744705      -0.0000000183     0.999999    0.00003381
  911      -16.4129744886      -0.0000000180     0.999999    0.00003360
  912      -16.4129745064      -0.0000000178     0.999999    0.00003338
  913      -16.4129745239      -0.0000000176     0.999999    0.00003317
  914      -16.4129745413      -0.0000000173     0.999999    0.00003295
  915      -16.4129745584      -0.0000000171     0.999999    0.00003274
  916      -16.4129745753      -0.0000000169     0.999999    0.00003253
  917      -16.4129745919      -0.0000000167     0.999999    0.00003231
  918      -16.4129746084      -0.0000000164     0.999999    0.00003210
  919      -16.4129746246      -0.0000000162     0.999999    0.00003189
  920      -16.4129746406      -0.0000000160     0.999999    0.00003169
  921      -16.4129746564      -0.0000000158     0.999999    0.00003148
  922      -16.4129746720      -0.0000000156     0.999999    0.00003127
  923      -16.4129746873      -0.0000000154     0.999999    0.00003106
  924      -16.4129747025      -0.0000000152     0.999999    0.00003086
  925      -16.4129747175      -0.0000000150     0.999999    0.00003065
  926      -16.4129747322      -0.0000000148     0.999999    0.00003045
  927      -16.4129747468      -0.0000000146     0.999999    0.00003024
  928      -16.4129747612      -0.0000000144     0.999999    0.00003004
  929      -16.4129747753      -0.0000000142     0.999999    0.00002984
  930      -16.4129747893      -0.0000000140     0.999999    0.00002964
  931      -16.4129748031      -0.0000000138     0.999999    0.00002944
  932      -16.4129748167      -0.0000000136     0.999999    0.00002924
  933      -16.4129748301      -0.0000000134     0.999999    0.00002904
  934      -16.4129748433      -0.0000000132     0.999999    0.00002885
  935      -16.4129748564      -0.0000000130     0.999999    0.00002865
  936      -16.4129748692      -0.0000000129     0.999999    0.00002845
  937      -16.4129748819      -0.0000000127     0.999999    0.00002826
  938      -16.4129748944      -0.0000000125     0.999999    0.00002806
  939      -16.4129749068      -0.0000000123     0.999999    0.00002787
  940      -16.4129749189      -0.0000000122     0.999999    0.00002768
  941      -16.4129749309      -0.0000000120     0.999999    0.00002749
  942      -16.4129749428      -0.0000000118     0.999999    0.00002730
  943      -16.4129749544      -0.0000000117     0.999999    0.00002711
  944      -16.4129749659      -0.0000000115     0.999999    0.00002692
  945      -16.4129749773      -0.0000000113     0.999999    0.00002673
  946      -16.4129749884      -0.0000000112     0.999999    0.00002655
  947      -16.4129749995      -0.0000000110     0.999999    0.00002636
  948      -16.4129750103      -0.0000000109     0.999999    0.00002618
  949      -16.4129750210      -0.0000000107     0.999999    0.00002599
  950      -16.4129750316      -0.0000000106     0.999999    0.00002581
  951      -16.4129750420      -0.0000000104     0.999999    0.00002563
  952      -16.4129750522      -0.0000000103     0.999999    0.00002544
  953      -16.4129750624      -0.0000000101     0.999999    0.00002526
  954      -16.4129750723      -0.0000000100     0.999999    0.00002508
  955      -16.4129750821      -0.0000000098     0.999999    0.00002491
  956      -16.4129750918      -0.0000000097     0.999999    0.00002473
  957      -16.4129751014      -0.0000000095     0.999999    0.00002455
  958      -16.4129751108      -0.0000000094     0.999999    0.00002438
  959      -16.4129751200      -0.0000000093     0.999999    0.00002420
  960      -16.4129751292      -0.0000000091     0.999999    0.00002403
  961      -16.4129751382      -0.0000000090     0.999999    0.00002385
  962      -16.4129751470      -0.0000000089     0.999999    0.00002368
  963      -16.4129751558      -0.0000000087     0.999999    0.00002351
  964      -16.4129751644      -0.0000000086     0.999999    0.00002334
  965      -16.4129751729      -0.0000000085     0.999999    0.00002317
  966      -16.4129751813      -0.0000000084     0.999999    0.00002300
  967      -16.4129751895      -0.0000000082     0.999999    0.00002284
  968      -16.4129751976      -0.0000000081     0.999999    0.00002267
  969      -16.4129752056      -0.0000000080     0.999999    0.00002250
  970      -16.4129752135      -0.0000000079     0.999999    0.00002234
  971      -16.4129752213      -0.0000000078     0.999999    0.00002217
  972      -16.4129752289      -0.0000000077     0.999999    0.00002201
  973      -16.4129752365      -0.0000000075     0.999999    0.00002185
  974      -16.4129752439      -0.0000000074     0.999999    0.00002169
  975      -16.4129752512      -0.0000000073     0.999999    0.00002153
  976      -16.4129752584      -0.0000000072     0.999999    0.00002137
  977      -16.4129752655      -0.0000000071     0.999999    0.00002121
  978      -16.4129752725      -0.0000000070     0.999999    0.00002105
  979      -16.4129752794      -0.0000000069     0.999999    0.00002090
  980      -16.4129752862      -0.0000000068     0.999999    0.00002074
  981      -16.4129752929      -0.0000000067     0.999999    0.00002059
  982      -16.4129752995      -0.0000000066     0.999999    0.00002043
  983      -16.4129753059      -0.0000000065     0.999999    0.00002028
  984      -16.4129753123      -0.0000000064     0.999999    0.00002013
  985      -16.4129753186      -0.0000000063     0.999999    0.00001998
  986      -16.4129753248      -0.0000000062     0.999999    0.00001983
  987      -16.4129753309      -0.0000000061     0.999999    0.00001968
  988      -16.4129753369      -0.0000000060     0.999999    0.00001953
  989      -16.4129753428      -0.0000000059     0.999999    0.00001938
  990      -16.4129753487      -0.0000000058     0.999999    0.00001924
  991      -16.4129753544      -0.0000000057     0.999999    0.00001909
  992      -16.4129753601      -0.0000000057     0.999999    0.00001894
  993      -16.4129753656      -0.0000000056     0.999999    0.00001880
  994      -16.4129753711      -0.0000000055     0.999999    0.00001866
  995      -16.4129753765      -0.0000000054     0.999999    0.00001852
  996      -16.4129753818      -0.0000000053     0.999999    0.00001837
  997      -16.4129753871      -0.0000000052     0.999999    0.00001823
  998      -16.4129753922      -0.0000000052     0.999999    0.00001809
  999      -16.4129753973      -0.0000000051     0.999999    0.00001796
 1000      -16.4129754023      -0.0000000050     0.999999    0.00001782

Total Energy:                      -16.4129754023 H         -446.6198 eV
Extrapolated to 0:                 -16.3728615471 H         -445.5282 eV

----------------------------------------------------------------------------------
 Solving CP-REKS equation for  1 state vector...
----------------------------------------------------------------------------------
  CG solver: Constructing Y initial guess
  CG solver: Iteration    1    eps =    0.033207105207
  CG solver: Iteration    2    eps =    0.035232276640
  CG solver: Iteration    3    eps =    0.050861640307
  CG solver: Iteration    4    eps =    0.111521391685
  CG solver: Iteration    5    eps =    0.123082995603
  CG solver: Iteration    6    eps =    0.033993601366
  CG solver: Iteration    7    eps =    0.005034188206
  CG solver: Iteration    8    eps =    0.000867886431
  CG solver: Iteration    9    eps =    0.000132397426
  CG solver: Iteration   10    eps =    0.000031864066
  CG solver: Iteration   11    eps =    0.000002216146
  CG solver: Iteration   12    eps =    0.000000206786
  CG solver: Iteration   13    eps =    0.000000027539
  CG solver: Iteration   14    eps =    0.000000003747
  Convergence reached in CG solver after   14 iterations
  CG solver: Calculating converged R, Z, Q2 matrix
----------------------------------------------------------------------------------

----------------------------------------------------------------------------------
 Solving CP-REKS equation for SI between  1 and  2 state vectors...
----------------------------------------------------------------------------------
  CG solver: Constructing Y initial guess
  CG solver: Iteration    1    eps =    0.027133543003
  CG solver: Iteration    2    eps =    0.000803648772
  CG solver: Iteration    3    eps =    0.000351926634
  CG solver: Iteration    4    eps =    0.002908864044
  CG solver: Iteration    5    eps =    0.003342373979
  CG solver: Iteration    6    eps =    0.002192360790
  CG solver: Iteration    7    eps =    0.000692658851
  CG solver: Iteration    8    eps =    0.000088086446
  CG solver: Iteration    9    eps =    0.000014314992
  CG solver: Iteration   10    eps =    0.000000456052
  CG solver: Iteration   11    eps =    0.000000069844
  CG solver: Iteration   12    eps =    0.000000013503
  CG solver: Iteration   13    eps =    0.000000001319
  Convergence reached in CG solver after   13 iterations
  CG solver: Calculating converged R, Z, Q2 matrix
----------------------------------------------------------------------------------

--------------------------------------------------
 Gradient Information
--------------------------------------------------
           1 st state (SSR)
     0.00000000     0.00000000     0.00000000
     0.00000000     0.00000000     0.00000000
     0.00000000     0.00000000     0.00000000
     0.00000000     0.00000000     0.00000000
     0.00000000     0.00000000     0.00000000
     0.00000000     0.00000000     0.00000000
     0.00000000     0.00000000     0.00000000
     0.00000000     0.00000000     0.00000000
     0.00000000     0.00000000     0.00000000
     0.00000000     0.00000000     0.00000000
     0.00000000     0.00000000     0.00000000
     0.00000000     0.00000000     0.00000000
     0.00000000     0.00000000     0.00000000
     0.00000000     0.00000000     0.00000000

           2 st state (SSR)
     0.00000000     0.00000000     0.00000000
     0.00000000     0.00000000     0.00000000
     0.00000000     0.00000000     0.00000000
     0.00000000     0.00000000     0.00000000
     0.00000000     0.00000000     0.00000000
     0.00000000     0.00000000     0.00000000
     0.00000000     0.00000000     0.00000000
     0.00000000     0.00000000     0.00000000
     0.00000000     0.00000000     0.00000000
     0.00000000     0.00000000     0.00000000
     0.00000000     0.00000000     0.00000000
     0.00000000     0.00000000     0.00000000
     0.00000000     0.00000000     0.00000000
     0.00000000     0.00000000     0.00000000
--------------------------------------------------
 Coupling Information
--------------------------------------------------
 between  1 and  2 states
--------------------------------------------------
 g vector - difference gradient
     0.41169734    -0.11387306     0.43825270
    -0.35953973     0.14549950    -1.46960508
     0.00845128     0.22549222    -0.02167829
    -0.00365742    -0.04790160    -0.03118712
    -0.14247890     0.13120589     0.40121920
     0.18686115    -0.11376584     0.83805790
     0.19727891     0.01906096     0.27505081
    -0.05012776    -0.15635178    -0.02246563
    -0.06040612     0.07593141    -0.06028097
    -0.17986345     0.00302732    -0.30095328
    -0.03055241     0.01114895     0.04274084
    -0.00266166    -0.18453433    -0.08715727
     0.03054828    -0.02222442     0.02600174
    -0.00554951     0.02728479    -0.02799557

 h vector - derivative coupling
     0.07688076    -0.02169998     0.06008555
    -0.09720662     0.04542131    -0.16153800
     0.00107047     0.00327737     0.00094733
    -0.00183445    -0.01288616    -0.00188904
    -0.01082928     0.01455065     0.03019830
     0.08781176    -0.00533907     0.09632399
    -0.00986757    -0.01616275     0.03237096
    -0.01278605    -0.00717533    -0.01798254
    -0.02020455     0.02140588     0.00131154
     0.02849410     0.03190188    -0.03390433
    -0.00617700     0.00271793     0.00305730
    -0.04206733    -0.05517973    -0.00544164
     0.00064089    -0.00076103     0.00108511
     0.00607488    -0.00007097    -0.00462455

 G vector - GDV
     0.00000000     0.00000000     0.00000000
     0.00000000     0.00000000     0.00000000
     0.00000000     0.00000000     0.00000000
     0.00000000     0.00000000     0.00000000
     0.00000000     0.00000000     0.00000000
     0.00000000     0.00000000     0.00000000
     0.00000000     0.00000000     0.00000000
     0.00000000     0.00000000     0.00000000
     0.00000000     0.00000000     0.00000000
     0.00000000     0.00000000     0.00000000
     0.00000000     0.00000000     0.00000000
     0.00000000     0.00000000     0.00000000
     0.00000000     0.00000000     0.00000000
     0.00000000     0.00000000     0.00000000

 H vector - DCV - non-adiabatic coupling
     0.00000000     0.00000000     0.00000000
     0.00000000     0.00000000     0.00000000
     0.00000000     0.00000000     0.00000000
     0.00000000     0.00000000     0.00000000
     0.00000000     0.00000000     0.00000000
     0.00000000     0.00000000     0.00000000
     0.00000000     0.00000000     0.00000000
     0.00000000     0.00000000     0.00000000
     0.00000000     0.00000000     0.00000000
     0.00000000     0.00000000     0.00000000
     0.00000000     0.00000000     0.00000000
     0.00000000     0.00000000     0.00000000
     0.00000000     0.00000000     0.00000000
     0.00000000     0.00000000     0.00000000
--------------------------------------------------

WARNING!
-> SCC is NOT converged, maximal SCC iterations exceeded

--------------------------------------------------------------------------------
DFTB+ running times                          cpu [s]             wall clock [s]
--------------------------------------------------------------------------------
SCC                                    +     1.53  ( 80.9%)      1.54  ( 80.5%)
      Sparse to dense                        0.07  (  3.7%)      0.07  (  3.8%)
      Dense to sparse                        0.25  ( 13.1%)      0.24  ( 12.3%)
      Range separated Hamiltonian            0.12  (  6.6%)      0.13  (  7.0%)
  Density matrix creation                    0.15  (  8.1%)      0.15  (  7.8%)
  Force calculation                          0.36  ( 18.9%)      0.36  ( 18.8%)
--------------------------------------------------------------------------------
Missing                                +     0.36  ( 19.1%)      0.37  ( 19.5%)
Total                                  =     1.90  (100.0%)      1.92  (100.0%)
--------------------------------------------------------------------------------
