|===============================================================================
|
|  DFTB+ release 20.1
|
|  Copyright (C) 2006 - 2020  DFTB+ developers group
|
|===============================================================================
|
|  When publishing results obtained with DFTB+, please cite the following
|  reference:
|
|  * DFTB+, a software package for efficient approximate density functional
|    theory based atomistic simulations, J. Chem. Phys. 152, 124101 (2020).
|    [doi: 10.1063/1.5143190]
|
|  You should also cite additional publications crediting the parametrization
|  data you use. Please consult the documentation of the SK-files for the
|  references.
|
|===============================================================================

Reading input file 'dftb_in.hsd'
Parser version: 8

--------------------------------------------------------------------------------
Reading SK-files:
Done.


Processed input in HSD format written to 'dftb_pin.hsd'

Starting initialization...
--------------------------------------------------------------------------------
OpenMP threads:              1
Chosen random seed:          507636033
Mode:                        Static calculation
Self consistent charges:     Yes
SCC-tolerance:                 0.100000E-05
Max. scc iterations:                   1000
Shell resolved Hubbard:      No
Spin polarisation:           No
Nr. of up electrons:             6.000000
Nr. of down electrons:           6.000000
Periodic boundaries:         No
Electronic solver:           Relatively robust
Maximal SCC-cycles:                    1000
Initial charges:             Set automatically (system chrg:   0.100E+01)
Included shells:             C:  s, p
                             N:  s, p
                             H:  s
Spin coupling constants:     C   1(s)-1(s):  -0.455900E-01
                             C   1(s)-2(p):  -0.293000E-01
                             C   2(p)-1(s):  -0.293000E-01
                             C   2(p)-2(p):  -0.275500E-01
                             N   1(s)-1(s):  -0.468700E-01
                             N   1(s)-2(p):  -0.317000E-01
                             N   2(p)-1(s):  -0.317000E-01
                             N   2(p)-2(p):  -0.307200E-01
                             H   1(s)-1(s):  -0.792500E-01
Range separated hybrid:      Yes
  Screening parameter omega:   0.300000E+00
  Range separated algorithm:   MatrixBased
Extra options:
                             Mulliken analysis
                             Force calculation
Force type                   original
                             Eigenvector printing


REKS Calcuation:             Yes
SSR(2,2) Calcuation:         Yes
Energy Functional:           (PPS+OSS)/2
Number of Core Orbitals:                  5
Number of Active Orbitals:                2
Number of Basis:                         12
Number of States:                         2
State-Averaging Weight:          0.500000
                                 0.500000
State of Interest:                        1
Initial Guess:               Diagonalize H0 matrix
Newton-Raphson for FON opt:  Yes
NR max. Iterations:                      50
Level Shifting:              Yes
Shift Value:                     0.300000
W Scale Factor:              C  =    3.000000
                             N  =    3.000000
                             H  =    3.000000
Transition Dipole:           No
Gradient of Microstate:      No
CP-REKS Solver:              Preconditioned Conjugate-Gradient
CG max. Iterations:                     100
CG Tolerance:                  0.100000E-07
Memory for A and Hxc:        Direct Updating Without Saving
Non-Adiabatic Coupling:      Yes

--------------------------------------------------------------------------------

***  Geometry step: 0

  iSCC       reks energy        Diff energy         x_a       SCC error   
    1       -6.2645924409       0.0000000000     0.998454    1.17671165
    2       -6.2779669735      -0.0133745327     0.999444    0.10852677
    3       -6.2816115277      -0.0036445541     0.999713    0.05075501
    4       -6.2830835653      -0.0014720376     0.999815    0.02593060
    5       -6.2837944245      -0.0007108592     0.999861    0.01422948
    6       -6.2842058780      -0.0004114535     0.999883    0.00810223
    7       -6.2844828932      -0.0002770152     0.999895    0.00496420
    8       -6.2846882817      -0.0002053885     0.999903    0.00477665
    9       -6.2848487719      -0.0001604902     0.999907    0.00447738
   10       -6.2849774667      -0.0001286948     0.999910    0.00413294
   11       -6.2850818219      -0.0001043552     0.999911    0.00377630
   12       -6.2851667055      -0.0000848836     0.999912    0.00342463
   13       -6.2852356667      -0.0000689611     0.999913    0.00308739
   14       -6.2852914959      -0.0000558293     0.999914    0.00276992
   15       -6.2853364858      -0.0000449899     0.999914    0.00251080
   16       -6.2853725584      -0.0000360726     0.999914    0.00230251
   17       -6.2854013347      -0.0000287763     0.999914    0.00209810
   18       -6.2854241787      -0.0000228440     0.999914    0.00190147
   19       -6.2854422306      -0.0000180519     0.999914    0.00171522
   20       -6.2854564358      -0.0000142053     0.999914    0.00154095
   21       -6.2854675715      -0.0000111357     0.999914    0.00137952
   22       -6.2854762710      -0.0000086995     0.999914    0.00123121
   23       -6.2854830464      -0.0000067754     0.999914    0.00109590
   24       -6.2854883088      -0.0000052624     0.999914    0.00097316
   25       -6.2854923862      -0.0000040774     0.999914    0.00086238
   26       -6.2854955387      -0.0000031525     0.999914    0.00076281
   27       -6.2854979714      -0.0000024327     0.999914    0.00067366
   28       -6.2854998456      -0.0000018742     0.999914    0.00059409
   29       -6.2855012874      -0.0000014418     0.999914    0.00052326
   30       -6.2855023951      -0.0000011077     0.999914    0.00046036
   31       -6.2855032451      -0.0000008501     0.999914    0.00040463
   32       -6.2855038968      -0.0000006517     0.999914    0.00035534
   33       -6.2855043960      -0.0000004992     0.999914    0.00031182
   34       -6.2855047781      -0.0000003821     0.999914    0.00027344
   35       -6.2855050704      -0.0000002922     0.999914    0.00023965
   36       -6.2855052938      -0.0000002234     0.999914    0.00020992
   37       -6.2855054644      -0.0000001707     0.999913    0.00018379
   38       -6.2855055948      -0.0000001304     0.999913    0.00016085
   39       -6.2855056943      -0.0000000995     0.999913    0.00014072
   40       -6.2855057702      -0.0000000759     0.999913    0.00012307
   41       -6.2855058282      -0.0000000579     0.999913    0.00010761
   42       -6.2855058724      -0.0000000442     0.999913    0.00009406
   43       -6.2855059061      -0.0000000337     0.999913    0.00008220
   44       -6.2855059317      -0.0000000257     0.999913    0.00007183
   45       -6.2855059513      -0.0000000196     0.999913    0.00006275
   46       -6.2855059662      -0.0000000149     0.999913    0.00005481
   47       -6.2855059776      -0.0000000114     0.999913    0.00004787
   48       -6.2855059863      -0.0000000087     0.999913    0.00004180
   49       -6.2855059929      -0.0000000066     0.999913    0.00003650
   50       -6.2855059979      -0.0000000050     0.999913    0.00003187
   51       -6.2855060017      -0.0000000038     0.999913    0.00002782
   52       -6.2855060047      -0.0000000029     0.999913    0.00002429
   53       -6.2855060069      -0.0000000022     0.999913    0.00002120
   54       -6.2855060086      -0.0000000017     0.999913    0.00001851
   55       -6.2855060099      -0.0000000013     0.999913    0.00001615
   56       -6.2855060108      -0.0000000010     0.999913    0.00001410
   57       -6.2855060116      -0.0000000007     0.999913    0.00001230
   58       -6.2855060122      -0.0000000006     0.999913    0.00001074
   59       -6.2855060126      -0.0000000004     0.999913    0.00000937
   60       -6.2855060129      -0.0000000003     0.999913    0.00000818
   61       -6.2855060132      -0.0000000003     0.999913    0.00000714
   62       -6.2855060134      -0.0000000002     0.999913    0.00000623
   63       -6.2855060135      -0.0000000001     0.999913    0.00000543
   64       -6.2855060136      -0.0000000001     0.999913    0.00000474
   65       -6.2855060137      -0.0000000001     0.999913    0.00000414
   66       -6.2855060138      -0.0000000001     0.999913    0.00000361
   67       -6.2855060138      -0.0000000000     0.999913    0.00000315
   68       -6.2855060138      -0.0000000000     0.999913    0.00000275
   69       -6.2855060139      -0.0000000000     0.999913    0.00000240
   70       -6.2855060139      -0.0000000000     0.999913    0.00000209
   71       -6.2855060139      -0.0000000000     0.999913    0.00000183
   72       -6.2855060139      -0.0000000000     0.999913    0.00000159
   73       -6.2855060139      -0.0000000000     0.999913    0.00000139
   74       -6.2855060139      -0.0000000000     0.999913    0.00000121
   75       -6.2855060139      -0.0000000000     0.999913    0.00000106
   76       -6.2855060140      -0.0000000000     0.999913    0.00000092
  
--------------------------------------------------
 Final SA-REKS(2,2) energy:      -6.28550601
  
 State     Energy      FON(1)    FON(2)   Spin
  PPS   -6.40488091   1.999827  0.000173  0.00
  OSS   -6.16613112   1.000000  1.000000  0.00
 Trip   -6.24836850   1.000000  1.000000  1.00
--------------------------------------------------

 Lagrangian Wab:  -0.01009790 -0.01009756

--------------------------------------------------
 SSR: 2SI-2SA-REKS(2,2) Hamiltonian matrix
               PPS           OSS
   PPS    -6.40488091   -0.01414700
   OSS    -0.01414700   -6.16613112
--------------------------------------------------

----------------------------------------------------------------
 SSR: 2SI-2SA-REKS(2,2) states
                    E_n       C_{PPS}    C_{OSS}
 SSR state  1   -6.40571626  -0.998261  -0.058945
 SSR state  2   -6.16529577   0.058945  -0.998261
----------------------------------------------------------------

 unrelaxed SSR FONs for S0:  1.996353  0.003647

Total Energy:                       -6.4057162569 H         -174.3084 eV
Extrapolated to 0:                  -6.4057162569 H         -174.3084 eV

----------------------------------------------------------------------------------
 Solving CP-REKS equation for  1 state vector...
----------------------------------------------------------------------------------
  CG solver: Constructing Y initial guess
  CG solver: Iteration    1    eps =    0.000428093359
  CG solver: Iteration    2    eps =    0.000077816215
  CG solver: Iteration    3    eps =    0.000035003350
  CG solver: Iteration    4    eps =    0.000003548751
  CG solver: Iteration    5    eps =    0.000000039651
  CG solver: Iteration    6    eps =    0.000000022068
  CG solver: Iteration    7    eps =    0.000000000377
  Convergence reached in CG solver after    7 iterations
  CG solver: Calculating converged R, Z, Q2 matrix
----------------------------------------------------------------------------------

----------------------------------------------------------------------------------
 Solving CP-REKS equation for SI between  1 and  2 state vectors...
----------------------------------------------------------------------------------
  CG solver: Constructing Y initial guess
  CG solver: Iteration    1    eps =    0.006823785784
  CG solver: Iteration    2    eps =    0.011353154617
  CG solver: Iteration    3    eps =    0.001022653568
  CG solver: Iteration    4    eps =    0.000016694690
  CG solver: Iteration    5    eps =    0.000002671168
  CG solver: Iteration    6    eps =    0.000000084229
  CG solver: Iteration    7    eps =    0.000000008292
  Convergence reached in CG solver after    7 iterations
  CG solver: Calculating converged R, Z, Q2 matrix
----------------------------------------------------------------------------------

--------------------------------------------------
 Gradient Information
--------------------------------------------------
           1 st state (SSR)
    -0.00801264    -0.00086215    -0.02700033
     0.02056255    -0.00409820     0.03114583
     0.01478913     0.00217198     0.00347674
     0.00967281     0.00672041    -0.00443090
    -0.02277299    -0.00004555    -0.01005860
    -0.01423885    -0.00388649     0.00686726

           2 st state (SSR)
     0.00738405    -0.00257409     0.08460578
    -0.02071289     0.01121728    -0.09333879
    -0.01602216     0.00572964     0.01826032
    -0.00792811    -0.00189714    -0.01424787
     0.02078370    -0.00048260    -0.01471580
     0.01649541    -0.01199309     0.01943638
--------------------------------------------------
 Coupling Information
--------------------------------------------------
 between  1 and  2 states
--------------------------------------------------
 g vector - difference gradient
    -0.00787690     0.00118248    -0.06283641
     0.02220401    -0.00842229     0.06803272
     0.01781120    -0.00096143    -0.00687586
     0.01116532     0.00417069     0.00523441
    -0.02515866     0.00095153     0.00221692
    -0.01814496     0.00307901    -0.00577178

 h vector - derivative coupling
     0.00105216    -0.00270462     0.05605364
    -0.01199805     0.00599925    -0.04518516
    -0.01938883    -0.00700242    -0.00478996
    -0.01943546     0.00141956    -0.00246039
     0.02723775    -0.00617230     0.00107986
     0.02253244     0.00846053    -0.00469798

 G vector - GDV
    -0.00769834     0.00085597    -0.05580305
     0.02063772    -0.00765774     0.06224231
     0.01540564    -0.00177883    -0.00739179
     0.00880046     0.00430877     0.00490849
    -0.02177835     0.00021852     0.00232860
    -0.01536713     0.00405330    -0.00628456

 H vector - DCV - non-adiabatic coupling
     0.00820163    -0.01175020     0.26228652
    -0.06042648     0.02890247    -0.21993814
    -0.08880366    -0.02845269    -0.01641910
    -0.08574311     0.00382191    -0.01272481
     0.12481998    -0.02596032     0.00337515
     0.10195164     0.03343883    -0.01657963
--------------------------------------------------


--------------------------------------------------------------------------------
DFTB+ running times                          cpu [s]             wall clock [s]
--------------------------------------------------------------------------------
SCC                                    +     0.04  ( 75.2%)      0.04  ( 69.8%)
Post-SCC processing                    +     0.01  ( 21.6%)      0.01  ( 20.8%)
  Force calculation                          0.01  ( 21.1%)      0.01  ( 18.9%)
--------------------------------------------------------------------------------
Missing                                +     0.00  (  3.1%)      0.00  (  9.4%)
Total                                  =     0.05  (100.0%)      0.05  (100.0%)
--------------------------------------------------------------------------------
