     6
  Step:   120            Position(A)                                  Velocity(au)
C        -0.02613001     0.05629871     0.00077677     0.00010216     0.00012007    -0.00030208
N        -0.05270954    -0.03711917     1.33691420    -0.00005640    -0.00010727     0.00018849
H         0.76665539    -0.48595680    -0.64828242    -0.00018690    -0.00172585     0.00042556
H         0.85746163     0.02662041     1.85508978    -0.00004187     0.00165178     0.00013373
H        -0.85166005    -0.52475263     1.78598473     0.00035038    -0.00103707     0.00004498
H        -0.94156172     0.15928028    -0.68824523    -0.00055529     0.00117103     0.00037596
