     6
  Step:   600            Position(A)                                  Velocity(au)
C        -0.32445143     0.06484051     0.05841818    -0.00082416     0.00016108    -0.00007597
N         0.13357288    -0.15319007     1.25707027     0.00091551     0.00009516     0.00051643
H        -0.21221718     1.24126059    -0.21260422    -0.00058282    -0.00082434    -0.00701721
H         0.14595549     0.47815507     2.09762978    -0.00657518     0.00148335    -0.00052778
H         1.11900962    -0.47018202     1.83237009     0.00160075    -0.00701083    -0.00021400
H        -0.25541132    -0.56264857    -0.99020800     0.00265570     0.00311001     0.00148778
