     6
  Step:     0            Position(A)                                  Velocity(au)
C        -0.03631776     0.02742041     0.01160675    -0.00001373    -0.00003008     0.00017814
N        -0.04403223    -0.06459237     1.30318050    -0.00003682     0.00002403    -0.00015978
H         0.94923545    -0.00836575    -0.51881539     0.00041100     0.00012745    -0.00023118
H         0.83080819    -0.09667986     1.79250502    -0.00024274    -0.00010206     0.00018572
H        -0.96250977    -0.01963017     1.89885689     0.00057864    -0.00000148     0.00022561
H        -0.98581975     0.02575304    -0.52826662    -0.00007167     0.00000058    -0.00008247
     6
  Step:     1            Position(A)                                  Velocity(au)
C        -0.03638577     0.02726869     0.01248143    -0.00001098    -0.00002538     0.00014078
N        -0.04429133    -0.06447012     1.30241960    -0.00005765     0.00002063    -0.00011790
H         0.95144368    -0.00766755    -0.52022141     0.00039279     0.00012815    -0.00028077
H         0.82979782    -0.09724767     1.79386614    -0.00012743    -0.00010576     0.00031098
H        -0.95877423    -0.01963566     1.89978244     0.00078411    -0.00000028     0.00011398
H        -0.98634245     0.02573713    -0.52899601    -0.00011757    -0.00000645    -0.00018330
     6
  Step:     2            Position(A)                                  Velocity(au)
C        -0.03643782     0.02714293     0.01314619    -0.00000793    -0.00002062     0.00010166
N        -0.04466261    -0.06436676     1.30189124    -0.00007770     0.00001714    -0.00007499
H         0.95353055    -0.00696449    -0.52188559     0.00036719     0.00012939    -0.00032608
H         0.82941478    -0.09783638     1.79590555    -0.00001521    -0.00010975     0.00043307
H        -0.95393562    -0.01963323     1.90010328     0.00098146     0.00000151     0.00000577
H        -0.98710535     0.02568251    -0.53027099    -0.00015926    -0.00001361    -0.00028197
     6
  Step:     3            Position(A)                                  Velocity(au)
C        -0.03647244     0.02704331     0.01359235    -0.00000463    -0.00001584     0.00006103
N        -0.04514040    -0.06428279     1.30160009    -0.00009649     0.00001355    -0.00003132
H         0.95545632    -0.00625363    -0.52378479     0.00033438     0.00013115    -0.00036730
H         0.82963157    -0.09844707     1.79859870     0.00009044    -0.00011386     0.00054967
H        -0.94804889    -0.01961919     1.89984551     0.00116711     0.00000408    -0.00009649
H        -0.98808281     0.02558840    -0.53207737    -0.00019592    -0.00002093    -0.00037785
     6
  Step:     4            Position(A)                                  Velocity(au)
C        -0.03648837     0.02696993     0.01381278    -0.00000111    -0.00001104     0.00001922
N        -0.04571647    -0.06421876     1.30154915    -0.00011356     0.00000985     0.00001277
H         0.95718253    -0.00553212    -0.52589709     0.00029462     0.00013341    -0.00040464
H         0.83040258    -0.09907993     1.80190882     0.00018637    -0.00011791     0.00065857
H        -0.94118892    -0.01958870     1.89904942     0.00133713     0.00000764    -0.00019006
H        -0.98924512     0.02545388    -0.53439774    -0.00022684    -0.00002845    -0.00047033
     6
  Step:     5            Position(A)                                  Velocity(au)
C        -0.03648459     0.02692277     0.01380211     0.00000257    -0.00000625    -0.00002345
N        -0.04638004    -0.06417527     1.30173954    -0.00012842     0.00000603     0.00005690
H         0.95867249    -0.00479729    -0.52820188     0.00024828     0.00013613    -0.00043830
H         0.83166604    -0.09973422     1.80578773     0.00026979    -0.00012174     0.00075774
H        -0.93345252    -0.01953576     1.89777083     0.00148724     0.00001244    -0.00027191
H        -0.99055902     0.02527787    -0.53721154    -0.00025140    -0.00003617    -0.00055878
     6
  Step:     6            Position(A)                                  Velocity(au)
C        -0.03646029     0.02690170     0.01355694     0.00000638    -0.00000149    -0.00006656
N        -0.04711779    -0.06415293     1.30217004    -0.00014061     0.00000210     0.00010058
H         0.95989166    -0.00404666    -0.53067978     0.00019578     0.00013927    -0.00046851
H         0.83334647    -0.10040838     1.81017710     0.00033840    -0.00012521     0.00084539
H        -0.92496043    -0.01945300     1.89608239     0.00161281     0.00001871    -0.00033882
H        -0.99198838     0.02505919    -0.54049510    -0.00026913    -0.00004412    -0.00064262
     6
  Step:     7            Position(A)                                  Velocity(au)
C        -0.03641494     0.02690647     0.01307603     0.00001027     0.00000321    -0.00010969
N        -0.04791392    -0.06415240     1.30283677    -0.00014968    -0.00000196     0.00014329
H         0.96080824    -0.00327800    -0.53331270     0.00013771     0.00014279    -0.00049546
H         0.83535755    -0.10110007     1.81500991     0.00039046    -0.00012817     0.00092007
H        -0.91585884    -0.01933168     1.89407471     0.00170903     0.00002672    -0.00038741
H        -0.99349488     0.02479656    -0.54422173    -0.00027966    -0.00005230    -0.00072125
     6
  Step:     8            Position(A)                                  Velocity(au)
C        -0.03634823     0.02693667     0.01236055     0.00001419     0.00000782    -0.00015237
N        -0.04875035    -0.06417433     1.30373286    -0.00015523    -0.00000614     0.00018442
H         0.96139369    -0.00248930    -0.53608377     0.00007473     0.00014663    -0.00051939
H         0.83760523    -0.10180629     1.82021232     0.00042484    -0.00013052     0.00098067
H        -0.90632007    -0.01916152     1.89185686     0.00177111     0.00003677    -0.00041428
H        -0.99503867     0.02448870    -0.54836180    -0.00028279    -0.00006072    -0.00079414
     6
  Step:     9            Position(A)                                  Velocity(au)
C        -0.03626013     0.02699173     0.01141420     0.00001809     0.00001231    -0.00019412
N        -0.04960689    -0.06421936     1.30484820    -0.00015690    -0.00001043     0.00022338
H         0.96162334    -0.00167883    -0.53897746     0.00000764     0.00015075    -0.00054055
H         0.83999102    -0.10252359     1.82570565     0.00044100    -0.00013219     0.00102651
H        -0.89654217    -0.01893067     1.88955634     0.00179459     0.00004912    -0.00041620
H        -0.99657917     0.02413430    -0.55288299    -0.00027845    -0.00006937    -0.00086079
     6
  Step:    10            Position(A)                                  Velocity(au)
C        -0.03615092     0.02707093     0.01024326     0.00002190     0.00001665    -0.00023446
N        -0.05046172    -0.06428814     1.30616934    -0.00015446    -0.00001484     0.00025956
H         0.96147700    -0.00084509    -0.54197963    -0.00006268     0.00015510    -0.00055921
H         0.84241529    -0.10324816     1.83140863     0.00043903    -0.00013315     0.00105730
H        -0.88674608    -0.01862574     1.88731726     0.00177573     0.00006405    -0.00039041
H        -0.99807582     0.02373208    -0.55775056    -0.00026671    -0.00007824    -0.00092079
     6
  Step:    11            Position(A)                                  Velocity(au)
C        -0.03602118     0.02717339     0.00885654     0.00002557     0.00002082    -0.00027293
N        -0.05129186    -0.06438124     1.30767972    -0.00014775    -0.00001935     0.00029242
H         0.96093954     0.00001316    -0.54507774    -0.00013524     0.00015966    -0.00057569
H         0.84478027    -0.10397608     1.83723956     0.00041953    -0.00013337     0.00107320
H        -0.87717102    -0.01823191     1.88529744     0.00171192     0.00008181    -0.00033487
H        -0.99948870     0.02328080    -0.56292778    -0.00024777    -0.00008732    -0.00097386
     6
  Step:    12            Position(A)                                  Velocity(au)
C        -0.03587189     0.02729806     0.00726528     0.00002903     0.00002478    -0.00030912
N        -0.05207385    -0.06449922     1.30935992    -0.00013678    -0.00002394     0.00032149
H         0.96000135     0.00089698    -0.54826101    -0.00020898     0.00016439    -0.00059035
H         0.84699285    -0.10470342     1.84311846     0.00038362    -0.00013290     0.00107475
H        -0.86806717    -0.01773312     1.88366347     0.00160211     0.00010257    -0.00024862
H        -1.00077928     0.02277928    -0.56837647    -0.00022196    -0.00009662    -0.00101980
     6
  Step:    13            Position(A)                                  Velocity(au)
C        -0.03570439     0.02744379     0.00548288     0.00003220     0.00002851    -0.00034266
N        -0.05278462    -0.06464254     1.31118839    -0.00012170    -0.00002861     0.00034646
H         0.95865877     0.00180726    -0.55152071    -0.00028279     0.00016926    -0.00060361
H         0.84896698    -0.10542648     1.84896908     0.00033279    -0.00013177     0.00106281
H        -0.85968591    -0.01711249     1.88258407     0.00144720     0.00012645    -0.00013203
H        -1.00191108     0.02222634    -0.57405768    -0.00018971    -0.00010612    -0.00105856
     6
  Step:    14            Position(A)                                  Velocity(au)
C        -0.03552041     0.02760933     0.00352460     0.00003501     0.00003201    -0.00037326
N        -0.05340241    -0.06481157     1.31314212    -0.00010285    -0.00003334     0.00036717
H         0.95691428     0.00274477    -0.55485029    -0.00035553     0.00017428    -0.00061587
H         0.85062577    -0.10614192     1.85472073     0.00026888    -0.00013008     0.00103858
H        -0.85226869    -0.01635275     1.88222216     0.00125023     0.00015345     0.00001298
H        -1.00285020     0.02162084    -0.57993227    -0.00015153    -0.00011583    -0.00109017
     6
  Step:    15            Position(A)                                  Velocity(au)
C        -0.03532210     0.02779333     0.00140716     0.00003739     0.00003526    -0.00040067
N        -0.05390770    -0.06500656     1.31519760    -0.00008074    -0.00003809     0.00038360
H         0.95477665     0.00371022    -0.55824555    -0.00042606     0.00017941    -0.00062758
H         0.85190298    -0.10684686     1.86030960     0.00019395    -0.00012792     0.00100341
H        -0.84603434    -0.01543694     1.88272578     0.00101649     0.00018344     0.00018281
H        -1.00356573     0.02096160    -0.58596154    -0.00010802    -0.00012575    -0.00111476
     6
  Step:    16            Position(A)                                  Velocity(au)
C        -0.03511203     0.02799443    -0.00085151     0.00003926     0.00003825    -0.00042472
N        -0.05428421    -0.06522762     1.31733173    -0.00005602    -0.00004284     0.00039590
H         0.95226095     0.00470426    -0.56170464    -0.00049321     0.00018466    -0.00063916
H         0.85274405    -0.10753902     1.86567984     0.00011019    -0.00012539     0.00095881
H        -0.84116670    -0.01434919     1.88421876     0.00075344     0.00021616     0.00037224
H        -1.00403001     0.02024744    -0.59210758    -0.00005979    -0.00013588    -0.00113251
     6
  Step:    17            Position(A)                                  Velocity(au)
C        -0.03489320     0.02821123    -0.00323264     0.00004054     0.00004099    -0.00044525
N        -0.05451971    -0.06547462     1.31952263    -0.00002951    -0.00004755     0.00040437
H         0.94938859     0.00572748    -0.56522799    -0.00055583     0.00019000    -0.00065099
H         0.85310678    -0.10821672     1.87078409     0.00001992    -0.00012262     0.00090637
H        -0.83780349    -0.01307550     1.88679224     0.00047032     0.00025116     0.00057460
H        -1.00421887     0.01947716    -0.59833354    -0.00000748    -0.00014623    -0.00114358
     6
  Step:    18            Position(A)                                  Velocity(au)
C        -0.03466903     0.02844231    -0.00571676     0.00004116     0.00004346    -0.00046213
N        -0.05460667    -0.06574718     1.32175029    -0.00000210    -0.00005215     0.00040936
H         0.94618733     0.00678045    -0.56881811    -0.00061274     0.00019543    -0.00066341
H         0.85296172    -0.10887895     1.87558385    -0.00007450    -0.00011973     0.00084769
H        -0.83602745    -0.01160472     1.89049743     0.00017776     0.00028785     0.00078209
H        -1.00411173     0.01864953    -0.60460361     0.00004823    -0.00015679    -0.00114814
     6
  Step:    19            Position(A)                                  Velocity(au)
C        -0.03444334     0.02868627    -0.00828383     0.00004103     0.00004567    -0.00047526
N        -0.05454270    -0.06604460     1.32399701     0.00002524    -0.00005658     0.00041130
H         0.94269118     0.00786361    -0.57247921    -0.00066278     0.00020091    -0.00067666
H         0.85229243    -0.10952538     1.88004952    -0.00017065    -0.00011683     0.00078440
H        -0.83586057    -0.00992929     1.89534061    -0.00011294     0.00032547     0.00098624
H        -1.00369172     0.01776336    -0.61088294     0.00010662    -0.00016754    -0.00114630
     6
  Step:    20            Position(A)                                  Velocity(au)
C        -0.03422035     0.02894167    -0.01091327     0.00004010     0.00004761    -0.00048451
N        -0.05433070    -0.06636581     1.32624747     0.00005156    -0.00006076     0.00041061
H         0.93894040     0.00897727    -0.57621676    -0.00070480     0.00020641    -0.00069088
H         0.85109576    -0.11015633     1.88416053    -0.00026605    -0.00011403     0.00071813
H        -0.83726232    -0.00804603     1.90128107    -0.00039046     0.00036316     0.00117846
H        -1.00294593     0.01681758    -0.61713737     0.00016693    -0.00017845    -0.00113814
     6
  Step:    21            Position(A)                                  Velocity(au)
C        -0.03400463     0.02920705    -0.01358401     0.00003831     0.00004927    -0.00048980
N        -0.05397871    -0.06670931     1.32848873     0.00007593    -0.00006462     0.00040769
H         0.93498122     0.01012153    -0.58003691    -0.00073773     0.00021185    -0.00070614
H         0.84938204    -0.11077278     1.88790523    -0.00035821    -0.00011147     0.00065050
H        -0.84013191    -0.00595661     1.90823202    -0.00064420     0.00040001     0.00135061
H        -1.00186562     0.01581128    -0.62333330     0.00022832    -0.00018944    -0.00112376
     6
  Step:    22            Position(A)                                  Velocity(au)
C        -0.03380097     0.02948093    -0.01627448     0.00003563     0.00005064    -0.00049105
N        -0.05349955    -0.06707316     1.33070987     0.00009756    -0.00006808     0.00040286
H         0.93086549     0.01129613    -0.58394595    -0.00076060     0.00021720    -0.00072236
H         0.84717487    -0.11137649     1.89128074    -0.00044462    -0.00010927     0.00058319
H        -0.84431354    -0.00366770     1.91606438    -0.00086506     0.00043507     0.00149558
H        -1.00044681     0.01474407    -0.62943770     0.00028989    -0.00020045    -0.00110325
     6
  Step:    23            Position(A)                                  Velocity(au)
C        -0.03361433     0.02976178    -0.01896286     0.00003204     0.00005173    -0.00048823
N        -0.05291004    -0.06745500     1.33290155     0.00011578    -0.00007105     0.00039638
H         0.92664979     0.01250073    -0.58794952    -0.00077266     0.00022243    -0.00073938
H         0.84451174    -0.11196973     1.89429339    -0.00052278    -0.00010753     0.00051788
H        -0.84960758    -0.00119101     1.92461427    -0.00104599     0.00046745     0.00160779
H        -0.99869027     0.01361557    -0.63541807     0.00035068    -0.00021146    -0.00107677
     6
  Step:    24            Position(A)                                  Velocity(au)
C        -0.03344967     0.03004802    -0.02162716     0.00002757     0.00005251    -0.00048135
N        -0.05223023    -0.06785206     1.33505561     0.00013008    -0.00007346     0.00038843
H         0.92239442     0.01373474    -0.59205210    -0.00077341     0.00022750    -0.00075691
H         0.84144334    -0.11255543     1.89695846    -0.00059035    -0.00010637     0.00045619
H        -0.85578120     0.00145721     1.93369138    -0.00118217     0.00049641     0.00168341
H        -0.99660209     0.01242577    -0.64124287     0.00040971    -0.00022238    -0.00104458
     6
  Step:    25            Position(A)                                  Velocity(au)
C        -0.03331181     0.03033807    -0.02424558     0.00002225     0.00005300    -0.00047052
N        -0.05148240    -0.06826125     1.33716448     0.00014018    -0.00007529     0.00037911
H         0.91816183     0.01499744    -0.59625643    -0.00076267     0.00023239    -0.00077462
H         0.83803277    -0.11313712     1.89929996    -0.00064520    -0.00010592     0.00039972
H        -0.86258158     0.00425692     1.94308922    -0.00127130     0.00052136     0.00172057
H        -0.99419381     0.01117497    -0.64688208     0.00046597    -0.00023319    -0.00100708
     6
  Step:    26            Position(A)                                  Velocity(au)
C        -0.03320519     0.03063032    -0.02679690     0.00001618     0.00005319    -0.00045592
N        -0.05069004    -0.06867923     1.33922095     0.00014595    -0.00007648     0.00036848
H         0.91401480     0.01628802    -0.60056296    -0.00074063     0.00023711    -0.00079208
H         0.83435442    -0.11371918     1.90135021    -0.00068553    -0.00010629     0.00034989
H        -0.86974919     0.00718553     1.95259563    -0.00131335     0.00054195     0.00171927
H        -0.99148240     0.00986371    -0.65230786     0.00051849    -0.00024383    -0.00096480
     6
  Step:    27            Position(A)                                  Velocity(au)
C        -0.03313378     0.03092321    -0.02926087     0.00000947     0.00005310    -0.00043778
N        -0.04987691    -0.06910256     1.34121789     0.00014744    -0.00007704     0.00035656
H         0.91001453     0.01760571    -0.60496966    -0.00070785     0.00024168    -0.00080885
H         0.83049161    -0.11430639     1.90314893    -0.00071002    -0.00010758     0.00030794
H        -0.87702904     0.01021858     1.96200204    -0.00131034     0.00055798     0.00168117
H        -0.98849019     0.00849276    -0.65749537     0.00056637    -0.00025429    -0.00091843
     6
  Step:    28            Position(A)                                  Velocity(au)
C        -0.03310087     0.03121520    -0.03161871     0.00000226     0.00005275    -0.00041647
N        -0.04906608    -0.06952776     1.34314814     0.00014488    -0.00007698     0.00034338
H         0.90621848     0.01894996    -0.60947169    -0.00066525     0.00024618    -0.00082444
H         0.82653418    -0.11490406     1.90474194    -0.00071784    -0.00010987     0.00027482
H        -0.88418146     0.01333115     1.97111225    -0.00126597     0.00056951     0.00160930
H        -0.98524438     0.00706291    -0.66242355     0.00060882    -0.00026460    -0.00086876
     6
  Step:    29            Position(A)                                  Velocity(au)
C        -0.03310890     0.03150488    -0.03385353    -0.00000594     0.00005377    -0.00042492
N        -0.04827922    -0.06995149     1.34500460     0.00013857    -0.00007816     0.00035285
H         0.90267840     0.02032047    -0.61406131    -0.00063020     0.00032381    -0.00080273
H         0.82257549    -0.11551797     1.90617957    -0.00072136    -0.00018972     0.00024525
H        -0.89098972     0.01649895     1.97974883    -0.00117147     0.00065143     0.00150237
H        -0.98177637     0.00557487    -0.66707572     0.00066804    -0.00034012    -0.00078477
     6
  Step:    30            Position(A)                                  Velocity(au)
C        -0.03316640     0.03180883    -0.03631025    -0.00001480     0.00005652    -0.00047356
N        -0.04753609    -0.07039068     1.34704392     0.00012915    -0.00008089     0.00039427
H         0.89926044     0.02252509    -0.61833463    -0.00060711     0.00045476    -0.00073788
H         0.81856970    -0.11699878     1.90744975    -0.00072513    -0.00032489     0.00020936
H        -0.89711562     0.02052362     1.98769995    -0.00103137     0.00078019     0.00135376
H        -0.97786858     0.00330765    -0.67108816     0.00074512    -0.00045949    -0.00066115
     6
  Step:    31            Position(A)                                  Velocity(au)
C        -0.03327250     0.03212969    -0.03908870    -0.00002340     0.00005935    -0.00053074
N        -0.04685141    -0.07084572     1.34936322     0.00011700    -0.00008334     0.00044461
H         0.89596679     0.02534791    -0.62221859    -0.00058036     0.00055888    -0.00066540
H         0.81455916    -0.11910959     1.90849405    -0.00071640    -0.00043097     0.00017090
H        -0.90239153     0.02512403     1.99471471    -0.00086515     0.00087289     0.00117117
H        -0.97353905     0.00049513    -0.67438477     0.00081479    -0.00054987    -0.00053072
     6
  Step:    32            Position(A)                                  Velocity(au)
C        -0.03342542     0.03246585    -0.04218581    -0.00003155     0.00006180    -0.00058536
N        -0.04624084    -0.07131332     1.35196593     0.00010221    -0.00008512     0.00049367
H         0.89283555     0.02871220    -0.62570093    -0.00054618     0.00065066    -0.00059209
H         0.81063876    -0.12176985     1.90934171    -0.00068963    -0.00052435     0.00013931
H        -0.90669328     0.03018690     2.00066540    -0.00068020     0.00094721     0.00096999
H        -0.96884846    -0.00277972    -0.67696346     0.00087167    -0.00062706    -0.00040227
     6
  Step:    33            Position(A)                                  Velocity(au)
C        -0.03362236     0.03281484    -0.04557881    -0.00003908     0.00006374    -0.00063469
N        -0.04571819    -0.07178947     1.35483677     0.00008517    -0.00008613     0.00053885
H         0.88991105     0.03256202    -0.62878333    -0.00050393     0.00073274    -0.00052003
H         0.80691290    -0.12492326     1.91003868    -0.00064401    -0.00060818     0.00011672
H        -0.90993321     0.03562619     2.00546948    -0.00048310     0.00100685     0.00075777
H        -0.96387446    -0.00645736    -0.67884490     0.00091314    -0.00069412    -0.00027944
     6
  Step:    34            Position(A)                                  Velocity(au)
C        -0.03385948     0.03317377    -0.04923455    -0.00004581     0.00006514    -0.00067727
N        -0.04529493    -0.07226985     1.35795025     0.00006638    -0.00008635     0.00057867
H         0.88723907     0.03684983    -0.63147623    -0.00045364     0.00080636    -0.00045066
H         0.80348656    -0.12852410     1.91063801    -0.00058010    -0.00068397     0.00010392
H        -0.91205849     0.04136878     2.00908106    -0.00028014     0.00105390     0.00054093
H        -0.95870739    -0.01048840    -0.68006687     0.00093725    -0.00075258    -0.00016514
     6
  Step:    35            Position(A)                                  Velocity(au)
C        -0.03413194     0.03353950    -0.05311340    -0.00005155     0.00006596    -0.00071225
N        -0.04497974    -0.07275008     1.36127441     0.00004636    -0.00008579     0.00061225
H         0.88486433     0.04153279    -0.63379690    -0.00039581     0.00087236    -0.00038513
H         0.80045928    -0.13253234     1.91119478    -0.00049954    -0.00075269     0.00010087
H        -0.91304980     0.04735079     2.01148731    -0.00007729     0.00109006     0.00032528
H        -0.95344762    -0.01482981    -0.68068212     0.00094265    -0.00080358    -0.00006185
     6
  Step:    36            Position(A)                                  Velocity(au)
C        -0.03443399     0.03390886    -0.05717204    -0.00005619     0.00006623    -0.00073932
N        -0.04477827    -0.07322590     1.36477334     0.00002569    -0.00008451     0.00063922
H         0.88282809     0.04657158    -0.63576816    -0.00033133     0.00093149    -0.00032431
H         0.79791951    -0.13691227     1.91176210    -0.00040491    -0.00081517     0.00010687
H        -0.91291986     0.05351669     2.01270606     0.00011997     0.00111699     0.00011607
H        -0.94820222    -0.01944366    -0.68075620     0.00092872    -0.00084815     0.00002843
     6
  Step:    37            Position(A)                                  Velocity(au)
C        -0.03475914     0.03427882    -0.06136606    -0.00005961     0.00006601    -0.00075866
N        -0.04469292    -0.07369344     1.36840965     0.00000496    -0.00008262     0.00065962
H         0.88116582     0.05193047    -0.63741703    -0.00026143     0.00098466    -0.00026886
H         0.79593947    -0.14163164     1.91238769    -0.00029952    -0.00087223     0.00012069
H        -0.91171061     0.05981920     2.01278289     0.00030682     0.00113653    -0.00008216
H        -0.94308078    -0.02429727    -0.68036476     0.00089553    -0.00088747     0.00010425
     6
  Step:    38            Position(A)                                  Velocity(au)
C        -0.03510038     0.03464671    -0.06565245    -0.00006178     0.00006537    -0.00077085
N        -0.04472282    -0.07414940     1.37214670    -0.00001528    -0.00008024     0.00067391
H         0.87990580     0.05757834    -0.63877354    -0.00018745     0.00103302    -0.00021914
H         0.79457147    -0.14666228     1.91311119    -0.00018710    -0.00092486     0.00014072
H        -0.90949013     0.06622103     2.01178768     0.00047919     0.00115079    -0.00026565
H        -0.93819180    -0.02936400    -0.67959088     0.00084379    -0.00092289     0.00016473
     6
  Step:    39            Position(A)                                  Velocity(au)
C        -0.03545043     0.03501031    -0.06999182    -0.00006267     0.00006442    -0.00077682
N        -0.04486388    -0.07459130     1.37595063    -0.00003451    -0.00007754     0.00068282
H         0.87906823     0.06348997    -0.63986925    -0.00011082     0.00107792    -0.00017526
H         0.79384583    -0.15198080     1.91396236    -0.00007153    -0.00097416     0.00016514
H        -0.90634854     0.07269645     2.00981024     0.00063384     0.00116210    -0.00043158
H        -0.93363882    -0.03462437    -0.67852146     0.00077478    -0.00095592     0.00020965
     6
  Step:    40            Position(A)                                  Velocity(au)
C        -0.03580207     0.03536796    -0.07435014    -0.00006233     0.00006326    -0.00077769
N        -0.04510916    -0.07501760     1.37979190    -0.00005228    -0.00007470     0.00068727
H         0.87866502     0.06964732    -0.64073584    -0.00003285     0.00112084    -0.00013703
H         0.79377059    -0.15756943     1.91496021     0.00004348    -0.00102129     0.00019206
H        -0.90239336     0.07923252     2.00695546     0.00076834     0.00117291    -0.00057796
H        -0.92951700    -0.04006698    -0.67724355     0.00069015    -0.00098814     0.00023938
     6
  Step:    41            Position(A)                                  Velocity(au)
C        -0.03614833     0.03571860    -0.07869977    -0.00006081     0.00006199    -0.00077457
N        -0.04544921    -0.07542776     1.38364614    -0.00006820    -0.00007189     0.00068816
H         0.87870036     0.07604018    -0.64140358     0.00004526     0.00116319    -0.00010403
H         0.79433274    -0.16341633     1.91611292     0.00015458    -0.00106733     0.00021964
H        -0.89774532     0.08582976     2.00333877     0.00088082     0.00118557    -0.00070345
H        -0.92591111    -0.04568876    -0.67584105     0.00059168    -0.00102103     0.00025475
     6
  Step:    42            Position(A)                                  Velocity(au)
C        -0.03648265     0.03606172    -0.08301933    -0.00005818     0.00006068    -0.00076842
N        -0.04587250    -0.07582223     1.38749398    -0.00008196    -0.00006927     0.00068625
H         0.87917155     0.08266596    -0.64190017     0.00012247     0.00120616    -0.00007567
H         0.79550066    -0.16951521     1.91741850     0.00025880    -0.00111312     0.00024617
H        -0.89253502     0.09250169     1.99908232     0.00096975     0.00120218    -0.00080715
H        -0.92289481    -0.05149451    -0.67439234     0.00048117    -0.00105580     0.00025689
     6
  Step:    43            Position(A)                                  Velocity(au)
C        -0.03679896     0.03639721    -0.08729285    -0.00005453     0.00005940    -0.00075995
N        -0.04636572    -0.07620234     1.39132028    -0.00009324    -0.00006696     0.00068204
H         0.88006990     0.08952838    -0.64224980     0.00019782     0.00125056    -0.00005125
H         0.79722681    -0.17586405     1.91886576     0.00035356    -0.00115911     0.00027008
H        -0.88690092     0.09927343     1.99431265     0.00103362     0.00122448    -0.00088827
H        -0.92053028    -0.05749543    -0.67296832     0.00036049    -0.00109327     0.00024717
     6
  Step:    44            Position(A)                                  Velocity(au)
C        -0.03709178     0.03672524    -0.09150838    -0.00004994     0.00005816    -0.00074959
N        -0.04691407    -0.07657019     1.39511275    -0.00010178    -0.00006508     0.00067579
H         0.88138128     0.09663540    -0.64247267     0.00027034     0.00129673    -0.00003003
H         0.79945016    -0.18246307     1.92043543     0.00043660    -0.00120532     0.00028999
H        -0.88098889     0.10617974     1.98915985     0.00107091     0.00125379    -0.00094602
H        -0.91886793    -0.06370690    -0.67163131     0.00023164    -0.00113380     0.00022713
     6