|===============================================================================
|
|  DFTB+ release 20.1
|
|  Copyright (C) 2006 - 2020  DFTB+ developers group
|
|===============================================================================
|
|  When publishing results obtained with DFTB+, please cite the following
|  reference:
|
|  * DFTB+, a software package for efficient approximate density functional
|    theory based atomistic simulations, J. Chem. Phys. 152, 124101 (2020).
|    [doi: 10.1063/1.5143190]
|
|  You should also cite additional publications crediting the parametrization
|  data you use. Please consult the documentation of the SK-files for the
|  references.
|
|===============================================================================

Reading input file 'dftb_in.hsd'
Parser version: 8

--------------------------------------------------------------------------------
Reading SK-files:
Done.


Processed input in HSD format written to 'dftb_pin.hsd'

Starting initialization...
--------------------------------------------------------------------------------
OpenMP threads:              1
Chosen random seed:          499128177
Mode:                        Static calculation
Self consistent charges:     Yes
SCC-tolerance:                 0.100000E-05
Max. scc iterations:                   1000
Shell resolved Hubbard:      No
Spin polarisation:           No
Nr. of up electrons:            16.000000
Nr. of down electrons:          16.000000
Periodic boundaries:         No
Electronic solver:           Relatively robust
Maximal SCC-cycles:                    1000
Initial charges:             Set automatically (system chrg:   0.100E+01)
Included shells:             C:  s, p
                             H:  s
                             N:  s, p
Spin coupling constants:     C   1(s)-1(s):  -0.455900E-01
                             C   1(s)-2(p):  -0.293000E-01
                             C   2(p)-1(s):  -0.293000E-01
                             C   2(p)-2(p):  -0.275500E-01
                             H   1(s)-1(s):  -0.792500E-01
                             N   1(s)-1(s):  -0.468700E-01
                             N   1(s)-2(p):  -0.317000E-01
                             N   2(p)-1(s):  -0.317000E-01
                             N   2(p)-2(p):  -0.307200E-01
Range separated hybrid:      Yes
  Screening parameter omega:   0.300000E+00
  Range separated algorithm:   MatrixBased
Extra options:
                             Mulliken analysis
                             Force calculation
Force type                   original
                             Eigenvector printing


REKS Calcuation:             Yes
SSR(2,2) Calcuation:         Yes
Energy Functional:           (PPS+OSS)/2
Number of Core Orbitals:                 15
Number of Active Orbitals:                2
Number of Basis:                         32
Number of States:                         2
State-Averaging Weight:          0.500000
                                 0.500000
State of Interest:                        1
Initial Guess:               Diagonalize H0 matrix
Newton-Raphson for FON opt:  Yes
NR max. Iterations:                      50
Level Shifting:              Yes
Shift Value:                     0.300000
W Scale Factor:              C  =    3.200000
                             H  =    3.200000
                             N  =    3.200000
Transition Dipole:           No
Gradient of Microstate:      No
CP-REKS Solver:              Preconditioned Conjugate-Gradient
CG max. Iterations:                     100
CG Tolerance:                  0.100000E-07
Memory for A and Hxc:        Direct Updating Without Saving
Non-Adiabatic Coupling:      Yes

--------------------------------------------------------------------------------

***  Geometry step: 0

  iSCC       reks energy        Diff energy         x_a       SCC error   
    1      -16.3930848576       0.0000000000     0.996690    1.20092824
    2      -16.4123572068      -0.0192723493     0.999556    0.04913344
    3      -16.4167217432      -0.0043645363     0.999863    0.02367261
    4      -16.4181681823      -0.0014464391     0.999933    0.01317044
    5      -16.4187647982      -0.0005966159     0.999958    0.00762059
    6      -16.4190453443      -0.0002805461     0.999970    0.00470537
    7      -16.4191888875      -0.0001435432     0.999976    0.00310247
    8      -16.4192667142      -0.0000778267     0.999980    0.00217154
    9      -16.4193108295      -0.0000441153     0.999982    0.00172751
   10      -16.4193368386      -0.0000260091     0.999984    0.00146612
   11      -16.4193527733      -0.0000159347     0.999985    0.00124044
   12      -16.4193629216      -0.0000101482     0.999986    0.00105119
   13      -16.4193696376      -0.0000067161     0.999987    0.00089449
   14      -16.4193742477      -0.0000046101     0.999987    0.00076520
   15      -16.4193775186      -0.0000032709     0.999987    0.00065830
   16      -16.4193799065      -0.0000023880     0.999988    0.00056948
   17      -16.4193816916      -0.0000017851     0.999988    0.00049519
   18      -16.4193830514      -0.0000013599     0.999988    0.00043259
   19      -16.4193841027      -0.0000010513     0.999988    0.00037945
   20      -16.4193849247      -0.0000008220     0.999989    0.00033402
   21      -16.4193855730      -0.0000006482     0.999989    0.00029493
   22      -16.4193860874      -0.0000005145     0.999989    0.00026109
   23      -16.4193864977      -0.0000004103     0.999989    0.00023165
   24      -16.4193868261      -0.0000003283     0.999989    0.00020592
   25      -16.4193870895      -0.0000002635     0.999989    0.00018334
   26      -16.4193873014      -0.0000002119     0.999989    0.00016346
   27      -16.4193874720      -0.0000001706     0.999989    0.00014590
   28      -16.4193876096      -0.0000001376     0.999989    0.00013036
   29      -16.4193877206      -0.0000001110     0.999989    0.00011657
   30      -16.4193878102      -0.0000000896     0.999989    0.00010431
   31      -16.4193878826      -0.0000000724     0.999989    0.00009341
   32      -16.4193879411      -0.0000000585     0.999989    0.00008369
   33      -16.4193879884      -0.0000000473     0.999989    0.00007501
   34      -16.4193880266      -0.0000000382     0.999990    0.00006726
   35      -16.4193880575      -0.0000000309     0.999990    0.00006034
   36      -16.4193880825      -0.0000000250     0.999990    0.00005414
   37      -16.4193881028      -0.0000000202     0.999990    0.00004859
   38      -16.4193881191      -0.0000000164     0.999990    0.00004362
   39      -16.4193881324      -0.0000000132     0.999990    0.00003917
   40      -16.4193881431      -0.0000000107     0.999990    0.00003518
   41      -16.4193881518      -0.0000000087     0.999990    0.00003160
   42      -16.4193881588      -0.0000000070     0.999990    0.00002839
   43      -16.4193881645      -0.0000000057     0.999990    0.00002551
   44      -16.4193881690      -0.0000000046     0.999990    0.00002292
   45      -16.4193881728      -0.0000000037     0.999990    0.00002060
   46      -16.4193881758      -0.0000000030     0.999990    0.00001852
   47      -16.4193881782      -0.0000000024     0.999990    0.00001664
   48      -16.4193881802      -0.0000000020     0.999990    0.00001496
   49      -16.4193881818      -0.0000000016     0.999990    0.00001345
   50      -16.4193881831      -0.0000000013     0.999990    0.00001209
   51      -16.4193881841      -0.0000000010     0.999990    0.00001087
   52      -16.4193881849      -0.0000000008     0.999990    0.00000978
   53      -16.4193881856      -0.0000000007     0.999990    0.00000879
   54      -16.4193881862      -0.0000000006     0.999990    0.00000790
   55      -16.4193881866      -0.0000000004     0.999990    0.00000711
   56      -16.4193881870      -0.0000000004     0.999990    0.00000639
   57      -16.4193881873      -0.0000000003     0.999990    0.00000575
   58      -16.4193881875      -0.0000000002     0.999990    0.00000517
   59      -16.4193881877      -0.0000000002     0.999990    0.00000465
   60      -16.4193881879      -0.0000000002     0.999990    0.00000418
   61      -16.4193881880      -0.0000000001     0.999990    0.00000376
   62      -16.4193881881      -0.0000000001     0.999990    0.00000338
   63      -16.4193881882      -0.0000000001     0.999990    0.00000304
   64      -16.4193881882      -0.0000000001     0.999990    0.00000274
   65      -16.4193881883      -0.0000000001     0.999990    0.00000246
   66      -16.4193881883      -0.0000000000     0.999990    0.00000221
   67      -16.4193881884      -0.0000000000     0.999990    0.00000199
   68      -16.4193881884      -0.0000000000     0.999990    0.00000179
   69      -16.4193881884      -0.0000000000     0.999990    0.00000161
   70      -16.4193881884      -0.0000000000     0.999990    0.00000145
   71      -16.4193881885      -0.0000000000     0.999990    0.00000130
   72      -16.4193881885      -0.0000000000     0.999990    0.00000117
   73      -16.4193881885      -0.0000000000     0.999990    0.00000105
   74      -16.4193881885      -0.0000000000     0.999990    0.00000095
  
--------------------------------------------------
 Final SA-REKS(2,2) energy:     -16.41938819
  
 State     Energy      FON(1)    FON(2)   Spin
  PPS  -16.48952805   1.999980  0.000020  0.00
  OSS  -16.34924832   1.000000  1.000000  0.00
 Trip  -16.39148699   1.000000  1.000000  1.00
--------------------------------------------------

 Lagrangian Wab:  -0.00562919 -0.00562863

--------------------------------------------------
 SSR: 2SI-2SA-REKS(2,2) Hamiltonian matrix
               PPS           OSS
   PPS   -16.48952805   -0.00793536
   OSS    -0.00793536  -16.34924832
--------------------------------------------------

----------------------------------------------------------------
 SSR: 2SI-2SA-REKS(2,2) states
                    E_n       C_{PPS}    C_{OSS}
 SSR state  1  -16.48997551  -0.998414  -0.056299
 SSR state  2  -16.34880086   0.056299  -0.998414
----------------------------------------------------------------

 unrelaxed SSR FONs for S0:  1.996810  0.003190

Total Energy:                      -16.4899755143 H         -448.7151 eV
Extrapolated to 0:                 -16.4899755143 H         -448.7151 eV

----------------------------------------------------------------------------------
 Solving CP-REKS equation for  1 state vector...
----------------------------------------------------------------------------------
  CG solver: Constructing Y initial guess
  CG solver: Iteration    1    eps =    0.000126139678
  CG solver: Iteration    2    eps =    0.000008768334
  CG solver: Iteration    3    eps =    0.000005731107
  CG solver: Iteration    4    eps =    0.000000807441
  CG solver: Iteration    5    eps =    0.000000172507
  CG solver: Iteration    6    eps =    0.000000080283
  CG solver: Iteration    7    eps =    0.000000016393
  CG solver: Iteration    8    eps =    0.000000007216
  Convergence reached in CG solver after    8 iterations
  CG solver: Calculating converged R, Z, Q2 matrix
----------------------------------------------------------------------------------

----------------------------------------------------------------------------------
 Solving CP-REKS equation for SI between  1 and  2 state vectors...
----------------------------------------------------------------------------------
  CG solver: Constructing Y initial guess
  CG solver: Iteration    1    eps =    0.060710872580
  CG solver: Iteration    2    eps =    0.003773345707
  CG solver: Iteration    3    eps =    0.001384005449
  CG solver: Iteration    4    eps =    0.000326350963
  CG solver: Iteration    5    eps =    0.000069873493
  CG solver: Iteration    6    eps =    0.000017662072
  CG solver: Iteration    7    eps =    0.000004100752
  CG solver: Iteration    8    eps =    0.000000803052
  CG solver: Iteration    9    eps =    0.000000159320
  CG solver: Iteration   10    eps =    0.000000005662
  Convergence reached in CG solver after   10 iterations
  CG solver: Calculating converged R, Z, Q2 matrix
----------------------------------------------------------------------------------

--------------------------------------------------
 Gradient Information
--------------------------------------------------
           1 st state (SSR)
     0.00542443    -0.00760951    -0.08046147
    -0.03276988    -0.02268040     0.05068028
    -0.00685290    -0.00547437     0.02564356
     0.01589226     0.02347004    -0.00260747
    -0.01247434    -0.02543931     0.00895174
    -0.01631473     0.01602103     0.02802997
     0.08769293     0.04667285    -0.04434120
    -0.00500344     0.00455103    -0.00433835
    -0.02296219    -0.01615373     0.03367592
     0.03023383    -0.03277570     0.03585676
    -0.05566793     0.02263896    -0.02929158
    -0.02198864    -0.01057083    -0.03921995
    -0.00298403     0.00740543     0.03679149
     0.03777463    -0.00005549    -0.01936970

           2 st state (SSR)
    -0.00403063    -0.00700613    -0.11626066
    -0.04851976    -0.03733229     0.10199889
    -0.00399393    -0.00984559     0.02591776
     0.01412318     0.02639420    -0.00348408
    -0.00703526    -0.02759719     0.00893946
     0.04843400     0.05800666     0.02541726
     0.03578403     0.02112128    -0.05565012
    -0.00261543     0.00185275    -0.00538141
    -0.02184613    -0.01634187     0.03810544
     0.13553681    -0.01200031     0.06315789
    -0.05461533     0.01140980    -0.02300113
    -0.13191532    -0.01494566    -0.07895415
    -0.00149117     0.00850807     0.04077321
     0.04218495    -0.00222372    -0.02157836
--------------------------------------------------
 Coupling Information
--------------------------------------------------
 between  1 and  2 states
--------------------------------------------------
 g vector - difference gradient
     0.00451580    -0.00038025     0.01786082
     0.00866805     0.00759759    -0.02654720
    -0.00146922     0.00215418    -0.00014685
     0.00084779    -0.00144870     0.00042488
    -0.00277295     0.00103675     0.00005910
    -0.04101742    -0.02332079     0.00185039
     0.03548650     0.01483318     0.00909798
    -0.00137463     0.00165823     0.00067927
    -0.00010070    -0.00075050    -0.00220219
    -0.04832428    -0.00792170    -0.01548441
    -0.00065977     0.00407638    -0.00262200
     0.04891579     0.00195840     0.01793339
    -0.00065974    -0.00052177    -0.00185398
    -0.00205522     0.00102900     0.00095081

 h vector - derivative coupling
     0.00213808     0.00067737     0.00135202
    -0.00656615    -0.00198797     0.00640118
     0.00027063     0.00040109     0.00007844
     0.00037474    -0.00020078     0.00014336
     0.00031872     0.00043374    -0.00046769
     0.07456957     0.01939300    -0.00473500
    -0.08278930    -0.01746469    -0.03011810
     0.00152915    -0.00265593    -0.00136480
    -0.00407377     0.00747036    -0.00023602
    -0.04121671    -0.02238247     0.01543946
     0.00115005     0.01391262    -0.00480209
     0.05655298     0.00214762     0.01821216
    -0.00080835    -0.00029226    -0.00132214
    -0.00144963     0.00054830     0.00141923

 G vector - GDV
     0.00472753    -0.00030169     0.01789959
     0.00787494     0.00732594    -0.02565930
    -0.00142949     0.00218561    -0.00013710
     0.00088454    -0.00146208     0.00043830
    -0.00271954     0.00107894     0.00000614
    -0.03237437    -0.02099282     0.00130635
     0.02595445     0.01277579     0.00565446
    -0.00119401     0.00134914     0.00052153
    -0.00055803     0.00009407    -0.00221476
    -0.05265149    -0.01038770    -0.01365057
    -0.00052630     0.00561458    -0.00314522
     0.05496334     0.00218742     0.01986710
    -0.00074643    -0.00055132    -0.00199086
    -0.00220516     0.00108411     0.00110433

 H vector - DCV - non-adiabatic coupling
     0.01145292     0.00507046    -0.00470655
    -0.05311844    -0.02004245     0.06619469
     0.00307480     0.00110769     0.00066906
     0.00196253    -0.00025957     0.00067072
     0.00445142     0.00222734    -0.00333894
     0.55752220     0.15506865    -0.03480091
    -0.61097264    -0.13473745    -0.21923178
     0.01185757    -0.02001429    -0.01014710
    -0.02859316     0.05317793     0.00009241
    -0.25162349    -0.15123135     0.12100138
     0.00862006     0.09467823    -0.03171172
     0.35909717     0.01355660     0.11390615
    -0.00516426    -0.00164161    -0.00782955
    -0.00856668     0.00303981     0.00923213
--------------------------------------------------


--------------------------------------------------------------------------------
DFTB+ running times                          cpu [s]             wall clock [s]
--------------------------------------------------------------------------------
SCC                                    +     0.07  ( 24.7%)      0.08  ( 24.5%)
      Dense to sparse                        0.01  (  4.8%)      0.01  (  2.3%)
Post-SCC processing                    +     0.22  ( 74.6%)      0.23  ( 73.9%)
  Force calculation                          0.22  ( 74.5%)      0.22  ( 73.5%)
--------------------------------------------------------------------------------
Missing                                +     0.00  (  0.7%)      0.00  (  1.6%)
Total                                  =     0.30  (100.0%)      0.31  (100.0%)
--------------------------------------------------------------------------------
