     6
  Step:   300            Position(A)                                  Velocity(au)
C        -0.04050374     0.01025147     0.02004608     0.00000211    -0.00002243    -0.00017061
N        -0.03811243    -0.05155998     1.29715145    -0.00000707    -0.00001559     0.00011539
H         0.27174449     0.94360422    -0.43766021     0.00003924     0.00039480     0.00065533
H         0.01272928    -0.95522676     1.76328986     0.00005233    -0.00008136    -0.00018767
H        -0.15046246     0.80344024     1.84794019     0.00008670     0.00042671    -0.00024042
H        -0.33467940    -0.86726533    -0.54607838    -0.00010521    -0.00025614     0.00020224
