     6
  Step:   120            Position(A)                                  Velocity(au)
C        -0.03263362     0.00091370    -0.02646030     0.00003213    -0.00004155    -0.00010606
N        -0.05246753    -0.07852582     1.35351351    -0.00002231     0.00005692    -0.00002180
H         0.86780613     0.40505735    -0.61973488    -0.00031960     0.00153067     0.00065438
H         0.82343988    -0.33181522     1.84990955    -0.00077852    -0.00148383     0.00012239
H        -0.82502088     0.43866743     1.86888865     0.00093041     0.00103982     0.00024990
H        -0.96119841    -0.10135526    -0.70061563     0.00009481    -0.00138247     0.00054001
