|===============================================================================
|
|  DFTB+ release 20.1
|
|  Copyright (C) 2006 - 2020  DFTB+ developers group
|
|===============================================================================
|
|  When publishing results obtained with DFTB+, please cite the following
|  reference:
|
|  * DFTB+, a software package for efficient approximate density functional
|    theory based atomistic simulations, J. Chem. Phys. 152, 124101 (2020).
|    [doi: 10.1063/1.5143190]
|
|  You should also cite additional publications crediting the parametrization
|  data you use. Please consult the documentation of the SK-files for the
|  references.
|
|===============================================================================

Reading input file 'dftb_in.hsd'
Parser version: 8

--------------------------------------------------------------------------------
Reading SK-files:
Done.


Processed input in HSD format written to 'dftb_pin.hsd'

Starting initialization...
--------------------------------------------------------------------------------
OpenMP threads:              1
Chosen random seed:          452515955
Mode:                        Static calculation
Self consistent charges:     Yes
SCC-tolerance:                 0.100000E-05
Max. scc iterations:                   1000
Shell resolved Hubbard:      No
Spin polarisation:           No
Nr. of up electrons:             6.000000
Nr. of down electrons:           6.000000
Periodic boundaries:         No
Electronic solver:           Relatively robust
Maximal SCC-cycles:                    1000
Initial charges:             Set automatically (system chrg:   0.100E+01)
Included shells:             C:  s, p
                             N:  s, p
                             H:  s
Spin coupling constants:     C   1(s)-1(s):  -0.455900E-01
                             C   1(s)-2(p):  -0.293000E-01
                             C   2(p)-1(s):  -0.293000E-01
                             C   2(p)-2(p):  -0.275500E-01
                             N   1(s)-1(s):  -0.468700E-01
                             N   1(s)-2(p):  -0.317000E-01
                             N   2(p)-1(s):  -0.317000E-01
                             N   2(p)-2(p):  -0.307200E-01
                             H   1(s)-1(s):  -0.792500E-01
Range separated hybrid:      Yes
  Screening parameter omega:   0.300000E+00
  Range separated algorithm:   MatrixBased
Extra options:
                             Mulliken analysis
                             Force calculation
Force type                   original
                             Eigenvector printing


REKS Calcuation:             Yes
SSR(2,2) Calcuation:         Yes
Energy Functional:           (PPS+OSS)/2
Number of Core Orbitals:                  5
Number of Active Orbitals:                2
Number of Basis:                         12
Number of States:                         2
State-Averaging Weight:          0.500000
                                 0.500000
State of Interest:                        1
Initial Guess:               Diagonalize H0 matrix
Newton-Raphson for FON opt:  Yes
NR max. Iterations:                      50
Level Shifting:              Yes
Shift Value:                     0.300000
W Scale Factor:              C  =    3.200000
                             N  =    3.200000
                             H  =    3.200000
Transition Dipole:           No
Gradient of Microstate:      No
CP-REKS Solver:              Preconditioned Conjugate-Gradient
CG max. Iterations:                     100
CG Tolerance:                  0.100000E-07
Memory for A and Hxc:        Direct Updating Without Saving
Non-Adiabatic Coupling:      Yes

--------------------------------------------------------------------------------

***  Geometry step: 0

  iSCC       reks energy        Diff energy         x_a       SCC error   
    1       -6.1053085255       0.0000000000     0.998660    0.93823303
    2       -6.1111704436      -0.0058619180     0.999417    0.04319780
    3       -6.1136119122      -0.0024414686     0.999662    0.02438822
    4       -6.1147599994      -0.0011480872     0.999763    0.01584614
    5       -6.1153281122      -0.0005681127     0.999810    0.00995044
    6       -6.1156223497      -0.0002942375     0.999835    0.00605012
    7       -6.1157821567      -0.0001598069     0.999849    0.00353792
    8       -6.1158732436      -0.0000910869     0.999857    0.00276218
    9       -6.1159276196      -0.0000543760     0.999862    0.00224287
   10       -6.1159614690      -0.0000338494     0.999865    0.00197878
   11       -6.1159833174      -0.0000218484     0.999867    0.00172158
   12       -6.1159978525      -0.0000145351     0.999868    0.00148485
   13       -6.1160077637      -0.0000099112     0.999868    0.00127383
   14       -6.1160146573      -0.0000068937     0.999869    0.00108929
   15       -6.1160195288      -0.0000048715     0.999869    0.00092974
   16       -6.1160230152      -0.0000034864     0.999869    0.00079276
   17       -6.1160255359      -0.0000025207     0.999869    0.00067565
   18       -6.1160273734      -0.0000018375     0.999868    0.00057579
   19       -6.1160287220      -0.0000013485     0.999868    0.00049076
   20       -6.1160297172      -0.0000009952     0.999868    0.00041840
   21       -6.1160304550      -0.0000007378     0.999868    0.00035685
   22       -6.1160310041      -0.0000005491     0.999868    0.00030450
   23       -6.1160314142      -0.0000004101     0.999867    0.00025996
   24       -6.1160317212      -0.0000003071     0.999867    0.00022206
   25       -6.1160319518      -0.0000002305     0.999867    0.00018980
   26       -6.1160321252      -0.0000001734     0.999867    0.00016232
   27       -6.1160322559      -0.0000001307     0.999867    0.00013891
   28       -6.1160323546      -0.0000000987     0.999867    0.00012053
   29       -6.1160324292      -0.0000000746     0.999867    0.00010484
   30       -6.1160324857      -0.0000000565     0.999867    0.00009120
   31       -6.1160325285      -0.0000000428     0.999866    0.00007936
   32       -6.1160325610      -0.0000000325     0.999866    0.00006906
   33       -6.1160325856      -0.0000000247     0.999866    0.00006011
   34       -6.1160326044      -0.0000000187     0.999866    0.00005234
   35       -6.1160326186      -0.0000000143     0.999866    0.00004557
   36       -6.1160326295      -0.0000000108     0.999866    0.00003969
   37       -6.1160326377      -0.0000000083     0.999866    0.00003457
   38       -6.1160326440      -0.0000000063     0.999866    0.00003012
   39       -6.1160326488      -0.0000000048     0.999866    0.00002625
   40       -6.1160326525      -0.0000000037     0.999866    0.00002288
   41       -6.1160326552      -0.0000000028     0.999866    0.00001994
   42       -6.1160326574      -0.0000000021     0.999866    0.00001739
   43       -6.1160326590      -0.0000000016     0.999866    0.00001516
   44       -6.1160326602      -0.0000000012     0.999866    0.00001322
   45       -6.1160326612      -0.0000000009     0.999866    0.00001153
   46       -6.1160326619      -0.0000000007     0.999866    0.00001006
   47       -6.1160326624      -0.0000000006     0.999866    0.00000878
   48       -6.1160326629      -0.0000000004     0.999866    0.00000766
   49       -6.1160326632      -0.0000000003     0.999866    0.00000668
   50       -6.1160326634      -0.0000000002     0.999866    0.00000583
   51       -6.1160326636      -0.0000000002     0.999866    0.00000509
   52       -6.1160326638      -0.0000000001     0.999866    0.00000445
   53       -6.1160326639      -0.0000000001     0.999866    0.00000388
   54       -6.1160326640      -0.0000000001     0.999866    0.00000339
   55       -6.1160326640      -0.0000000001     0.999866    0.00000296
   56       -6.1160326641      -0.0000000000     0.999866    0.00000258
   57       -6.1160326641      -0.0000000000     0.999866    0.00000226
   58       -6.1160326641      -0.0000000000     0.999866    0.00000197
   59       -6.1160326642      -0.0000000000     0.999866    0.00000172
   60       -6.1160326642      -0.0000000000     0.999866    0.00000150
   61       -6.1160326642      -0.0000000000     0.999866    0.00000131
   62       -6.1160326642      -0.0000000000     0.999866    0.00000115
   63       -6.1160326642      -0.0000000000     0.999866    0.00000100
   64       -6.1160326642      -0.0000000000     0.999866    0.00000088
  
--------------------------------------------------
 Final SA-REKS(2,2) energy:      -6.11603266
  
 State     Energy      FON(1)    FON(2)   Spin
  PPS   -6.19248399   1.999732  0.000268  0.00
  OSS   -6.03958134   1.000000  1.000000  0.00
 Trip   -6.10843935   1.000000  1.000000  1.00
--------------------------------------------------

 Lagrangian Wab:  -0.00258361 -0.00258344

--------------------------------------------------
 SSR: 2SI-2SA-REKS(2,2) Hamiltonian matrix
               PPS           OSS
   PPS    -6.19248399   -0.00361121
   OSS    -0.00361121   -6.03958134
--------------------------------------------------

----------------------------------------------------------------
 SSR: 2SI-2SA-REKS(2,2) states
                    E_n       C_{PPS}    C_{OSS}
 SSR state  1   -6.19256923  -0.999722  -0.023598
 SSR state  2   -6.03949610   0.023598  -0.999722
----------------------------------------------------------------

 unrelaxed SSR FONs for S0:  1.999175  0.000825

Total Energy:                       -6.1925692328 H         -168.5084 eV
Extrapolated to 0:                  -6.1925692328 H         -168.5084 eV

----------------------------------------------------------------------------------
 Solving CP-REKS equation for  1 state vector...
----------------------------------------------------------------------------------
  CG solver: Constructing Y initial guess
  CG solver: Iteration    1    eps =    0.000169489982
  CG solver: Iteration    2    eps =    0.000023787827
  CG solver: Iteration    3    eps =    0.000006701987
  CG solver: Iteration    4    eps =    0.000001763042
  CG solver: Iteration    5    eps =    0.000000107093
  CG solver: Iteration    6    eps =    0.000000037366
  CG solver: Iteration    7    eps =    0.000000006185
  Convergence reached in CG solver after    7 iterations
  CG solver: Calculating converged R, Z, Q2 matrix
----------------------------------------------------------------------------------

----------------------------------------------------------------------------------
 Solving CP-REKS equation for SI between  1 and  2 state vectors...
----------------------------------------------------------------------------------
  CG solver: Constructing Y initial guess
  CG solver: Iteration    1    eps =    0.002056768065
  CG solver: Iteration    2    eps =    0.002123060644
  CG solver: Iteration    3    eps =    0.000322949496
  CG solver: Iteration    4    eps =    0.000042959611
  CG solver: Iteration    5    eps =    0.000005276521
  CG solver: Iteration    6    eps =    0.000001813094
  CG solver: Iteration    7    eps =    0.000000189749
  CG solver: Iteration    8    eps =    0.000000005981
  Convergence reached in CG solver after    8 iterations
  CG solver: Calculating converged R, Z, Q2 matrix
----------------------------------------------------------------------------------

--------------------------------------------------
 Gradient Information
--------------------------------------------------
           1 st state (SSR)
     0.02970207    -0.14401194    -0.11516597
    -0.04887317     0.03406882     0.01595813
    -0.03929363     0.10670083    -0.00316427
     0.02566598    -0.02855991     0.08779690
     0.01295343     0.05382301     0.05409264
     0.01984533    -0.02202080    -0.03951743

           2 st state (SSR)
    -0.00260126    -0.02658093    -0.08929107
    -0.01258909    -0.00932082    -0.00988469
    -0.01748516     0.05260032    -0.00332069
     0.02319487    -0.02853935     0.07678328
    -0.00598072     0.05473498     0.04728591
     0.01546136    -0.04289420    -0.02157273
--------------------------------------------------
 Coupling Information
--------------------------------------------------
 between  1 and  2 states
--------------------------------------------------
 g vector - difference gradient
     0.01704389    -0.05804700    -0.01320543
    -0.01876408     0.02147001     0.01298559
    -0.01136103     0.02667407     0.00010372
     0.00103460    -0.00009581     0.00569935
     0.01005142    -0.00033001     0.00337839
     0.00199520     0.01032874    -0.00896162

 h vector - derivative coupling
    -0.01850772    -0.01553850     0.00536806
     0.01274068     0.00527141    -0.00105384
     0.00941312     0.00860253    -0.00053832
     0.00428357     0.00181045    -0.00394620
    -0.01214747    -0.00267777     0.00060919
     0.00421781     0.00253187    -0.00043888

 G vector - GDV
     0.01615167    -0.05871551    -0.01293745
    -0.01814204     0.02169482     0.01292141
    -0.01090423     0.02705026     0.00007821
     0.00123555    -0.00001028     0.00550681
     0.00946707    -0.00045599     0.00340337
     0.00219198     0.01043670    -0.00897235

 H vector - DCV - non-adiabatic coupling
    -0.12602657    -0.08350501     0.03909996
     0.08892373     0.02778102    -0.01087954
     0.06492770     0.04791431    -0.00354483
     0.02763372     0.01184373    -0.02750789
    -0.08236714    -0.01737219     0.00293395
     0.02690856     0.01333815    -0.00010165
--------------------------------------------------


--------------------------------------------------------------------------------
DFTB+ running times                          cpu [s]             wall clock [s]
--------------------------------------------------------------------------------
SCC                                    +     0.02  ( 70.2%)      0.03  ( 65.0%)
Post-SCC processing                    +     0.01  ( 26.9%)      0.01  ( 25.0%)
--------------------------------------------------------------------------------
Missing                                +     0.00  (  2.9%)      0.00  ( 10.0%)
Total                                  =     0.03  (100.0%)      0.04  (100.0%)
--------------------------------------------------------------------------------
