 Fermi distribution function

Calculation with static geometry


********************************************************************************
 iSCC Total electronic   Diff electronic      SCC error    
   11   -0.53712169E+01   -0.70432549E-12    0.10036127E-06
********************************************************************************

 Total charge:     1.00000000

 Atomic gross charges (e)
 Atom           Charge
    1       0.29790732
    2      -0.18545684
    3       0.15544376
    4       0.26709388
    5       0.30442182
    6       0.16059006

Nr. of electrons (up):     12.00000000
Atom populations (up)
 Atom       Population
    1       3.70209268
    2       5.18545684
    3       0.84455624
    4       0.73290612
    5       0.69557818
    6       0.83940994

l-shell populations (up)
 Atom Sh.   l       Population
    1   1   0       1.31208805
    1   2   1       2.39000463
    2   1   0       1.43595993
    2   2   1       3.74949691
    3   1   0       0.84455624
    4   1   0       0.73290612
    5   1   0       0.69557818
    6   1   0       0.83940994

Orbital populations (up)
 Atom Sh.   l   m       Population  Label
    1   1   0   0       1.31208805  s
    1   2   1  -1       0.51788671  p_y
    1   2   1   0       0.89309799  p_z
    1   2   1   1       0.97901994  p_x
    2   1   0   0       1.43595993  s
    2   2   1  -1       1.32425319  p_y
    2   2   1   0       1.09822895  p_z
    2   2   1   1       1.32701478  p_x
    3   1   0   0       0.84455624  s
    4   1   0   0       0.73290612  s
    5   1   0   0       0.69557818  s
    6   1   0   0       0.83940994  s

Fermi level:                        -0.4937573296 H          -13.4358 eV
Band energy:                        -8.8494309386 H         -240.8053 eV
TS:                                  0.0000000000 H            0.0000 eV
Band free energy (E-TS):            -8.8494309386 H         -240.8053 eV
Extrapolated E(0K):                 -8.8494309386 H         -240.8053 eV
Input / Output electrons (q):     12.0000000000     12.0000000000

Energy H0:                          -5.5062416360 H         -149.8325 eV
Energy SCC:                          0.1350247578 H            3.6742 eV
Total Electronic energy:            -5.3712168782 H         -146.1582 eV
Repulsive energy:                    0.1824163002 H            4.9638 eV
Total energy:                       -5.1888005780 H         -141.1944 eV
Extrapolated to 0:                  -5.1888005780 H         -141.1944 eV
Total Mermin free energy:           -5.1888005780 H         -141.1944 eV
Force related energy:               -5.1888005780 H         -141.1944 eV

SCC converged

Excitation Energy:                   0.0975290390 H            2.6539 eV

Total Forces
    1      0.014563503999      0.004748075710      0.032154817064
    2     -0.013534850552      0.018282132601     -0.034351917862
    3     -0.007386929081      0.008342076341     -0.000795280155
    4     -0.005188327833     -0.016888072254     -0.001695177279
    5      0.011671112692      0.001893150602      0.002008495493
    6     -0.000124509224     -0.016377362999      0.002679062740

Maximal derivative component:        0.343519E-01 au


