    14
  Step:     0            Position(A)                                  Velocity(au)
C        -6.04349625    -0.84846623    -0.13426586     0.00007594    -0.00032184     0.00014061
C        -4.75495632    -0.69342968     0.21449080     0.00003395     0.00011355     0.00011935
H        -6.57971011    -0.03856406    -0.60806007     0.00042208     0.00062173     0.00084944
H        -6.59905705    -1.67892840     0.15684155    -0.00050990     0.00062089    -0.00095965
H        -4.15652333    -1.50384683     0.63966104    -0.00002595     0.00055148    -0.00016556
C        -3.92681448     0.47068455    -0.07689997    -0.00008432    -0.00007469    -0.00007212
C        -2.52582431     0.53010211     0.17406591    -0.00022829     0.00031310    -0.00033400
H        -4.40491668     1.21320688    -0.66600748     0.00002146     0.00040755    -0.00044727
H        -2.05855444    -0.32202960     0.73151996     0.00081503    -0.00139267    -0.00041322
C        -1.79543822     1.68322143    -0.13403665     0.00052807     0.00028386     0.00022869
H        -2.17337193     2.55721935    -0.71988248    -0.00064558    -0.00117934    -0.00072824
N        -0.50087481     1.80263139     0.27297936    -0.00021876    -0.00027377    -0.00008265
H         0.02935154     2.70404341     0.19479097    -0.00028888    -0.00036713     0.00065818
H        -0.11071962     1.05030688     0.97488216    -0.00062516     0.00080055     0.00137146
    14
  Step:     1            Position(A)                                  Velocity(au)
C        -6.04281744    -0.85183793    -0.13278471     0.00004896    -0.00029097     0.00012896
C        -4.75410671    -0.69207278     0.21581904     0.00011997     0.00013439     0.00012327
H        -6.57534708    -0.03156345    -0.59906646     0.00037801     0.00065005     0.00079835
H        -6.60577192    -1.67412727     0.14671950    -0.00072822     0.00023133    -0.00088290
H        -4.15740861    -1.49811445     0.63827977    -0.00012420     0.00048226    -0.00007840
C        -3.92812405     0.46961768    -0.07772851    -0.00015586    -0.00011743    -0.00008100
C        -2.52810477     0.53356574     0.17049835    -0.00018543     0.00031659    -0.00031599
H        -4.40498326     1.21904403    -0.67137124    -0.00002409     0.00063638    -0.00051914
H        -2.04986784    -0.33630594     0.72638154     0.00075029    -0.00118055    -0.00054834
C        -1.78964716     1.68634657    -0.13155436     0.00052527     0.00028506     0.00022412
H        -2.18046299     2.54322600    -0.72723410    -0.00064217    -0.00136092    -0.00061771
N        -0.50308356     1.79955341     0.27224336    -0.00018260    -0.00028823    -0.00005078
H         0.02529224     2.69852841     0.20209385    -0.00044577    -0.00062707     0.00067217
H        -0.11869861     1.06170272     0.98749916    -0.00083170     0.00126965     0.00093620
    14
  Step:     2            Position(A)                                  Velocity(au)
C        -6.04242506    -0.85483168    -0.13144456     0.00002296    -0.00025455     0.00011561
C        -4.75233182    -0.69048970     0.21718751     0.00020210     0.00015469     0.00012655
H        -6.57144037    -0.02434307    -0.59059460     0.00033883     0.00066100     0.00075459
H        -6.61498829    -1.67386766     0.13752633    -0.00095226    -0.00018628    -0.00079769
H        -4.15924036    -1.49329647     0.63794597    -0.00019798     0.00038558     0.00002543
C        -3.93022422     0.46811563    -0.07867207    -0.00022860    -0.00015373    -0.00009341
C        -2.52988095     0.53702818     0.16715297    -0.00013664     0.00031385    -0.00029404
H        -4.40544361     1.22712888    -0.67736456    -0.00004854     0.00081262    -0.00055866
H        -2.04214040    -0.34785640     0.71952387     0.00064539    -0.00090483    -0.00072024
C        -1.78394690     1.68945768    -0.12913370     0.00051155     0.00028081     0.00021775
H        -2.18742067     2.52744665    -0.73339616    -0.00062307    -0.00150122    -0.00051428
N        -0.50486952     1.79632583     0.27186835    -0.00014261    -0.00030085    -0.00001770
H         0.01959947     2.69032495     0.20949599    -0.00057998    -0.00084638     0.00067509
H        -0.12891470     1.07808294     0.99536330    -0.00102580     0.00169592     0.00051821
    14
  Step:     3            Position(A)                                  Velocity(au)
C        -6.04231522    -0.85740663    -0.13025546    -0.00000342    -0.00021629     0.00010209
C        -4.74968537    -0.68868855     0.21858764     0.00027850     0.00017398     0.00012898
H        -6.56793442    -0.01710271    -0.58255832     0.00030446     0.00065350     0.00071875
H        -6.62660446    -1.67820256     0.12926853    -0.00115137    -0.00058554    -0.00071896
H        -4.16173974    -1.48967906     0.63883600    -0.00024637     0.00026533     0.00014404
C        -3.93312519     0.46625448    -0.07977193    -0.00030187    -0.00018284    -0.00010962
C        -2.53109400     0.54043190     0.16406567    -0.00008302     0.00030677    -0.00026939
H        -4.40604525     1.23682166    -0.68359290    -0.00004993     0.00092767    -0.00056087
H        -2.03574865    -0.35610090     0.71062496     0.00051156    -0.00058601    -0.00091497
C        -1.77845609     1.69248986    -0.12679073     0.00048724     0.00027026     0.00021024
H        -2.19409378     2.51038388    -0.73848492    -0.00059214    -0.00159180    -0.00042472
N        -0.50620341     1.79297182     0.27185616    -0.00010121    -0.00031094     0.00001426
H         0.01260414     2.68001214     0.21686266    -0.00067707    -0.00100155     0.00066478
H        -0.14114006     1.09880418     0.99883595    -0.00119011     0.00204646     0.00015163
    14
  Step:     4            Position(A)                                  Velocity(au)
C        -6.04249984    -0.85956345    -0.12921119    -0.00003146    -0.00017968     0.00008969
C        -4.74623912    -0.68668355     0.22000915     0.00034777     0.00019162     0.00013047
H        -6.56477975    -0.01004649    -0.57487048     0.00027397     0.00062776     0.00069048
H        -6.64017675    -1.68667753     0.12179765    -0.00129719    -0.00092476    -0.00065860
H        -4.16463017    -1.48749197     0.64109722    -0.00027075     0.00012794     0.00027398
C        -3.93682821     0.46411561    -0.08107028    -0.00037472    -0.00020451    -0.00012955
C        -2.53169711     0.54373928     0.16125949    -0.00002571     0.00029704    -0.00024316
H        -4.40653594     1.24742343    -0.68963459    -0.00002988     0.00097889    -0.00052535
H        -2.03094895    -0.36067644     0.69950706     0.00035954    -0.00024329    -0.00112000
C        -1.77328769     1.69537004    -0.12453436     0.00045307     0.00025282     0.00020222
H        -2.20037495     2.49262290    -0.74268777    -0.00055335    -0.00162633    -0.00035495
N        -0.50708371     1.78952349     0.27218027    -0.00006100    -0.00031748     0.00004222
H         0.00478721     2.66841402     0.22403923    -0.00072479    -0.00107245     0.00063981
H        -0.15495069     1.12285316     0.99868050    -0.00130622     0.00228670    -0.00012392
    14
  Step:     5            Position(A)                                  Velocity(au)
C        -6.04300351    -0.86133757    -0.12829322    -0.00006202    -0.00014734     0.00007931
C        -4.74207715    -0.68449646     0.22144195     0.00040904     0.00020685     0.00013114
H        -6.56194078    -0.00336923    -0.56745276     0.00024589     0.00058516     0.00066865
H        -6.65498295    -1.69843343     0.11486030    -0.00136955    -0.00117455    -0.00062332
H        -4.16766298    -1.48688002     0.64482979    -0.00027467    -0.00001767     0.00041024
C        -3.94132283     0.46178035    -0.08260618    -0.00044592    -0.00021892    -0.00015277
C        -2.53165652     0.54693032     0.15874608     0.00003395     0.00028619    -0.00021633
H        -4.40669901     1.25823672    -0.69508596     0.00000722     0.00096864    -0.00045534
H        -2.02788293    -0.36142327     0.68612287     0.00019969     0.00010515    -0.00132388
C        -1.76854439     1.69802077    -0.12236685     0.00041015     0.00022833     0.00019422
H        -2.20619941     2.47480481    -0.74625009    -0.00051023    -0.00160130    -0.00030935
N        -0.50753800     1.78602624     0.27277985    -0.00002455    -0.00031910     0.00006293
H        -0.00325195     2.65655034     0.23085974    -0.00071474    -0.00104517     0.00059959
H        -0.16971620     1.14883004     0.99612496    -0.00135587     0.00238261    -0.00026492
    14
  Step:     6            Position(A)                                  Velocity(au)
C        -6.04385669    -0.86278690    -0.12747614    -0.00009529    -0.00012074     0.00007134
C        -4.73729049    -0.68215829     0.22287807     0.00046188     0.00021876     0.00013125
H        -6.55940053     0.00275503    -0.56024258     0.00021840     0.00052800     0.00065158
H        -6.67013838    -1.71237308     0.10816132    -0.00135930    -0.00132085    -0.00061443
H        -4.17063909    -1.48787853     0.65007202    -0.00026328    -0.00016084     0.00054675
C        -3.94658364     0.45932640    -0.08441238    -0.00051394    -0.00022647    -0.00017859
C        -2.53095440     0.55000019     0.15652689     0.00009426     0.00027546    -0.00018982
H        -4.40637797     1.26861437    -0.69959603     0.00005524     0.00090315    -0.00035658
H        -2.02658032    -0.35837619     0.67054476     0.00004236     0.00044142    -0.00151578
C        -1.76431492     1.70036518    -0.12028541     0.00035986     0.00019712     0.00018658
H        -2.21153722     2.45759149    -0.74945533    -0.00046538    -0.00151666    -0.00029016
N        -0.50762070     1.78254262     0.27355694     0.00000614    -0.00031424     0.00007322
H        -0.01084908     2.64554886     0.23715641    -0.00064449    -0.00091564     0.00054447
H        -0.18461284     1.17497733     0.99288496    -0.00132440     0.00230745    -0.00023079
    14
  Step:     7            Position(A)                                  Velocity(au)
C        -6.04508813    -0.86397904    -0.12673251    -0.00013079    -0.00010029     0.00006582
C        -4.73197255    -0.67971068     0.22431321     0.00050618     0.00022633     0.00013117
H        -6.55716293     0.00818168    -0.55319812     0.00018953     0.00045928     0.00063735
H        -6.68472023    -1.72732962     0.10141855    -0.00126771    -0.00136355    -0.00062911
H        -4.17342282    -1.49039871     0.65679093    -0.00024260    -0.00029018     0.00067694
C        -3.95256627     0.45682596    -0.08651309    -0.00057684    -0.00022766    -0.00020617
C        -2.52959432     0.55295662     0.15459351     0.00015295     0.00026592    -0.00016453
H        -4.40549051     1.27799492    -0.70288678     0.00010723     0.00079116    -0.00023623
H        -2.02695628    -0.35176631     0.65296239    -0.00010160     0.00074697    -0.00168502
C        -1.76067180     1.70233323    -0.11828502     0.00030375     0.00016014     0.00017937
H        -2.21638057     2.44162492    -0.75259783    -0.00042012    -0.00137618    -0.00029696
N        -0.50740371     1.77915173     0.27438168     0.00003019    -0.00030178     0.00007103
H        -0.01735130     2.63651887     0.24277113    -0.00051916    -0.00069253     0.00047581
H        -0.19869003     1.19930998     0.99107603    -0.00120661     0.00205264     0.00000271
    14
  Step:     8            Position(A)                                  Velocity(au)
C        -6.04671805    -0.86498086    -0.12603611    -0.00016754    -0.00008562     0.00006258
C        -4.72621679    -0.67720697     0.22574772     0.00054190     0.00022845     0.00013134
H        -6.55525427     0.01280269    -0.54629941     0.00015727     0.00038260     0.00062404
H        -6.69787190    -1.74220333     0.09439839    -0.00110377    -0.00131260    -0.00066224
H        -4.17594637    -1.49422687     0.66488147    -0.00021847    -0.00039488     0.00079461
C        -3.95920309     0.45434591    -0.08892276    -0.00063232    -0.00022293    -0.00023461
C        -2.52760842     0.55581777     0.15292738     0.00020711     0.00025848    -0.00014144
H        -4.40403202     1.28592241    -0.70476395     0.00015615     0.00064296    -0.00010213
H        -2.02880307    -0.34203472     0.63368171    -0.00022054     0.00100186    -0.00182083
C        -1.75766973     1.70386859    -0.11636138     0.00024340     0.00011890     0.00017234
H        -2.22072812     2.42748503    -0.75595183    -0.00037411    -0.00118739    -0.00032637
N        -0.50696031     1.77594059     0.27511091     0.00004845    -0.00028176     0.00005663
H        -0.02220668     2.63039846     0.24756568    -0.00035184    -0.00039830     0.00039590
H        -0.21100967     1.21988280     0.99294414    -0.00101249     0.00163893     0.00042675
    14
  Step:     9            Position(A)                                  Velocity(au)
C        -6.04875344    -0.86585218    -0.12536352    -0.00020420    -0.00007596     0.00006134
C        -4.72011734    -0.67471289     0.22718661     0.00056890     0.00022403     0.00013216
H        -6.55372227     0.01655173    -0.53954600     0.00011980     0.00030184     0.00060997
H        -6.70886732    -1.75604523     0.08693074    -0.00088081    -0.00118357    -0.00070797
H        -4.17820230    -1.49903756     0.67417461    -0.00019571    -0.00046597     0.00089450
C        -3.96639950     0.45194891    -0.09164565    -0.00067791    -0.00021262    -0.00026299
C        -2.52506329     0.55861126     0.15149926     0.00025352     0.00025401    -0.00012152
H        -4.40207434     1.29206090    -0.70512111     0.00019521     0.00046994     0.00003760
H        -2.03178098    -0.32984880     0.61312817    -0.00030200     0.00118459    -0.00191229
C        -1.75534701     1.70493449    -0.11451484     0.00018022     0.00007538     0.00016493
H        -2.22456496     2.41564852    -0.75973791    -0.00032534    -0.00096118    -0.00037212
N        -0.50634369     1.77298762     0.27562065     0.00006362    -0.00025582     0.00003348
H        -0.02504853     2.62780521     0.25143228    -0.00016208    -0.00006712     0.00030782
H        -0.22084026     1.23516475     1.00041191    -0.00076943     0.00112069     0.00098793
    14
  Step:    10            Position(A)                                  Velocity(au)
C        -6.05118527    -0.86664260    -0.12469413    -0.00023925    -0.00007031     0.00006188
C        -4.71377108    -0.67230598     0.22863900     0.00058682     0.00021208     0.00013395
H        -6.55263345     0.01940602    -0.53295523     0.00007555     0.00022096     0.00059364
H        -6.71714133    -1.76809610     0.07891020    -0.00061395    -0.00099439    -0.00076065
H        -4.18022789    -1.50442081     0.68445040    -0.00017750    -0.00049733     0.00097274
C        -3.97403363     0.44969436    -0.09467613    -0.00071129    -0.00019705    -0.00029043
C        -2.52206216     0.56137475     0.15026880     0.00028896     0.00025347    -0.00010576
H        -4.39976136     1.29620332    -0.70394134     0.00021814     0.00028413     0.00017471
H        -2.03540999    -0.31611963     0.59184666    -0.00033338     0.00127307    -0.00194916
C        -1.75372706     1.70551765    -0.11275313     0.00011554     0.00003177     0.00015644
H        -2.22784563     2.40645745    -0.76409270    -0.00027056    -0.00071063    -0.00042557
N        -0.50556847     1.77034406     0.27584342     0.00007954    -0.00022691     0.00000790
H        -0.02575247     2.62893004     0.25429994     0.00002735     0.00026054     0.00021502
H        -0.22784250     1.24439998     1.01455701    -0.00051712     0.00057670     0.00159289
    14
  Step:    11            Position(A)                                  Velocity(au)
C        -6.05398744    -0.86739034    -0.12400977    -0.00027117    -0.00006763     0.00006398
C        -4.70727945    -0.67007318     0.23011706     0.00059524     0.00019194     0.00013693
H        -6.55206941     0.02138557    -0.52655907     0.00002338     0.00014370     0.00057393
H        -6.72229872    -1.77779949     0.07029005    -0.00031854    -0.00076351    -0.00081535
H        -4.18208549    -1.50991760     0.69545526    -0.00016523    -0.00048620     0.00102711
C        -3.98196023     0.44763808    -0.09799937    -0.00073064    -0.00017662    -0.00031614
C        -2.51874165     0.56415636     0.14918551     0.00031078     0.00025773    -0.00009495
H        -4.39730213     1.29827676    -0.70129906     0.00021934     0.00009794     0.00030077
H        -2.03907424    -0.30199797     0.57048653    -0.00030353     0.00124747    -0.00192352
C        -1.75281936     1.70562954    -0.11109242     0.00005061    -0.00000972     0.00014611
H        -2.23048405     2.40010220    -0.76904804    -0.00020598    -0.00044965    -0.00047681
N        -0.50460349     1.76802353     0.27579349     0.00010006    -0.00019829    -0.00001268
H        -0.02445019     2.63350500     0.25613627     0.00019456     0.00054505     0.00012097
H        -0.23215328     1.24778115     1.03525948    -0.00029605     0.00008882     0.00213243
    14
  Step:    12            Position(A)                                  Velocity(au)
C        -6.05711756    -0.86812222    -0.12329439    -0.00029851    -0.00006688     0.00006747
C        -4.70074905    -0.66810686     0.23163470     0.00059370     0.00016333     0.00014120
H        -6.55212188     0.02254971    -0.52039936    -0.00003736     0.00007335     0.00055013
H        -6.72410999    -1.78479939     0.06107290    -0.00000942    -0.00050905    -0.00086790
H        -4.18384260    -1.51505747     0.70692032    -0.00015861    -0.00043323     0.00105701
C        -3.99001783     0.44583050    -0.10159228    -0.00073485    -0.00015193    -0.00033940
C        -2.51526330     0.56701308     0.14819169     0.00031722     0.00026725    -0.00008947
H        -4.39496292     1.29834591    -0.69736131     0.00019398    -0.00007601     0.00040742
H        -2.04205028    -0.28882889     0.54976602    -0.00020565     0.00109528    -0.00183211
C        -1.75261991     1.70530504    -0.10955676    -0.00001324    -0.00004706     0.00013332
H        -2.23235175     2.39662060    -0.77452385    -0.00012814    -0.00019150    -0.00051597
N        -0.50337949     1.76600603     0.27556612     0.00012775    -0.00017235    -0.00002203
H        -0.02149610     2.64085411     0.25694631     0.00032226     0.00075447     0.00002885
H        -0.23431919     1.24634304     1.06120805    -0.00013554    -0.00028088     0.00251403
    14
  Step:    13            Position(A)                                  Velocity(au)
C        -6.06051796    -0.86885343    -0.12253367    -0.00031996    -0.00006695     0.00007219
C        -4.69429117    -0.66649997     0.23320602     0.00058185     0.00012644     0.00014668
H        -6.55288665     0.02299021    -0.51452399    -0.00010672     0.00001244     0.00052186
H        -6.72250487    -1.78893586     0.05130298     0.00029906    -0.00024888    -0.00091481
H        -4.18555536    -1.51939539     0.71857928    -0.00015603    -0.00034216     0.00106340
C        -3.99803644     0.44431427    -0.10542429    -0.00072350    -0.00012384    -0.00035955
C        -2.51180193     0.57000302     0.14722812     0.00030775     0.00028149    -0.00008911
H        -4.39305842     1.29661399    -0.69238600     0.00013814    -0.00022524     0.00048662
H        -2.04357322    -0.27803657     0.53040570    -0.00004090     0.00081809    -0.00167902
C        -1.75310900     1.70459996    -0.10817581    -0.00007447    -0.00007851     0.00011770
H        -2.23328731     2.39591275    -0.78033582    -0.00003477     0.00005237    -0.00053447
N        -0.50180863     1.76425295     0.27531149     0.00016331    -0.00015004    -0.00001686
H        -0.01740010     2.65001055     0.25676745     0.00040012     0.00086911    -0.00005863
H        -0.23511842     1.24163637     1.09025869    -0.00004758    -0.00050258     0.00268520
    14
  Step:    14            Position(A)                                  Velocity(au)
C        -6.06411730    -0.86958692    -0.12171516    -0.00033433    -0.00006669     0.00007795
C        -4.68801990    -0.66534066     0.23484371     0.00055957     0.00008196     0.00015319
H        -6.55445662     0.02282187    -0.50898264    -0.00018411    -0.00003743     0.00048922
H        -6.71756741    -1.79024423     0.04105971     0.00059295    -0.00000105    -0.00095309
H        -4.18725607    -1.52254298     0.73018416    -0.00015499    -0.00021929     0.00104856
C        -4.00584579     0.44312134    -0.10945817    -0.00069687    -0.00009343    -0.00037603
C        -2.50853061     0.57317119     0.14624213     0.00028325     0.00029840    -0.00009288
H        -4.39194087     1.29341843    -0.68671562     0.00004895    -0.00033802     0.00053115
H        -2.04294506    -0.27093152     0.51303430     0.00017854     0.00043726    -0.00147727
C        -1.75424909     1.70358744    -0.10698194    -0.00013137    -0.00010267     0.00009914
H        -2.23311250     2.39776619    -0.78621651     0.00007471     0.00027310    -0.00052608
N        -0.49980672     1.76272357     0.27519723     0.00020561    -0.00013107     0.00000296
H        -0.01274266     2.65986762     0.25566367     0.00042531     0.00088282    -0.00013935
H        -0.23536017     1.23534824     1.11995200    -0.00002838    -0.00057703     0.00263771
    14
  Step:    15            Position(A)                                  Velocity(au)
C        -6.06783218    -0.87031230    -0.12082846    -0.00034061    -0.00006479     0.00008454
C        -4.68204949    -0.66470684     0.23655745     0.00052700     0.00003107     0.00016038
H        -6.55691447     0.02217142    -0.50382144    -0.00026827    -0.00007573     0.00045271
H        -6.70953296    -1.78895885     0.03045240     0.00085848     0.00021594    -0.00098022
H        -4.18894602    -1.52419284     0.74151864    -0.00015252    -0.00007278     0.00101586
C        -4.01328180     0.44227023    -0.11365074    -0.00065582    -0.00006203    -0.00038835
C        -2.50560527     0.57653116     0.14519624     0.00024588     0.00031439    -0.00009910
H        -4.39198765     1.28921923    -0.68076609    -0.00007505    -0.00040443     0.00053536
H        -2.03966734    -0.26847072     0.49808768     0.00042917    -0.00000528    -0.00124778
C        -1.75598297     1.70235385    -0.10600703    -0.00018212    -0.00011852     0.00007781
H        -2.23165287     2.40188743    -0.79184473     0.00019905     0.00046476    -0.00048732
N        -0.49731050     1.76138556     0.27537630     0.00025230    -0.00011456     0.00003524
H        -0.00809556     2.66932393     0.25371898     0.00040157     0.00080151    -0.00021174
H        -0.23573931     1.22901268     1.14796361    -0.00006438    -0.00052507     0.00239620
    14
  Step:    16            Position(A)                                  Velocity(au)
C        -6.07156877    -0.87100432    -0.11986558    -0.00033793    -0.00005984     0.00009175
C        -4.67649087    -0.66466087     0.23835242     0.00048460    -0.00002458     0.00016778
H        -6.56032559     0.02116506    -0.49907878    -0.00035733    -0.00010307     0.00041324
H        -6.69878647    -1.78552002     0.01961547     0.00108212     0.00038295    -0.00099417
H        -4.19059266    -1.52413526     0.75240806    -0.00014553     0.00008796     0.00096944
C        -4.02019320     0.44176438    -0.11795415    -0.00060178    -0.00003100    -0.00039617
C        -2.50315154     0.58004907     0.14407424     0.00019871     0.00032482    -0.00010577
H        -4.39358274     1.28457069    -0.67500354    -0.00023334    -0.00041802     0.00049625
H        -2.03355609    -0.27104704     0.48573665     0.00067985    -0.00045352    -0.00101539
C        -1.75823330     1.70099461    -0.10527967    -0.00022493    -0.00012543     0.00005412
H        -2.22875800     2.40793368    -0.79687755     0.00033528     0.00062411    -0.00041755
N        -0.49428717     1.76021731     0.27596808     0.00030047    -0.00009967     0.00007661
H        -0.00395758     2.67740212     0.25103147     0.00033749     0.00064012    -0.00027479
H        -0.23676854     1.22386144     1.17237352    -0.00013854    -0.00037598     0.00200211
    14
  Step:    17            Position(A)                                  Velocity(au)
C        -6.07522498    -0.87162146    -0.11882120    -0.00032567    -0.00005036     0.00009933
C        -4.67144787    -0.66524466     0.24022794     0.00043321    -0.00008295     0.00017479
H        -6.56473167     0.01991656    -0.49478110    -0.00044889    -0.00012105     0.00037205
H        -6.68585946    -1.78058099     0.00870298     0.00125118     0.00048091    -0.00099353
H        -4.19212986    -1.52226857     0.76272700    -0.00013107     0.00025282     0.00091406
C        -4.02644687     0.44159206    -0.12231779    -0.00053661    -0.00000165    -0.00039936
C        -2.50125805     0.58363721     0.14288225     0.00014509     0.00032511    -0.00011109
H        -4.39709239     1.28007432    -0.66990959    -0.00042295    -0.00037742     0.00041445
H        -2.02479432    -0.27839230     0.47587413     0.00089855    -0.00084982    -0.00080311
C        -1.76090382     1.69960993    -0.10482306    -0.00025822    -0.00012315     0.00002863
H        -2.22431795     2.41554113    -0.80097950     0.00047917     0.00075037    -0.00031862
N        -0.49073705     1.75920503     0.27705233     0.00034719    -0.00008590     0.00012354
H        -0.00071230     2.68332788     0.24770749     0.00024467     0.00041927    -0.00032799
H        -0.23877007     1.22078749     1.19176369    -0.00023442    -0.00015967     0.00150103
    14
  Step:    18            Position(A)                                  Velocity(au)
C        -6.07869334    -0.87210597    -0.11769265    -0.00030353    -0.00003495     0.00010704
C        -4.66701365    -0.66647557     0.24217622     0.00037391    -0.00014166     0.00018072
H        -6.57014586     0.01851695    -0.49093941    -0.00054019    -0.00013207     0.00033068
H        -6.67141449    -1.77499916    -0.00211996     0.00135511     0.00049262    -0.00097783
H        -4.19346014    -1.51860428     0.77240490    -0.00010644     0.00041148     0.00085489
C        -4.03193251     0.44172826    -0.12669101    -0.00046257     0.00002499    -0.00039808
C        -2.49997749     0.58716141     0.14164404     0.00008797     0.00031185    -0.00011379
H        -4.40283551     1.27631400    -0.66593672    -0.00063792    -0.00028796     0.00029503
H        -2.01389854    -0.28963852     0.46816714     0.00105950    -0.00114805    -0.00062735
C        -1.76388227     1.69830037    -0.10465337    -0.00028069    -0.00011189     0.00000203
H        -2.21827530     2.42434957    -0.80384804     0.00062559     0.00084477    -0.00019446
N        -0.48669183     1.75833812     0.27867077     0.00038973    -0.00007313     0.00017275
H         0.00139510     2.68657436     0.24385608     0.00013622     0.00016252    -0.00037139
H        -0.24189699     1.22036840     1.20521141    -0.00033786     0.00009681     0.00093628
    14
  Step:    19            Position(A)                                  Velocity(au)
C        -6.08186517    -0.87238605    -0.11647942    -0.00027168    -0.00001263     0.00011475
C        -4.66326782    -0.66834366     0.24418144     0.00030806    -0.00019816     0.00018483
H        -6.57654938     0.01702736    -0.48754678    -0.00062832    -0.00013900     0.00029077
H        -6.65621377    -1.76980407    -0.01268886     0.00138759     0.00040595    -0.00094785
H        -4.19445833    -1.51326656     0.78142946    -0.00006934     0.00055390     0.00079728
C        -4.03656655     0.44213886    -0.13102654    -0.00038226     0.00004835    -0.00039279
C        -2.49933353     0.59045959     0.14039283     0.00002960     0.00028359    -0.00011343
H        -4.41104818     1.27377461    -0.66345533    -0.00086913    -0.00016227     0.00014772
H        -2.00161569    -0.30350818     0.46214969     0.00114761    -0.00132189    -0.00049578
C        -1.76704448     1.69716212    -0.10477865    -0.00029154    -0.00009225    -0.00002490
H        -2.21063193     2.43402205    -0.80523369     0.00076906     0.00091009    -0.00005047
N        -0.48221102     1.75760522     0.28083146     0.00042575    -0.00006153     0.00022130
H         0.00226774     2.68688324     0.23958265     0.00002580    -0.00010532    -0.00040556
H        -0.24616140     1.22290529     1.21224656    -0.00043688     0.00036942     0.00034781
    14
  Step:    20            Position(A)                                  Velocity(au)
C        -6.08463678    -0.87238230    -0.11518226    -0.00023094     0.00001679     0.00012240
C        -4.66027433    -0.67081079     0.24621963     0.00023712    -0.00024994     0.00018638
H        -6.58389155     0.01547596    -0.48457832    -0.00071040    -0.00014483     0.00025392
H        -6.64105824    -1.76611831    -0.02285589     0.00134910     0.00021833    -0.00090592
H        -4.19497706    -1.50648659     0.78984690    -0.00001808     0.00067090     0.00074640
C        -4.04029507     0.44278593    -0.13528405    -0.00029841     0.00006828    -0.00038425
C        -2.49932992     0.59336539     0.13916246    -0.00002857     0.00024084    -0.00011025
H        -4.42184950     1.27276393    -0.66270497    -0.00110465    -0.00001917    -0.00001395
H        -1.98879239    -0.31855747     0.45732110     0.00115896    -0.00136568    -0.00040822
C        -1.77026018     1.69628223    -0.10519818    -0.00029046    -0.00006527    -0.00005136
H        -2.20145056     2.44425958    -0.80495226     0.00090413     0.00095035     0.00010695
N        -0.47737779     1.75699206     0.28351216     0.00045327    -0.00005135     0.00026649