 Fermi distribution function

Calculation with static geometry


********************************************************************************
 iSCC Total electronic   Diff electronic      SCC error    
   11   -0.53923932E+01   -0.15454305E-11    0.43876352E-07
********************************************************************************

 Total charge:     1.00000000

 Atomic gross charges (e)
 Atom           Charge
    1       0.26923843
    2      -0.16393529
    3       0.14334955
    4       0.27514847
    5       0.30211400
    6       0.17408484

Nr. of electrons (up):     12.00000000
Atom populations (up)
 Atom       Population
    1       3.73076157
    2       5.16393529
    3       0.85665045
    4       0.72485153
    5       0.69788600
    6       0.82591516

l-shell populations (up)
 Atom Sh.   l       Population
    1   1   0       1.31277448
    1   2   1       2.41798709
    2   1   0       1.42755606
    2   2   1       3.73637923
    3   1   0       0.85665045
    4   1   0       0.72485153
    5   1   0       0.69788600
    6   1   0       0.82591516

Orbital populations (up)
 Atom Sh.   l   m       Population  Label
    1   1   0   0       1.31277448  s
    1   2   1  -1       0.54317084  p_y
    1   2   1   0       0.89393951  p_z
    1   2   1   1       0.98087674  p_x
    2   1   0   0       1.42755606  s
    2   2   1  -1       1.34014575  p_y
    2   2   1   0       1.07923016  p_z
    2   2   1   1       1.31700333  p_x
    3   1   0   0       0.85665045  s
    4   1   0   0       0.72485153  s
    5   1   0   0       0.69788600  s
    6   1   0   0       0.82591516  s

Fermi level:                        -0.4868146165 H          -13.2469 eV
Band energy:                        -8.8534280374 H         -240.9140 eV
TS:                                  0.0000000000 H            0.0000 eV
Band free energy (E-TS):            -8.8534280374 H         -240.9140 eV
Extrapolated E(0K):                 -8.8534280374 H         -240.9140 eV
Input / Output electrons (q):     12.0000000000     12.0000000000

Energy H0:                          -5.5245729326 H         -150.3313 eV
Energy SCC:                          0.1321796950 H            3.5968 eV
Total Electronic energy:            -5.3923932375 H         -146.7345 eV
Repulsive energy:                    0.1845231647 H            5.0211 eV
Total energy:                       -5.2078700728 H         -141.7134 eV
Extrapolated to 0:                  -5.2078700728 H         -141.7134 eV
Total Mermin free energy:           -5.2078700728 H         -141.7134 eV
Force related energy:               -5.2078700728 H         -141.7134 eV

SCC converged

Excitation Energy:                   0.1096250890 H            2.9831 eV

Total Forces
    1     -0.008426502704     -0.013101036252      0.027089432931
    2     -0.000017440291      0.018442225667     -0.026983140691
    3     -0.005702549777      0.011447663811      0.001958040819
    4     -0.014662615474     -0.010226528544     -0.001834070300
    5      0.016874470262      0.000066519747     -0.002348374606
    6      0.011934637984     -0.006628844428      0.002118111846

Maximal derivative component:        0.270894E-01 au


