    14
  Step:   600            Position(A)                                  Velocity(au)
C        -5.32887613    -1.19551209    -0.47336143    -0.00041170    -0.00013434    -0.00031542
C        -5.09406979     0.12800696    -0.27743734     0.00024342    -0.00074654     0.00022667
H        -4.85804416    -1.98287352     0.08027925     0.00157599    -0.00121621    -0.00113171
H        -5.97759204    -1.41938159    -1.31623749    -0.00188938     0.00130563     0.00062006
H        -5.73485924     0.98595019    -0.66595197    -0.00181287    -0.00162432     0.00070204
C        -4.14878100     0.64827985     0.74193051    -0.00040988     0.00083462     0.00018669
C        -2.80846872     0.87768181     0.77843829    -0.00005461     0.00002023    -0.00023255
H        -4.64120193     0.92378990     1.77302190     0.00347476     0.00058064     0.00266705
H        -2.59313559     1.53789948     1.62679018    -0.00344384    -0.00080722    -0.00008036
C        -1.63164207     0.81870240    -0.08735377     0.00037948     0.00025956    -0.00072944
H        -1.47379785     0.04125473    -0.88331076    -0.00316818    -0.00214255     0.00060232
N        -0.55656459     1.66748349    -0.19163592     0.00029306    -0.00004887     0.00052988
H         0.15868659     1.45015109    -0.95102137     0.00190464     0.00188453     0.00195561
H        -0.57414879     2.71312450    -0.11535995     0.00230460    -0.00008426    -0.00240243
