 Fermi distribution function

Calculation with static geometry


********************************************************************************
 iSCC Total electronic   Diff electronic      SCC error    
   10   -0.54453915E+01   -0.20605739E-12    0.55927295E-07
********************************************************************************

 Total charge:     1.00000000

 Atomic gross charges (e)
 Atom           Charge
    1       0.18505773
    2      -0.06752273
    3       0.18446677
    4       0.29132455
    5       0.27009577
    6       0.13657790

Nr. of electrons (up):     12.00000000
Atom populations (up)
 Atom       Population
    1       3.81494227
    2       5.06752273
    3       0.81553323
    4       0.70867545
    5       0.72990423
    6       0.86342210

l-shell populations (up)
 Atom Sh.   l       Population
    1   1   0       1.28059739
    1   2   1       2.53434488
    2   1   0       1.40793527
    2   2   1       3.65958745
    3   1   0       0.81553323
    4   1   0       0.70867545
    5   1   0       0.72990423
    6   1   0       0.86342210

Orbital populations (up)
 Atom Sh.   l   m       Population  Label
    1   1   0   0       1.28059739  s
    1   2   1  -1       0.59769898  p_y
    1   2   1   0       0.89666967  p_z
    1   2   1   1       1.03997623  p_x
    2   1   0   0       1.40793527  s
    2   2   1  -1       1.31794487  p_y
    2   2   1   0       1.09749664  p_z
    2   2   1   1       1.24414594  p_x
    3   1   0   0       0.81553323  s
    4   1   0   0       0.70867545  s
    5   1   0   0       0.72990423  s
    6   1   0   0       0.86342210  s

Fermi level:                        -0.4815525457 H          -13.1037 eV
Band energy:                        -8.9832195885 H         -244.4458 eV
TS:                                  0.0000000000 H            0.0000 eV
Band free energy (E-TS):            -8.9832195885 H         -244.4458 eV
Extrapolated E(0K):                 -8.9832195885 H         -244.4458 eV
Input / Output electrons (q):     12.0000000000     12.0000000000

Energy H0:                          -5.5793988944 H         -151.8232 eV
Energy SCC:                          0.1340074428 H            3.6465 eV
Total Electronic energy:            -5.4453914516 H         -148.1766 eV
Repulsive energy:                    0.2267368245 H            6.1698 eV
Total energy:                       -5.2186546271 H         -142.0068 eV
Extrapolated to 0:                  -5.2186546271 H         -142.0068 eV
Total Mermin free energy:           -5.2186546271 H         -142.0068 eV
Force related energy:               -5.2186546271 H         -142.0068 eV

SCC converged

Excitation Energy:                   0.1288732581 H            3.5068 eV

Total Forces
    1      0.013635360270      0.001701827129     -0.059523752803
    2      0.009596018968      0.007132219062      0.050209051806
    3     -0.005054127370     -0.009379755441      0.003654331617
    4     -0.013939183739      0.001572188877      0.000894143285
    5      0.002161714243     -0.012602441409      0.004145718245
    6     -0.006399782372      0.011575961782      0.000620507851

Maximal derivative component:        0.595238E-01 au


