     6
  Step:   300            Position(A)                                  Velocity(au)
C        -0.04296985     0.02019066     0.01544225    -0.00000030    -0.00002195     0.00009233
N        -0.03507828    -0.05885491     1.30059251     0.00000402     0.00001388    -0.00005188
H         0.01601764    -0.87336741    -0.59595077     0.00115424     0.00018239    -0.00021462
H        -0.10564799     0.75633213     1.91749986     0.00122381     0.00008199     0.00006458
H        -0.00904201    -0.95088182     1.80354312    -0.00128399    -0.00001010    -0.00015082
H        -0.11476359     0.97541085    -0.49053572    -0.00114633    -0.00018561    -0.00007842
