 Fermi distribution function

Calculation with static geometry


********************************************************************************
 iSCC Total electronic   Diff electronic      SCC error    
   13   -0.53073115E+01   -0.19598545E-10    0.51534403E-08
********************************************************************************

 Total charge:     1.00000000

 Atomic gross charges (e)
 Atom           Charge
    1       0.30380704
    2      -0.19289022
    3       0.17825852
    4       0.28151671
    5       0.26091218
    6       0.16839577

Nr. of electrons (up):     12.00000000
Atom populations (up)
 Atom       Population
    1       3.69619296
    2       5.19289022
    3       0.82174148
    4       0.71848329
    5       0.73908782
    6       0.83160423

l-shell populations (up)
 Atom Sh.   l       Population
    1   1   0       1.37483830
    1   2   1       2.32135467
    2   1   0       1.49082510
    2   2   1       3.70206512
    3   1   0       0.82174148
    4   1   0       0.71848329
    5   1   0       0.73908782
    6   1   0       0.83160423

Orbital populations (up)
 Atom Sh.   l   m       Population  Label
    1   1   0   0       1.37483830  s
    1   2   1  -1       0.46245537  p_y
    1   2   1   0       0.87244429  p_z
    1   2   1   1       0.98645501  p_x
    2   1   0   0       1.49082510  s
    2   2   1  -1       1.33632502  p_y
    2   2   1   0       1.10517878  p_z
    2   2   1   1       1.26056132  p_x
    3   1   0   0       0.82174148  s
    4   1   0   0       0.71848329  s
    5   1   0   0       0.73908782  s
    6   1   0   0       0.83160423  s

Fermi level:                        -0.5080203526 H          -13.8239 eV
Band energy:                        -8.7207879606 H         -237.3047 eV
TS:                                  0.0000000000 H            0.0000 eV
Band free energy (E-TS):            -8.7207879606 H         -237.3047 eV
Extrapolated E(0K):                 -8.7207879606 H         -237.3047 eV
Input / Output electrons (q):     12.0000000000     12.0000000000

Energy H0:                          -5.4422695655 H         -148.0917 eV
Energy SCC:                          0.1349580335 H            3.6724 eV
Total Electronic energy:            -5.3073115320 H         -144.4193 eV
Repulsive energy:                    0.1466480468 H            3.9905 eV
Total energy:                       -5.1606634852 H         -140.4288 eV
Extrapolated to 0:                  -5.1606634852 H         -140.4288 eV
Total Mermin free energy:           -5.1606634852 H         -140.4288 eV
Force related energy:               -5.1606634852 H         -140.4288 eV

SCC converged

Excitation Energy:                   0.1044562936 H            2.8424 eV

Total Forces
    1     -0.007316699385     -0.006880111944      0.073296224115
    2      0.019523419351     -0.011431422216     -0.077491561032
    3     -0.000216205473      0.013213643389      0.001314282877
    4     -0.016043084383      0.001139761278     -0.004538701553
    5     -0.003100885209      0.012771036034      0.005253639933
    6      0.007153455099     -0.008812906542      0.002166115660

Maximal derivative component:        0.774916E-01 au


