     6
  Step:   300            Position(A)                                  Velocity(au)
C        -0.03886657    -0.00306253     0.01784115    -0.00008944     0.00006363    -0.00006945
N        -0.03641671    -0.02595945     1.30168109    -0.00000309    -0.00015359     0.00000602
H         0.87469445     0.21394854    -0.51898674     0.00051863    -0.00005896     0.00090406
H         0.79440387    -0.36926786     1.78827795     0.00056644     0.00072391    -0.00010759
H        -0.92738670     0.01373884     1.80886158     0.00005690     0.00088448     0.00003999
H        -0.98545791    -0.13096900    -0.48731647    -0.00003331    -0.00017321    -0.00009257
