 Fermi distribution function

Calculation with static geometry


********************************************************************************
 iSCC Total electronic   Diff electronic      SCC error    
    9   -0.54077794E+01   -0.14326318E-11    0.48535776E-06
********************************************************************************

 Total charge:     1.00000000

 Atomic gross charges (e)
 Atom           Charge
    1       0.16425147
    2      -0.04136828
    3       0.17602584
    4       0.27197620
    5       0.26794362
    6       0.16117115

Nr. of electrons (up):     12.00000000
Atom populations (up)
 Atom       Population
    1       3.83574853
    2       5.04136828
    3       0.82397416
    4       0.72802380
    5       0.73205638
    6       0.83882885

l-shell populations (up)
 Atom Sh.   l       Population
    1   1   0       1.33045286
    1   2   1       2.50529567
    2   1   0       1.44521692
    2   2   1       3.59615136
    3   1   0       0.82397416
    4   1   0       0.72802380
    5   1   0       0.73205638
    6   1   0       0.83882885

Orbital populations (up)
 Atom Sh.   l   m       Population  Label
    1   1   0   0       1.33045286  s
    1   2   1  -1       0.58604582  p_y
    1   2   1   0       0.87386653  p_z
    1   2   1   1       1.04538332  p_x
    2   1   0   0       1.44521692  s
    2   2   1  -1       1.33582663  p_y
    2   2   1   0       1.10333179  p_z
    2   2   1   1       1.15699294  p_x
    3   1   0   0       0.82397416  s
    4   1   0   0       0.72802380  s
    5   1   0   0       0.73205638  s
    6   1   0   0       0.83882885  s

Fermi level:                        -0.5038602145 H          -13.7107 eV
Band energy:                        -8.9330804851 H         -243.0815 eV
TS:                                  0.0000000000 H            0.0000 eV
Band free energy (E-TS):            -8.9330804851 H         -243.0815 eV
Extrapolated E(0K):                 -8.9330804851 H         -243.0815 eV
Input / Output electrons (q):     12.0000000000     12.0000000000

Energy H0:                          -5.5415491516 H         -150.7932 eV
Energy SCC:                          0.1337697107 H            3.6401 eV
Total Electronic energy:            -5.4077794408 H         -147.1532 eV
Repulsive energy:                    0.1782110561 H            4.8494 eV
Total energy:                       -5.2295683848 H         -142.3038 eV
Extrapolated to 0:                  -5.2295683848 H         -142.3038 eV
Total Mermin free energy:           -5.2295683848 H         -142.3038 eV
Force related energy:               -5.2295683848 H         -142.3038 eV

SCC converged

Excitation Energy:                   0.1552007425 H            4.2232 eV

Total Forces
    1     -0.000196872854     -0.000995898914      0.044132883659
    2     -0.006330464880      0.007387691545     -0.048736864099
    3     -0.006345733679     -0.004381470122     -0.000081070262
    4     -0.002301361425      0.002586614022      0.005814380527
    5      0.010209655312     -0.003732760875     -0.001978550207
    6      0.004964777525     -0.000864175655      0.000849220382

Maximal derivative component:        0.487369E-01 au


