     6
  Step:   300            Position(A)                                  Velocity(au)
C        -0.06885242     0.02567132     0.02613995     0.00009771     0.00014495     0.00011436
N        -0.00733470    -0.06121123     1.29504475    -0.00031618    -0.00000716    -0.00015097
H         0.15338237    -0.89162444    -0.52625214    -0.00050839    -0.00058299     0.00089836
H         0.05529102     0.77843006     1.87933849     0.00109944    -0.00050291     0.00027628
H        -0.19375562    -0.98007133     1.71038345     0.00220706    -0.00046659     0.00032649
H        -0.30547874     0.96820329    -0.47930270     0.00043121    -0.00007523    -0.00076599
