|===============================================================================
|
|  DFTB+ release 20.1
|
|  Copyright (C) 2006 - 2020  DFTB+ developers group
|
|===============================================================================
|
|  When publishing results obtained with DFTB+, please cite the following
|  reference:
|
|  * DFTB+, a software package for efficient approximate density functional
|    theory based atomistic simulations, J. Chem. Phys. 152, 124101 (2020).
|    [doi: 10.1063/1.5143190]
|
|  You should also cite additional publications crediting the parametrization
|  data you use. Please consult the documentation of the SK-files for the
|  references.
|
|===============================================================================

Reading input file 'dftb_in.hsd'
Parser version: 8

--------------------------------------------------------------------------------
Reading SK-files:
Done.


Processed input in HSD format written to 'dftb_pin.hsd'

Starting initialization...
--------------------------------------------------------------------------------
OpenMP threads:              1
Chosen random seed:          502923470
Mode:                        Static calculation
Self consistent charges:     Yes
SCC-tolerance:                 0.100000E-05
Max. scc iterations:                   1000
Shell resolved Hubbard:      No
Spin polarisation:           No
Nr. of up electrons:            16.000000
Nr. of down electrons:          16.000000
Periodic boundaries:         No
Electronic solver:           Relatively robust
Maximal SCC-cycles:                    1000
Initial charges:             Set automatically (system chrg:   0.100E+01)
Included shells:             C:  s, p
                             H:  s
                             N:  s, p
Spin coupling constants:     C   1(s)-1(s):  -0.455900E-01
                             C   1(s)-2(p):  -0.293000E-01
                             C   2(p)-1(s):  -0.293000E-01
                             C   2(p)-2(p):  -0.275500E-01
                             H   1(s)-1(s):  -0.792500E-01
                             N   1(s)-1(s):  -0.468700E-01
                             N   1(s)-2(p):  -0.317000E-01
                             N   2(p)-1(s):  -0.317000E-01
                             N   2(p)-2(p):  -0.307200E-01
Range separated hybrid:      Yes
  Screening parameter omega:   0.300000E+00
  Range separated algorithm:   MatrixBased
Extra options:
                             Mulliken analysis
                             Force calculation
Force type                   original
                             Eigenvector printing


REKS Calcuation:             Yes
SSR(2,2) Calcuation:         Yes
Energy Functional:           (PPS+OSS)/2
Number of Core Orbitals:                 15
Number of Active Orbitals:                2
Number of Basis:                         32
Number of States:                         2
State-Averaging Weight:          0.500000
                                 0.500000
State of Interest:                        1
Initial Guess:               Diagonalize H0 matrix
Newton-Raphson for FON opt:  Yes
NR max. Iterations:                      50
Level Shifting:              Yes
Shift Value:                     0.300000
W Scale Factor:              C  =    3.200000
                             H  =    3.200000
                             N  =    3.200000
Transition Dipole:           No
Gradient of Microstate:      No
CP-REKS Solver:              Preconditioned Conjugate-Gradient
CG max. Iterations:                     100
CG Tolerance:                  0.100000E-07
Memory for A and Hxc:        Direct Updating Without Saving
Non-Adiabatic Coupling:      Yes

--------------------------------------------------------------------------------

***  Geometry step: 0

  iSCC       reks energy        Diff energy         x_a       SCC error   
    1      -16.3953088301       0.0000000000     0.994962    1.20434056
    2      -16.4140803539      -0.0187715238     0.999272    0.07608683
    3      -16.4186169140      -0.0045365601     0.999841    0.02984484
    4      -16.4202979183      -0.0016810043     0.999951    0.01287063
    5      -16.4210170235      -0.0007191052     0.999980    0.00723933
    6      -16.4213480671      -0.0003310436     0.999989    0.00549443
    7      -16.4215096102      -0.0001615431     0.999993    0.00415037
    8      -16.4215927578      -0.0000831476     0.999995    0.00314316
    9      -16.4216377466      -0.0000449888     0.999996    0.00239708
   10      -16.4216632342      -0.0000254876     0.999997    0.00184472
   11      -16.4216782786      -0.0000150444     0.999997    0.00143323
   12      -16.4216874788      -0.0000092002     0.999997    0.00112374
   13      -16.4216932744      -0.0000057956     0.999997    0.00088844
   14      -16.4216970149      -0.0000037405     0.999998    0.00070763
   15      -16.4216994765      -0.0000024616     0.999998    0.00056729
   16      -16.4217011219      -0.0000016454     0.999998    0.00045737
   17      -16.4217022354      -0.0000011135     0.999998    0.00037057
   18      -16.4217029963      -0.0000007609     0.999998    0.00030156
   19      -16.4217035204      -0.0000005241     0.999998    0.00024633
   20      -16.4217038837      -0.0000003633     0.999998    0.00020190
   21      -16.4217041369      -0.0000002532     0.999998    0.00016597
   22      -16.4217043140      -0.0000001772     0.999998    0.00013680
   23      -16.4217044385      -0.0000001244     0.999998    0.00011302
   24      -16.4217045261      -0.0000000876     0.999998    0.00009357
   25      -16.4217045880      -0.0000000619     0.999998    0.00007762
   26      -16.4217046318      -0.0000000438     0.999998    0.00006450
   27      -16.4217046628      -0.0000000311     0.999998    0.00005368
   28      -16.4217046849      -0.0000000221     0.999998    0.00004474
   29      -16.4217047005      -0.0000000157     0.999998    0.00003733
   30      -16.4217047117      -0.0000000112     0.999998    0.00003119
   31      -16.4217047197      -0.0000000080     0.999998    0.00002609
   32      -16.4217047254      -0.0000000057     0.999998    0.00002184
   33      -16.4217047294      -0.0000000041     0.999998    0.00001831
   34      -16.4217047323      -0.0000000029     0.999998    0.00001535
   35      -16.4217047344      -0.0000000021     0.999998    0.00001289
   36      -16.4217047359      -0.0000000015     0.999998    0.00001083
   37      -16.4217047370      -0.0000000011     0.999998    0.00000910
   38      -16.4217047377      -0.0000000008     0.999998    0.00000766
   39      -16.4217047383      -0.0000000005     0.999998    0.00000644
   40      -16.4217047387      -0.0000000004     0.999998    0.00000543
   41      -16.4217047389      -0.0000000003     0.999998    0.00000457
   42      -16.4217047391      -0.0000000002     0.999998    0.00000385
   43      -16.4217047393      -0.0000000001     0.999998    0.00000325
   44      -16.4217047394      -0.0000000001     0.999998    0.00000274
   45      -16.4217047395      -0.0000000001     0.999998    0.00000231
   46      -16.4217047395      -0.0000000001     0.999998    0.00000195
   47      -16.4217047396      -0.0000000000     0.999998    0.00000165
   48      -16.4217047396      -0.0000000000     0.999998    0.00000140
   49      -16.4217047396      -0.0000000000     0.999998    0.00000118
   50      -16.4217047396      -0.0000000000     0.999998    0.00000100
  
--------------------------------------------------
 Final SA-REKS(2,2) energy:     -16.42170474
  
 State     Energy      FON(1)    FON(2)   Spin
  PPS  -16.45340132   1.999996  0.000004  0.00
  OSS  -16.39000816   1.000000  1.000000  0.00
 Trip  -16.41495482   1.000000  1.000000  1.00
--------------------------------------------------

 Lagrangian Wab:   0.01612332  0.01612356

--------------------------------------------------
 SSR: 2SI-2SA-REKS(2,2) Hamiltonian matrix
               PPS           OSS
   PPS   -16.45340132    0.02276918
   OSS     0.02276918  -16.39000816
--------------------------------------------------

----------------------------------------------------------------
 SSR: 2SI-2SA-REKS(2,2) states
                    E_n       C_{PPS}    C_{OSS}
 SSR state  1  -16.46073176  -0.951885   0.306456
 SSR state  2  -16.38267771  -0.306456  -0.951885
----------------------------------------------------------------

 unrelaxed SSR FONs for S0:  1.906081  0.093919

Total Energy:                      -16.4607317650 H         -447.9193 eV
Extrapolated to 0:                 -16.4607317650 H         -447.9193 eV

----------------------------------------------------------------------------------
 Solving CP-REKS equation for  1 state vector...
----------------------------------------------------------------------------------
  CG solver: Constructing Y initial guess
  CG solver: Iteration    1    eps =    0.005314138399
  CG solver: Iteration    2    eps =    0.000121583756
  CG solver: Iteration    3    eps =    0.000018796980
  CG solver: Iteration    4    eps =    0.000003608680
  CG solver: Iteration    5    eps =    0.000000554516
  CG solver: Iteration    6    eps =    0.000000106730
  CG solver: Iteration    7    eps =    0.000000006869
  Convergence reached in CG solver after    7 iterations
  CG solver: Calculating converged R, Z, Q2 matrix
----------------------------------------------------------------------------------

----------------------------------------------------------------------------------
 Solving CP-REKS equation for SI between  1 and  2 state vectors...
----------------------------------------------------------------------------------
  CG solver: Constructing Y initial guess
  CG solver: Iteration    1    eps =    0.023401520167
  CG solver: Iteration    2    eps =    0.000346463392
  CG solver: Iteration    3    eps =    0.000116499112
  CG solver: Iteration    4    eps =    0.000052017994
  CG solver: Iteration    5    eps =    0.000003530362
  CG solver: Iteration    6    eps =    0.000001417126
  CG solver: Iteration    7    eps =    0.000000108993
  CG solver: Iteration    8    eps =    0.000000006265
  Convergence reached in CG solver after    8 iterations
  CG solver: Calculating converged R, Z, Q2 matrix
----------------------------------------------------------------------------------

--------------------------------------------------
 Gradient Information
--------------------------------------------------
           1 st state (SSR)
     0.00563833     0.00073287    -0.00066402
     0.02701665     0.00453971     0.00137048
     0.00303207    -0.01252525    -0.00411769
    -0.01592776     0.00486381     0.01111814
    -0.01485518    -0.01046815    -0.02888521
    -0.03871482     0.01917960     0.01699638
     0.07835178     0.02990935     0.04648588
    -0.00194825     0.00144806     0.01038185
    -0.00053740     0.02140785     0.00673512
     0.00232460    -0.09369375    -0.04634685
    -0.04347003     0.03356960    -0.00848923
    -0.00270540     0.01770335    -0.01208358
     0.01506701     0.01190908     0.02219126
    -0.01327159    -0.02857614    -0.01469255

           2 st state (SSR)
     0.04235826     0.00820233     0.00769664
    -0.03346630    -0.00805032     0.02229833
     0.00099210    -0.00530921    -0.00410460
    -0.01460081    -0.00099044     0.01061014
    -0.01668489    -0.00607405    -0.02610400
     0.05476678     0.04265198    -0.01591243
    -0.00352775     0.01136369     0.05764251
     0.00347287    -0.02093624     0.00501701
    -0.01549820     0.05118113    -0.00128140
     0.03104218    -0.11223413    -0.03916361
    -0.04348572     0.03325366    -0.01216350
    -0.00524831     0.02396105    -0.01401770
     0.01333329     0.01120379     0.02119797
    -0.01345350    -0.02822323    -0.01171538
--------------------------------------------------
 Coupling Information
--------------------------------------------------
 between  1 and  2 states
--------------------------------------------------
 g vector - difference gradient
    -0.02259754    -0.00490809    -0.00704335
     0.03678037     0.00652527    -0.00845375
     0.00091199    -0.00270581     0.00042032
    -0.00005895     0.00260198     0.00012183
     0.00095052    -0.00082560    -0.00159619
    -0.05911098    -0.01615434     0.01704678
     0.04703878     0.00816276    -0.00930962
    -0.00194693     0.01255441     0.00390452
     0.00823534    -0.01459297     0.00384966
    -0.00354216     0.01452097    -0.00298211
    -0.00049342     0.00072436     0.00088636
    -0.00793517    -0.00723981     0.00549069
     0.00134761     0.00248228    -0.00058049
     0.00042054    -0.00114542    -0.00175467

 h vector - derivative coupling
     0.00001188    -0.00043104    -0.00263972
    -0.00063345    -0.00170612     0.00616716
    -0.00047872     0.00241754     0.00059634
     0.00105515    -0.00139500    -0.00026576
    -0.00024489     0.00261649     0.00016151
    -0.00217229    -0.00237200    -0.00447280
    -0.00469006    -0.00453067    -0.00339837
     0.00193570    -0.00170689     0.00083768
    -0.00135735     0.00520151    -0.00151122
     0.01968039     0.00432502     0.00200479
    -0.00070033     0.00073761    -0.00191501
    -0.01322571    -0.00471547     0.00598592
     0.00039016     0.00285109    -0.00165935
     0.00042953    -0.00129207     0.00010884

 G vector - GDV
    -0.01835997    -0.00373473    -0.00418033
     0.03024147     0.00629501    -0.01046393
     0.00101999    -0.00360802    -0.00000654
    -0.00066348     0.00292713     0.00025400
     0.00091485    -0.00219705    -0.00139061
    -0.04674080    -0.01173619     0.01645441
     0.04093976     0.00927283    -0.00557831
    -0.00271056     0.01119215     0.00268242
     0.00748040    -0.01488664     0.00400826
    -0.01435879     0.00927019    -0.00359162
     0.00000785     0.00015797     0.00183713
     0.00127145    -0.00312885     0.00096706
     0.00086686     0.00035265     0.00049665
     0.00009095    -0.00017646    -0.00148858

 H vector - DCV - non-adiabatic coupling
    -0.16878343    -0.04117093    -0.08011291
     0.26832649     0.03102110     0.00098247
     0.00183553     0.00493022     0.00934679
     0.01053843     0.00493342    -0.00185470
     0.00455658     0.02105416    -0.01025028
    -0.46443263    -0.14542801     0.08087697
     0.30279376     0.01387050    -0.10494632
     0.00558891     0.07607832     0.03790090
     0.04743215    -0.05495337     0.01304999
     0.17830270     0.15354089    -0.00142966
    -0.01097518     0.01308931    -0.01330094
    -0.19692849    -0.10318000     0.10332543
     0.01413250     0.04822016    -0.02160482
     0.00761269    -0.02200576    -0.01198292
--------------------------------------------------


--------------------------------------------------------------------------------
DFTB+ running times                          cpu [s]             wall clock [s]
--------------------------------------------------------------------------------
SCC                                    +     0.08  ( 25.1%)      0.08  ( 24.9%)
      Dense to sparse                        0.01  (  4.3%)      0.02  (  5.0%)
  Density matrix creation                    0.01  (  2.5%)      0.01  (  3.2%)
Post-SCC processing                    +     0.23  ( 74.1%)      0.23  ( 73.2%)
  Force calculation                          0.23  ( 74.0%)      0.23  ( 72.9%)
--------------------------------------------------------------------------------
Missing                                +     0.00  (  0.9%)      0.01  (  1.9%)
Total                                  =     0.31  (100.0%)      0.32  (100.0%)
--------------------------------------------------------------------------------
