     6
  Step:   120            Position(A)                                  Velocity(au)
C        -0.03719540    -0.03363264    -0.12703595    -0.00004898    -0.00004683     0.00009631
N        -0.04685865    -0.12852735     1.42579059     0.00003554    -0.00011116    -0.00008176
H         0.92780929     0.35861003    -0.47818874    -0.00007451     0.00053228     0.00081106
H         0.81404134     0.32413075     1.76694344    -0.00035419     0.00049301    -0.00075830
H        -0.87850787     0.42455462     1.78399220     0.00007810     0.00094753    -0.00089896
H        -0.98191121     0.40977847    -0.48023931     0.00044045     0.00012998     0.00083480
