|===============================================================================
|
|  DFTB+ release 20.1
|
|  Copyright (C) 2006 - 2020  DFTB+ developers group
|
|===============================================================================
|
|  When publishing results obtained with DFTB+, please cite the following
|  reference:
|
|  * DFTB+, a software package for efficient approximate density functional
|    theory based atomistic simulations, J. Chem. Phys. 152, 124101 (2020).
|    [doi: 10.1063/1.5143190]
|
|  You should also cite additional publications crediting the parametrization
|  data you use. Please consult the documentation of the SK-files for the
|  references.
|
|===============================================================================

Reading input file 'dftb_in.hsd'
Parser version: 8

--------------------------------------------------------------------------------
Reading SK-files:
Done.


Processed input in HSD format written to 'dftb_pin.hsd'

Starting initialization...
--------------------------------------------------------------------------------
OpenMP threads:              1
Chosen random seed:          508932032
Mode:                        Static calculation
Self consistent charges:     Yes
SCC-tolerance:                 0.100000E-05
Max. scc iterations:                   1000
Shell resolved Hubbard:      No
Spin polarisation:           No
Nr. of up electrons:             6.000000
Nr. of down electrons:           6.000000
Periodic boundaries:         No
Electronic solver:           Relatively robust
Maximal SCC-cycles:                    1000
Initial charges:             Set automatically (system chrg:   0.100E+01)
Included shells:             C:  s, p
                             N:  s, p
                             H:  s
Spin coupling constants:     C   1(s)-1(s):  -0.455900E-01
                             C   1(s)-2(p):  -0.293000E-01
                             C   2(p)-1(s):  -0.293000E-01
                             C   2(p)-2(p):  -0.275500E-01
                             N   1(s)-1(s):  -0.468700E-01
                             N   1(s)-2(p):  -0.317000E-01
                             N   2(p)-1(s):  -0.317000E-01
                             N   2(p)-2(p):  -0.307200E-01
                             H   1(s)-1(s):  -0.792500E-01
Range separated hybrid:      Yes
  Screening parameter omega:   0.300000E+00
  Range separated algorithm:   MatrixBased
Extra options:
                             Mulliken analysis
                             Force calculation
Force type                   original
                             Eigenvector printing


REKS Calcuation:             Yes
SSR(2,2) Calcuation:         Yes
Energy Functional:           (PPS+OSS)/2
Number of Core Orbitals:                  5
Number of Active Orbitals:                2
Number of Basis:                         12
Number of States:                         2
State-Averaging Weight:          0.500000
                                 0.500000
State of Interest:                        1
Initial Guess:               Diagonalize H0 matrix
Newton-Raphson for FON opt:  Yes
NR max. Iterations:                      50
Level Shifting:              Yes
Shift Value:                     0.300000
W Scale Factor:              C  =    3.000000
                             N  =    3.000000
                             H  =    3.000000
Transition Dipole:           No
Gradient of Microstate:      No
CP-REKS Solver:              Preconditioned Conjugate-Gradient
CG max. Iterations:                     100
CG Tolerance:                  0.100000E-07
Memory for A and Hxc:        Direct Updating Without Saving
Non-Adiabatic Coupling:      Yes

--------------------------------------------------------------------------------

***  Geometry step: 0

  iSCC       reks energy        Diff energy         x_a       SCC error   
    1       -6.2639090814       0.0000000000     0.999542    1.19596320
    2       -6.2762308630      -0.0123217817     0.999802    0.09239927
    3       -6.2802738754      -0.0040430123     0.999888    0.03847976
    4       -6.2823664296      -0.0020925542     0.999926    0.01820013
    5       -6.2835640369      -0.0011976074     0.999944    0.00874733
    6       -6.2842698665      -0.0007058295     0.999954    0.00777346
    7       -6.2846869980      -0.0004171316     0.999960    0.00653074
    8       -6.2849320063      -0.0002450083     0.999963    0.00528897
    9       -6.2850749556      -0.0001429493     0.999965    0.00417679
   10       -6.2851580206      -0.0000830650     0.999966    0.00324105
   11       -6.2852062550      -0.0000482344     0.999967    0.00248435
   12       -6.2852343320      -0.0000280770     0.999968    0.00188841
   13       -6.2852507558      -0.0000164238     0.999968    0.00142796
   14       -6.2852604270      -0.0000096711     0.999968    0.00116321
   15       -6.2852661657      -0.0000057387     0.999968    0.00094507
   16       -6.2852695985      -0.0000034328     0.999968    0.00076608
   17       -6.2852716685      -0.0000020700     0.999969    0.00061974
   18       -6.2852729263      -0.0000012577     0.999969    0.00050045
   19       -6.2852736958      -0.0000007695     0.999969    0.00040347
   20       -6.2852741695      -0.0000004737     0.999969    0.00032481
   21       -6.2852744627      -0.0000002932     0.999969    0.00026116
   22       -6.2852746450      -0.0000001823     0.999969    0.00020974
   23       -6.2852747587      -0.0000001137     0.999969    0.00016828
   24       -6.2852748299      -0.0000000712     0.999969    0.00013552
   25       -6.2852748746      -0.0000000447     0.999969    0.00010943
   26       -6.2852749027      -0.0000000281     0.999969    0.00008820
   27       -6.2852749204      -0.0000000177     0.999969    0.00007098
   28       -6.2852749316      -0.0000000112     0.999969    0.00005705
   29       -6.2852749387      -0.0000000071     0.999968    0.00004580
   30       -6.2852749431      -0.0000000045     0.999968    0.00003673
   31       -6.2852749459      -0.0000000028     0.999968    0.00002943
   32       -6.2852749477      -0.0000000018     0.999968    0.00002357
   33       -6.2852749488      -0.0000000011     0.999968    0.00001886
   34       -6.2852749496      -0.0000000007     0.999968    0.00001508
   35       -6.2852749500      -0.0000000005     0.999968    0.00001205
   36       -6.2852749503      -0.0000000003     0.999968    0.00000963
   37       -6.2852749505      -0.0000000002     0.999968    0.00000769
   38       -6.2852749506      -0.0000000001     0.999968    0.00000614
   39       -6.2852749507      -0.0000000001     0.999968    0.00000490
   40       -6.2852749507      -0.0000000000     0.999968    0.00000391
   41       -6.2852749508      -0.0000000000     0.999968    0.00000312
   42       -6.2852749508      -0.0000000000     0.999968    0.00000249
   43       -6.2852749508      -0.0000000000     0.999968    0.00000198
   44       -6.2852749508      -0.0000000000     0.999968    0.00000158
   45       -6.2852749508      -0.0000000000     0.999968    0.00000126
   46       -6.2852749508      -0.0000000000     0.999968    0.00000100
   47       -6.2852749508      -0.0000000000     0.999968    0.00000080
  
--------------------------------------------------
 Final SA-REKS(2,2) energy:      -6.28527495
  
 State     Energy      FON(1)    FON(2)   Spin
  PPS   -6.41541694   1.999937  0.000063  0.00
  OSS   -6.15513296   1.000000  1.000000  0.00
 Trip   -6.23439423   1.000000  1.000000  1.00
--------------------------------------------------

 Lagrangian Wab:   0.00343448  0.00343438

--------------------------------------------------
 SSR: 2SI-2SA-REKS(2,2) Hamiltonian matrix
               PPS           OSS
   PPS    -6.41541694    0.00482975
   OSS     0.00482975   -6.15513296
--------------------------------------------------

----------------------------------------------------------------
 SSR: 2SI-2SA-REKS(2,2) states
                    E_n       C_{PPS}    C_{OSS}
 SSR state  1   -6.41550653  -0.999828   0.018546
 SSR state  2   -6.15504337  -0.018546  -0.999828
----------------------------------------------------------------

 unrelaxed SSR FONs for S0:  1.999593  0.000407

Total Energy:                       -6.4155065298 H         -174.5748 eV
Extrapolated to 0:                  -6.4155065298 H         -174.5748 eV

----------------------------------------------------------------------------------
 Solving CP-REKS equation for  1 state vector...
----------------------------------------------------------------------------------
  CG solver: Constructing Y initial guess
  CG solver: Iteration    1    eps =    0.000071775735
  CG solver: Iteration    2    eps =    0.000012105257
  CG solver: Iteration    3    eps =    0.000000426706
  CG solver: Iteration    4    eps =    0.000000116703
  CG solver: Iteration    5    eps =    0.000000006717
  Convergence reached in CG solver after    5 iterations
  CG solver: Calculating converged R, Z, Q2 matrix
----------------------------------------------------------------------------------

----------------------------------------------------------------------------------
 Solving CP-REKS equation for SI between  1 and  2 state vectors...
----------------------------------------------------------------------------------
  CG solver: Constructing Y initial guess
  CG solver: Iteration    1    eps =    0.000911136351
  CG solver: Iteration    2    eps =    0.000622103606
  CG solver: Iteration    3    eps =    0.000194878564
  CG solver: Iteration    4    eps =    0.000002315393
  CG solver: Iteration    5    eps =    0.000000286032
  CG solver: Iteration    6    eps =    0.000000005218
  Convergence reached in CG solver after    6 iterations
  CG solver: Calculating converged R, Z, Q2 matrix
----------------------------------------------------------------------------------

--------------------------------------------------
 Gradient Information
--------------------------------------------------
           1 st state (SSR)
    -0.00109210    -0.00320837     0.03472824
     0.00356960    -0.00053899    -0.02842960
     0.00810314     0.00215034    -0.00556852
     0.00755593     0.00118958     0.00325430
    -0.01015139     0.00158678     0.00094228
    -0.00798518    -0.00117934    -0.00492671

           2 st state (SSR)
     0.00236886    -0.00705556     0.13972183
    -0.00394568     0.00623115    -0.15591535
    -0.00843772     0.01173062     0.01532419
    -0.00597242    -0.00486591    -0.00623646
     0.00796121     0.00770553    -0.00754044
     0.00802575    -0.01374584     0.01464623
--------------------------------------------------
 Coupling Information
--------------------------------------------------
 between  1 and  2 states
--------------------------------------------------
 g vector - difference gradient
    -0.00172773     0.00195298    -0.05262985
     0.00378389    -0.00343027     0.06384157
     0.00856302    -0.00480190    -0.01045289
     0.00706839     0.00300662     0.00477235
    -0.00938045    -0.00301040     0.00426011
    -0.00830713     0.00628296    -0.00979129

 h vector - derivative coupling
     0.00010623     0.00075627    -0.00261156
     0.00063771    -0.00115505     0.00147685
     0.00773069    -0.00022781     0.00001781
     0.00807190    -0.00062540     0.00063868
    -0.00856648     0.00137639     0.00042660
    -0.00798005    -0.00012440     0.00005161

 G vector - GDV
    -0.00173048     0.00192359    -0.05249679
     0.00375764    -0.00338507     0.06374288
     0.00827043    -0.00479014    -0.01044636
     0.00676417     0.00302775     0.00474538
    -0.00905630    -0.00305937     0.00424136
    -0.00800547     0.00628325    -0.00978647

 H vector - DCV - non-adiabatic coupling
     0.00016156     0.00317962    -0.01751335
     0.00298545    -0.00491995     0.01475620
     0.03087936    -0.00155775    -0.00141998
     0.03197568    -0.00197136     0.00312993
    -0.03420240     0.00485214     0.00224331
    -0.03179965     0.00041729    -0.00119612
--------------------------------------------------


--------------------------------------------------------------------------------
DFTB+ running times                          cpu [s]             wall clock [s]
--------------------------------------------------------------------------------
SCC                                    +     0.02  ( 66.7%)      0.02  ( 62.1%)
--------------------------------------------------------------------------------
Missing                                +     0.01  ( 33.3%)      0.01  ( 37.9%)
Total                                  =     0.03  (100.0%)      0.03  (100.0%)
--------------------------------------------------------------------------------
