     6
  Step:     0            Position(A)                                  Velocity(au)
C        -0.03526404     0.02127291     0.04089543     0.00006298    -0.00004334    -0.00024061
N        -0.04477587    -0.05932581     1.28167686     0.00006239    -0.00004569     0.00012254
H         0.88834097    -0.04210842    -0.53065079    -0.00034683     0.00045764     0.00029816
H         0.85098213    -0.10013895     1.87496596    -0.00037547     0.00013163    -0.00038989
H        -0.90927389    -0.01910413     1.78765684    -0.00099475     0.00042853     0.00097396
H        -1.00055735     0.06249663    -0.53787541     0.00009961     0.00013355     0.00028207
     6
  Step:     1            Position(A)                                  Velocity(au)
C        -0.03492990     0.02105919     0.03932230     0.00005879    -0.00003493    -0.00033273
N        -0.04439075    -0.05959740     1.28258574     0.00007685    -0.00005348     0.00020900
H         0.88664178    -0.03963450    -0.52929993    -0.00026903     0.00044707     0.00019243
H         0.84853284    -0.09937920     1.87262646    -0.00051436     0.00014580    -0.00046098
H        -0.91503909    -0.01673880     1.79331571    -0.00109583     0.00043605     0.00108414
H        -0.99997691     0.06321839    -0.53643004     0.00011073     0.00013048     0.00024502
     6
  Step:     2            Position(A)                                  Velocity(au)
C        -0.03462102     0.02089089     0.03725602     0.00005377    -0.00002677    -0.00042037
N        -0.04393525    -0.05991081     1.28396285     0.00008800    -0.00006093     0.00029317
H         0.88539831    -0.03721843    -0.52854596    -0.00018075     0.00043651     0.00008038
H         0.84535611    -0.09854423     1.86992375    -0.00063960     0.00015905    -0.00052135
H        -0.92126001    -0.01433460     1.79951511    -0.00116107     0.00044259     0.00117126
H        -0.99934615     0.06392378    -0.53519540     0.00011786     0.00012758     0.00020487
     6
  Step:     3            Position(A)                                  Velocity(au)
C        -0.03434175     0.02076635     0.03472413     0.00004798    -0.00001895    -0.00050220
N        -0.04342818    -0.06026390     1.28579257     0.00009557    -0.00006791     0.00037372
H         0.88466472    -0.03485975    -0.52842073    -0.00008329     0.00042587    -0.00003684
H         0.84153658    -0.09763947     1.86692373    -0.00074711     0.00017114    -0.00056806
H        -0.92773936    -0.01189754     1.80612741    -0.00118997     0.00044770     0.00123448
H        -0.99868769     0.06461386    -0.53418908     0.00012068     0.00012481     0.00016134
     6
  Step:     4            Position(A)                                  Velocity(au)
C        -0.03409605     0.02068355     0.03176099     0.00004152    -0.00001153    -0.00057693
N        -0.04288958    -0.06065391     1.28805208     0.00009935    -0.00007431     0.00044923
H         0.88448695    -0.03255860    -0.52894909     0.00002146     0.00041504    -0.00015764
H         0.83718131    -0.09667159     1.86370807    -0.00083265     0.00018185    -0.00059824
H        -0.93428044    -0.00943589     1.81302258    -0.00118311     0.00045098     0.00127361
H        -0.99802567     0.06528945    -0.53343008     0.00011895     0.00012215     0.00011426
     6
  Step:     5            Position(A)                                  Velocity(au)
C        -0.03388721     0.02064008     0.02840766     0.00003453    -0.00000460    -0.00064330
N        -0.04234040    -0.06107745     1.29071101     0.00009924    -0.00008000     0.00051827
H         0.88489972    -0.03031570    -0.53014662     0.00013111     0.00040392    -0.00028000
H         0.83242027    -0.09564851     1.86037394    -0.00089208     0.00019093    -0.00060916
H        -0.94069262    -0.00696001     1.82007153    -0.00114209     0.00045206     0.00128908
H        -0.99738535     0.06595118    -0.53293811     0.00011253     0.00011954     0.00006364
     6
  Step:     6            Position(A)                                  Velocity(au)
C        -0.03371764     0.02063314     0.02471141     0.00002721     0.00000178    -0.00070025
N        -0.04180207    -0.06153053     1.29373153     0.00009518    -0.00008487     0.00057949
H         0.88592366    -0.02813230    -0.53201741     0.00024274     0.00039244    -0.00040156
H         0.82740555    -0.09457927     1.85703269    -0.00092164     0.00019821    -0.00059855
H        -0.94679595    -0.00448208     1.82714881    -0.00106942     0.00045066     0.00128188
H        -0.99679251     0.06659940    -0.53273269     0.00010142     0.00011694     0.00000966
     6
  Step:     7            Position(A)                                  Velocity(au)
C        -0.03358863     0.02065957     0.02072495     0.00001979     0.00000753    -0.00074688
N        -0.04129614    -0.06200864     1.29706884     0.00008724    -0.00008886     0.00063169
H         0.88756290    -0.02601005    -0.53455237     0.00035311     0.00038057    -0.00051975
H         0.82230850    -0.09347381     1.85380702    -0.00091843     0.00020357    -0.00056483
H        -0.95242574    -0.00201562     1.83413557    -0.00096847     0.00044661     0.00125358
H        -0.99627265     0.06723420    -0.53283213     0.00008577     0.00011431    -0.00004730
     6
  Step:     8            Position(A)                                  Velocity(au)
C        -0.03350023     0.02071590     0.01650524     0.00001249     0.00001262    -0.00078259
N        -0.04084359    -0.06250687     1.30067208     0.00007559    -0.00009190     0.00067393
H         0.88980336    -0.02395088    -0.53772808     0.00045878     0.00036829    -0.00063187
H         0.81731447    -0.09234263     1.85082673    -0.00088070     0.00020694    -0.00050735
H        -0.95743682     0.00042497     1.84092230    -0.00084329     0.00043984     0.00120626
H        -0.99585009     0.06785542    -0.53325241     0.00006594     0.00011162    -0.00010668
     6
  Step:     9            Position(A)                                  Velocity(au)
C        -0.03345115     0.02079841     0.01211201     0.00000557     0.00001699    -0.00080714
N        -0.04046421    -0.06302002     1.30448581     0.00006056    -0.00009396     0.00070560
H         0.89261211    -0.02195678    -0.54150654     0.00055639     0.00035565    -0.00073537
H         0.81261584    -0.09119633     1.84822327    -0.00080829     0.00020838    -0.00042662
H        -0.96170669     0.00282509     1.84741122    -0.00069849     0.00043041     0.00114244
H        -0.99554697     0.06846262    -0.53400619     0.00004243     0.00010881    -0.00016775
     6
  Step:    10            Position(A)                                  Velocity(au)
C        -0.03343877     0.02090318     0.00760595    -0.00000073     0.00002063    -0.00082062
N        -0.04017587    -0.06354281     1.30845180     0.00004260    -0.00009506     0.00072649
H         0.89593795    -0.02002962    -0.54583599     0.00064283     0.00034271    -0.00082794
H         0.80840249    -0.09004512     1.84612296    -0.00070290     0.00020803    -0.00032441
H        -0.96513813     0.00517054     1.85351848    -0.00053902     0.00041851     0.00106499
H        -0.99538229     0.06905518    -0.53510192     0.00001593     0.00010588    -0.00022966
     6
  Step:    11            Position(A)                                  Velocity(au)
C        -0.03345925     0.02102626     0.00304677    -0.00000623     0.00002354    -0.00082350
N        -0.03999367    -0.06407008     1.31251123     0.00002228    -0.00009524     0.00073680
H         0.89971333    -0.01817091    -0.55065263     0.00071551     0.00032959    -0.00090777
H         0.80485106    -0.08889826     1.84463962    -0.00056814     0.00020613    -0.00020377
H        -0.96766112     0.00744828     1.85917597    -0.00037001     0.00040445     0.00097706
H        -0.99537096     0.06963225    -0.53654317    -0.00001271     0.00010279    -0.00029150
     6
  Step:    12            Position(A)                                  Velocity(au)
C        -0.03350774     0.02116375    -0.00150870    -0.00001077     0.00002576    -0.00081660
N        -0.03992925    -0.06459696     1.31660687     0.00000032    -0.00009460     0.00073714
H         0.90385732    -0.01638162    -0.55588331     0.00077250     0.00031644    -0.00097362
H         0.80211417    -0.08776362     1.84386759    -0.00040946     0.00020300    -0.00006888
H        -0.96923345     0.00964708     1.86433270    -0.00019653     0.00038867     0.00088193
H        -0.99552302     0.07019286    -0.53832826    -0.00004259     0.00009953    -0.00035235
     6
  Step:    13            Position(A)                                  Velocity(au)
C        -0.03357863     0.02131188    -0.00600832    -0.00001424     0.00002732    -0.00080103
N        -0.03999017    -0.06511907     1.32068523    -0.00002254    -0.00009325     0.00072848
H         0.90827946    -0.01466195    -0.56144885     0.00081267     0.00030344    -0.00102492
H         0.80031066    -0.08664724     1.84387581    -0.00023373     0.00019901     0.00007527
H        -0.96984043     0.01175812     1.86895549    -0.00002339     0.00037168     0.00078292
H        -0.99584320     0.07073593    -0.54045032    -0.00007272     0.00009611    -0.00041138
     6
  Step:    14            Position(A)                                  Velocity(au)
C        -0.03366586     0.02146719    -0.01040621    -0.00001650     0.00003097    -0.00083495
N        -0.04017958    -0.06563269     1.32469854    -0.00004644    -0.00009399     0.00075738
H         0.91288413    -0.01301116    -0.56726770     0.00080588     0.00033114    -0.00101557
H         0.79951803    -0.08555311     1.84470368    -0.00006780     0.00015687     0.00020068
H        -0.96949327     0.01377554     1.87302904     0.00017246     0.00039190     0.00066666
H        -0.99633074     0.07126035    -0.54289772    -0.00006857     0.00005719    -0.00042731
     6
  Step:    15            Position(A)                                  Velocity(au)
C        -0.03376221     0.02165638    -0.01529730    -0.00001730     0.00003671    -0.00091803
N        -0.04050679    -0.06616471     1.32911128    -0.00007064    -0.00009689     0.00082408
H         0.91724500    -0.01097791    -0.57274730     0.00075172     0.00037891    -0.00094821
H         0.79955639    -0.08490207     1.84610840     0.00008128     0.00009908     0.00030107
H        -0.96792181     0.01611807     1.87637221     0.00038546     0.00042771     0.00053460
H        -0.99660605     0.07137222    -0.54520429    -0.00003067     0.00000331    -0.00039990
     6
  Step:    16            Position(A)                                  Velocity(au)
C        -0.03385862     0.02187624    -0.02063640    -0.00001667     0.00004169    -0.00098993
N        -0.04096676    -0.06671241     1.33388184    -0.00009336    -0.00009914     0.00088068
H         0.92126103    -0.00878869    -0.57783422     0.00068297     0.00040079    -0.00087302
H         0.80042373    -0.08444904     1.84805867     0.00022732     0.00006892     0.00039588
H        -0.96519788     0.01854176     1.87898639     0.00058138     0.00043602     0.00040699
H        -0.99667249     0.07129723    -0.54735406     0.00000446    -0.00002493    -0.00037197
     6
  Step:    17            Position(A)                                  Velocity(au)
C        -0.03394834     0.02212182    -0.02634824    -0.00001493     0.00004576    -0.00104788
N        -0.04154904    -0.06727142     1.33894259    -0.00011378    -0.00010061     0.00092487
H         0.92486921    -0.00650369    -0.58249317     0.00060502     0.00041433    -0.00079305
H         0.80209408    -0.08413273     1.85052779     0.00036558     0.00004712     0.00048427
H        -0.96143161     0.02098557     1.88091559     0.00075444     0.00043638     0.00028968
H        -0.99655628     0.07109393    -0.54935675     0.00003401    -0.00004504    -0.00034661
     6
  Step:    18            Position(A)                                  Velocity(au)
C        -0.03402561     0.02238797    -0.03235441    -0.00001225     0.00004893    -0.00109221
N        -0.04223908    -0.06783747     1.34422428    -0.00013125    -0.00010139     0.00095713
H         0.92802675    -0.00415542    -0.58670253     0.00052151     0.00042315    -0.00071091
H         0.80451187    -0.08392216     1.85347410     0.00049128     0.00002994     0.00056388
H        -0.95676126     0.02342162     1.88222576     0.00090042     0.00043334     0.00018622
H        -0.99629217     0.07079359    -0.55123008     0.00005676    -0.00006047    -0.00032508
     6
  Step:    19            Position(A)                                  Velocity(au)
C        -0.03408553     0.02266977    -0.03857990    -0.00000879     0.00005127    -0.00112418
N        -0.04301897    -0.06840692     1.34966159    -0.00014535    -0.00010165     0.00097874
H         0.93070960    -0.00176483    -0.59045466     0.00043566     0.00042899    -0.00062911
H         0.80759594    -0.08379745     1.85684276     0.00060066     0.00001590     0.00063293
H        -0.95134781     0.02583853     1.88300105     0.00101630     0.00042937     0.00009940
H        -0.99592067     0.07041667    -0.55299738     0.00007197    -0.00007270    -0.00030828
     6
  Step:    20            Position(A)                                  Velocity(au)
C        -0.03412415     0.02296278    -0.04495739    -0.00000472     0.00005290    -0.00114565
N        -0.04386855    -0.06897703     1.35519672    -0.00015578    -0.00010157     0.00099138
H         0.93291085     0.00065393    -0.59375535     0.00035029     0.00043301    -0.00054986
H         0.81124570    -0.08374390     1.86056970     0.00069118     0.00000423     0.00069039
H        -0.94536780     0.02823524     1.88334007     0.00110022     0.00042625     0.00003130
H        -0.99548530     0.06997858    -0.55468616     0.00007935    -0.00008251    -0.00029683
     6
  Step:    21            Position(A)                                  Velocity(au)
C        -0.03413842     0.02326316    -0.05143005    -0.00000018     0.00005394    -0.00115856
N        -0.04476631    -0.06954613     1.36078143    -0.00016241    -0.00010133     0.00099682
H         0.93463863     0.00309206    -0.59662211     0.00026768     0.00043607    -0.00047487
H         0.81534849    -0.08375003     1.86458652     0.00076144    -0.00000559     0.00073597
H        -0.93900724     0.03061955     1.88335210     0.00115112     0.00042539    -0.00001665
H        -0.99503060     0.06949117    -0.55632681     0.00007888    -0.00009049    -0.00029110
     6
  Step:    22            Position(A)                                  Velocity(au)
C        -0.03412617     0.02356775    -0.05795201     0.00000468     0.00005448    -0.00116463
N        -0.04569020    -0.07011357     1.36637720    -0.00016518    -0.00010110     0.00099653
H         0.93591322     0.00554500    -0.59908162     0.00018960     0.00043877    -0.00040538
H         0.81978610    -0.08380655     1.86882444     0.00081089    -0.00001390     0.00076977
H        -0.93245667     0.03300653     1.88315333     0.00116841     0.00042791    -0.00004360
H        -0.99460052     0.06896365    -0.55795119     0.00007078    -0.00009705    -0.00029117
     6
  Step:    23            Position(A)                                  Velocity(au)
C        -0.03408601     0.02387398    -0.06448694     0.00000971     0.00005462    -0.00116506
N        -0.04661815    -0.07067961     1.37195375    -0.00016406    -0.00010099     0.00099156
H         0.93676423     0.00801125    -0.60116688     0.00011738     0.00044145    -0.00034213
H         0.82443952    -0.08390582     1.87321662     0.00083953    -0.00002098     0.00079213
H        -0.92590789     0.03541692     1.88286332     0.00115179     0.00043456    -0.00004921
H        -0.99423713     0.06840314    -0.55959119     0.00005540    -0.00010250    -0.00029687
     6
  Step:    24            Position(A)                                  Velocity(au)
C        -0.03401734     0.02417974    -0.07100523     0.00001480     0.00005441    -0.00116057
N        -0.04752830    -0.07124509     1.37748650    -0.00015908    -0.00010106     0.00098249
H         0.93722835     0.01049099    -0.60291484     0.00005212     0.00044423    -0.00028560
H         0.82919209    -0.08404157     1.87769939     0.00084772    -0.00002703     0.00080344
H        -0.91955220     0.03787532     1.88260200     0.00110126     0.00044584    -0.00003364
H        -0.99397985     0.06781530    -0.56127730     0.00003328    -0.00010705    -0.00030781
     6
  Step:    25            Position(A)                                  Velocity(au)
C        -0.03392035     0.02448322    -0.07748116     0.00001978     0.00005389    -0.00115148
N        -0.04839929    -0.07181115     1.38295412    -0.00015034    -0.00010133     0.00096961
H         0.93734779     0.01298509    -0.60436458    -0.00000525     0.00044710    -0.00023606
H         0.83393092    -0.08420841     1.88221223     0.00083614    -0.00003218     0.00080415
H        -0.91357770     0.04040868     1.88248669     0.00101760     0.00046192     0.00000236
H        -0.99386454     0.06720452    -0.56303752     0.00000511    -0.00011089    -0.00032340
     6
  Step:    26            Position(A)                                  Velocity(au)
C        -0.03379604     0.02478283    -0.08389085     0.00002450     0.00005309    -0.00113796
N        -0.04921071    -0.07237905     1.38833691    -0.00013805    -0.00010180     0.00095308
H         0.93716959     0.01549422    -0.60555648    -0.00005389     0.00044994    -0.00019371
H         0.83854886    -0.08440172     1.88669822     0.00080590    -0.00003654     0.00079490
H        -0.90816480     0.04304445     1.88262836     0.00090268     0.00048276     0.00005730
H        -0.99392264     0.06657439    -0.56489629    -0.00002821    -0.00011412    -0.00034293
     6
  Step:    27            Position(A)                                  Velocity(au)
C        -0.03364626     0.02507709    -0.09021120     0.00002882     0.00005202    -0.00112013
N        -0.04994364    -0.07294996     1.39361604    -0.00012256    -0.00010244     0.00093307
H         0.93674490     0.01801850    -0.60653161    -0.00009307     0.00045267    -0.00015870
H         0.84294636    -0.08461713     1.89110457     0.00075863    -0.00004017     0.00077653
H        -0.90347963     0.04580922     1.88312769     0.00075979     0.00050806     0.00012893
H        -0.99418013     0.06592788    -0.56687384    -0.00006562    -0.00011684    -0.00036560
     6
  Step:    28            Position(A)                                  Velocity(au)
C        -0.03347373     0.02536467    -0.09641990     0.00003257     0.00005071    -0.00109822
N        -0.05058154    -0.07352489     1.39877372    -0.00010436    -0.00010322     0.00090986
H         0.93612857     0.02055749    -0.60733161    -0.00012219     0.00045520    -0.00013111
H         0.84703448    -0.08485108     1.89538403     0.00069646    -0.00004320     0.00075017
H        -0.89966630     0.04872726     1.88407049     0.00059371     0.00053729     0.00021417
H        -0.99465660     0.06526743    -0.56898569    -0.00010588    -0.00011916    -0.00039055
     6
  Step:    29            Position(A)                                  Velocity(au)
C        -0.03328195     0.02564435    -0.10249581     0.00003562     0.00004920    -0.00107259
N        -0.05111096    -0.07410460     1.40379371    -0.00008408    -0.00010410     0.00088386
H         0.93537807     0.02311037    -0.60799823    -0.00014090     0.00045753    -0.00011093
H         0.85073695    -0.08510037     1.89949589     0.00062190    -0.00004568     0.00071712
H        -0.89683847     0.05181925     1.88552342     0.00041064     0.00056972     0.00030927
H        -0.99536449     0.06459499    -0.57124251    -0.00014767    -0.00012116    -0.00041693
     6
  Step:    30            Position(A)                                  Velocity(au)
C        -0.03307518     0.02591508    -0.10841966     0.00003787     0.00004751    -0.00104368
N        -0.05152224    -0.07468958     1.40866210    -0.00006246    -0.00010504     0.00085559
H         0.93455222     0.02567624    -0.60857271    -0.00014909     0.00045969    -0.00009802
H         0.85399213    -0.08536211     1.90340696     0.00053773    -0.00004766     0.00067885
H        -0.89507217     0.05510114     1.88753054     0.00021781     0.00060446     0.00040998
H        -0.99630864     0.06391194    -0.57365015    -0.00018961    -0.00012295    -0.00044391
     6
  Step:    31            Position(A)                                  Velocity(au)
C        -0.03285824     0.02617597    -0.11417459     0.00003920     0.00004568    -0.00101201
N        -0.05180994    -0.07527999     1.41336781    -0.00004027    -0.00010597     0.00082563
H         0.93370976     0.02825436    -0.60909513    -0.00014692     0.00046175    -0.00009211
H         0.85675414    -0.08563371     1.90709225     0.00044684    -0.00004920     0.00063688
H        -0.89440113     0.05858320     1.89011114     0.00002298     0.00064045     0.00051184
H        -0.99748623     0.06321915    -0.57620987    -0.00023037    -0.00012464    -0.00047073
     6
  Step:    32            Position(A)                                  Velocity(au)
C        -0.03263639     0.02642630    -0.11974655     0.00003958     0.00004373    -0.00097815
N        -0.05197302    -0.07587568     1.41790298    -0.00001829    -0.00010685     0.00079459
H         0.93290779     0.03084439    -0.60960369    -0.00013485     0.00046381    -0.00009280
H         0.85899340    -0.08591282     1.91053518     0.00035216    -0.00005035     0.00059272
H        -0.89481493     0.06226936     1.89325933    -0.00016607     0.00067656     0.00061047
H        -0.99888710     0.06251696    -0.57891879    -0.00026871    -0.00012631    -0.00049671
     6
  Step:    33            Position(A)                                  Velocity(au)
C        -0.03241513     0.02666552    -0.12512449     0.00003897     0.00004170    -0.00094263
N        -0.05201471    -0.07647612     1.42226294     0.00000275    -0.00010761     0.00076305
H         0.93220017     0.03344655    -0.61013396    -0.00011358     0.00046599    -0.00009955
H         0.86069638    -0.08619740     1.91372746     0.00025647    -0.00005116     0.00054783
H        -0.89626025     0.06615696     1.89694505    -0.00034208     0.00071163     0.00070180
H        -1.00049427     0.06180520    -0.58177031    -0.00030348    -0.00012806    -0.00052125
     6
  Step:    34            Position(A)                                  Velocity(au)
C        -0.03220003     0.02689323    -0.13030025     0.00003738     0.00003962    -0.00090597
N        -0.05194219    -0.07708047     1.42644609     0.00002221    -0.00010819     0.00073151
H         0.93163620     0.03606164    -0.61071823    -0.00008403     0.00046839    -0.00011173
H         0.86186481    -0.08648562     1.91666867     0.00016238    -0.00005167     0.00050355
H        -0.89864490     0.07023685     1.90111675    -0.00049871     0.00074458     0.00078237
H        -1.00228489     0.06108324    -0.58475473    -0.00033375    -0.00012996    -0.00054386
     6
  Step:    35            Position(A)                                  Velocity(au)
C        -0.03199655     0.02710918    -0.13526845     0.00003485     0.00003751    -0.00086865
N        -0.05176603    -0.07768755     1.43045346     0.00003954    -0.00010856     0.00070040
H         0.93125925     0.03869105    -0.61138493    -0.00004739     0.00047114    -0.00012859
H         0.86251454    -0.08677589     1.91936562     0.00007227    -0.00005191     0.00046110
H        -0.90184413     0.07449390     1.90570509    -0.00063085     0.00077443     0.00084943
H        -1.00423118     0.06035004    -0.58785980    -0.00035874    -0.00013211    -0.00056415
     6
  Step:    36            Position(A)                                  Velocity(au)
C        -0.03180981     0.02731321    -0.14002621     0.00003145     0.00003538    -0.00083106
N        -0.05149951    -0.07829593     1.43428829     0.00005432    -0.00010865     0.00067007
H         0.93110562     0.04133687    -0.61215802    -0.00000497     0.00047433    -0.00014934
H         0.86267400    -0.08706679     1.92183152    -0.00001178    -0.00005192     0.00042155
H        -0.90570836     0.07890789     1.91062751    -0.00073488     0.00080037     0.00090103
H        -1.00630157     0.05960405    -0.59107139    -0.00037788    -0.00013455    -0.00058184
     6
  Step:    37            Position(A)                                  Velocity(au)
C        -0.03164449     0.02750531    -0.14457283     0.00002726     0.00003326    -0.00079357
N        -0.05115791    -0.07890397     1.43795545     0.00006626    -0.00010845     0.00064076
H         0.93120366     0.04400149    -0.61305685     0.00004177     0.00047800    -0.00017311
H         0.86238266    -0.08735715     1.92408519    -0.00008797    -0.00005174     0.00038580
H        -0.91007167     0.08345463     1.91579283    -0.00080863     0.00082181     0.00093609
H        -1.00846184     0.05884366    -0.59437398    -0.00039080    -0.00013730    -0.00059674
     6
  Step:    38            Position(A)                                  Velocity(au)
C        -0.03150469     0.02768551    -0.14890949     0.00002240     0.00003115    -0.00075648
N        -0.05075774    -0.07950994     1.44146098     0.00007522    -0.00010795     0.00061262
H         0.93157319     0.04668766    -0.61409583     0.00009127     0.00048224    -0.00019904
H         0.86168923    -0.08764596     1.92615013    -0.00015484    -0.00005140     0.00035459
H        -0.91476019     0.08810728     1.92110604    -0.00085139     0.00083841     0.00095428
H        -1.01067618     0.05806706    -0.59775132    -0.00039731    -0.00014041    -0.00060876
     6
  Step:    39            Position(A)                                  Velocity(au)
C        -0.03139377     0.02785394    -0.15303897     0.00001701     0.00002907    -0.00072004
N        -0.05031606    -0.08011204     1.44481160     0.00008115    -0.00010713     0.00058574
H         0.93222513     0.04939840    -0.61528441     0.00014196     0.00048706    -0.00022625
H         0.86064975    -0.08793236     1.92805356    -0.00021124    -0.00005092     0.00032851
H        -0.91959990     0.09283765     1.92647256    -0.00086369     0.00085003     0.00095599
H        -1.01290836     0.05727231    -0.60118686    -0.00039742    -0.00014388    -0.00061788
     6
  Step:    40            Position(A)                                  Velocity(au)
C        -0.03131433     0.02801079    -0.15696537     0.00001123     0.00002703    -0.00068445
N        -0.04984985    -0.08070854     1.44801431     0.00008410    -0.00010602     0.00056013
H         0.93316143     0.05213692    -0.61662716     0.00019227     0.00049250    -0.00025390
H         0.85932582    -0.08821564     1.92982552    -0.00025636    -0.00005033     0.00030797
H        -0.92442325     0.09761749     1.93180178    -0.00084713     0.00085676     0.00094217
H        -1.01512259     0.05645732    -0.60466424    -0.00039128    -0.00014774    -0.00062418
     6
  Step:    41            Position(A)                                  Velocity(au)
C        -0.03126814     0.02815627    -0.16069380     0.00000521     0.00002504    -0.00064986
N        -0.04937552    -0.08129778     1.45107613     0.00008421    -0.00010464     0.00053577
H         0.93437542     0.05490649    -0.61812400     0.00024070     0.00049856    -0.00028119
H         0.85778266    -0.08849524     1.93149787    -0.00028969    -0.00004965     0.00029322
H        -0.92907417     0.10241960     1.93700983    -0.00080406     0.00085885     0.00091417
H        -1.01728442     0.05561999    -0.60816767    -0.00037917    -0.00015200    -0.00062777
     6
  Step:    42            Position(A)                                  Velocity(au)
C        -0.03125613     0.02829068    -0.16423025    -0.00000092     0.00002309    -0.00061640
N        -0.04890847    -0.08187831     1.45400383     0.00008169    -0.00010302     0.00051260
H         0.93585225     0.05771038    -0.61977059     0.00028587     0.00050523    -0.00030739
H         0.85608730    -0.08877070     1.93310344    -0.00031108    -0.00004890     0.00028434
H        -0.93341200     0.10721873     1.94202152    -0.00073743     0.00085672     0.00087364
H        -1.01936141     0.05475813    -0.61168225    -0.00036150    -0.00015666    -0.00062884
     6
  Step:    43            Position(A)                                  Velocity(au)
C        -0.03127844     0.02841430    -0.16758127    -0.00000701     0.00002121    -0.00058415
N        -0.04846279    -0.08244887     1.45680380     0.00007678    -0.00010120     0.00049053
H         0.93756967     0.06055181    -0.62155870     0.00032654     0.00051250    -0.00033187
H         0.85430670    -0.08904168     1.93467502    -0.00032068    -0.00004811     0.00028126
H        -0.93731404     0.11199236     1.94677167    -0.00065053     0.00085089     0.00082240
H        -1.02132368     0.05386956    -0.61519417    -0.00033874    -0.00016172    -0.00062759
     6
  Step:    44            Position(A)                                  Velocity(au)
C        -0.03133442     0.02852750    -0.17075387    -0.00001293     0.00001938    -0.00055317
N        -0.04805102    -0.08300844     1.45948192     0.00006978    -0.00009922     0.00046946
H         0.93949896     0.06343385    -0.62347677     0.00036164     0.00052034    -0.00035406
H         0.85250600    -0.08930796     1.93624448    -0.00031896    -0.00004728     0.00028374
H        -0.94067698     0.11672123     1.95120579    -0.00054682     0.00084196     0.00076232
H        -1.02314431     0.05295209    -0.61869094    -0.00031143    -0.00016719    -0.00062424
     6