|===============================================================================
|
|  DFTB+ release 20.1
|
|  Copyright (C) 2006 - 2020  DFTB+ developers group
|
|===============================================================================
|
|  When publishing results obtained with DFTB+, please cite the following
|  reference:
|
|  * DFTB+, a software package for efficient approximate density functional
|    theory based atomistic simulations, J. Chem. Phys. 152, 124101 (2020).
|    [doi: 10.1063/1.5143190]
|
|  You should also cite additional publications crediting the parametrization
|  data you use. Please consult the documentation of the SK-files for the
|  references.
|
|===============================================================================

Reading input file 'dftb_in.hsd'
Parser version: 8

--------------------------------------------------------------------------------
Reading SK-files:
Done.


Processed input in HSD format written to 'dftb_pin.hsd'

Starting initialization...
--------------------------------------------------------------------------------
OpenMP threads:              1
Chosen random seed:          449652332
Mode:                        Static calculation
Self consistent charges:     Yes
SCC-tolerance:                 0.100000E-05
Max. scc iterations:                   1000
Shell resolved Hubbard:      No
Spin polarisation:           No
Nr. of up electrons:             6.000000
Nr. of down electrons:           6.000000
Periodic boundaries:         No
Electronic solver:           Relatively robust
Maximal SCC-cycles:                    1000
Initial charges:             Set automatically (system chrg:   0.100E+01)
Included shells:             C:  s, p
                             N:  s, p
                             H:  s
Spin coupling constants:     C   1(s)-1(s):  -0.455900E-01
                             C   1(s)-2(p):  -0.293000E-01
                             C   2(p)-1(s):  -0.293000E-01
                             C   2(p)-2(p):  -0.275500E-01
                             N   1(s)-1(s):  -0.468700E-01
                             N   1(s)-2(p):  -0.317000E-01
                             N   2(p)-1(s):  -0.317000E-01
                             N   2(p)-2(p):  -0.307200E-01
                             H   1(s)-1(s):  -0.792500E-01
Range separated hybrid:      Yes
  Screening parameter omega:   0.300000E+00
  Range separated algorithm:   MatrixBased
Extra options:
                             Mulliken analysis
                             Force calculation
Force type                   original
                             Eigenvector printing


REKS Calcuation:             Yes
SSR(2,2) Calcuation:         Yes
Energy Functional:           (PPS+OSS)/2
Number of Core Orbitals:                  5
Number of Active Orbitals:                2
Number of Basis:                         12
Number of States:                         2
State-Averaging Weight:          0.500000
                                 0.500000
State of Interest:                        1
Initial Guess:               Diagonalize H0 matrix
Newton-Raphson for FON opt:  Yes
NR max. Iterations:                      50
Level Shifting:              Yes
Shift Value:                     0.300000
W Scale Factor:              C  =    3.200000
                             N  =    3.200000
                             H  =    3.200000
Transition Dipole:           No
Gradient of Microstate:      No
CP-REKS Solver:              Preconditioned Conjugate-Gradient
CG max. Iterations:                     100
CG Tolerance:                  0.100000E-07
Memory for A and Hxc:        Direct Updating Without Saving
Non-Adiabatic Coupling:      Yes

--------------------------------------------------------------------------------

***  Geometry step: 0

  iSCC       reks energy        Diff energy         x_a       SCC error   
    1       -6.1850846648       0.0000000000     0.934876    1.05453175
    2       -6.1956895371      -0.0106048723     0.976592    0.08902816
    3       -6.2013016393      -0.0056121023     0.997178    0.04815198
    4       -6.2049544490      -0.0036528097     0.999673    0.03449379
    5       -6.2068677064      -0.0019132574     0.999946    0.02860751
    6       -6.2077975190      -0.0009298126     0.999986    0.02043769
    7       -6.2082614689      -0.0004639500     0.999994    0.01405209
    8       -6.2085042477      -0.0002427788     0.999997    0.00979982
    9       -6.2086359425      -0.0001316948     0.999998    0.00697946
   10       -6.2087090846      -0.0000731421     0.999998    0.00504663
   11       -6.2087503525      -0.0000412680     0.999999    0.00368737
   12       -6.2087739003      -0.0000235478     0.999999    0.00271519
   13       -6.2087874533      -0.0000135530     0.999999    0.00201156
   14       -6.2087953085      -0.0000078552     0.999999    0.00149765
   15       -6.2087998882      -0.0000045797     0.999999    0.00111960
   16       -6.2088025719      -0.0000026837     0.999999    0.00083985
   17       -6.2088041515      -0.0000015796     0.999999    0.00063182
   18       -6.2088050849      -0.0000009334     0.999999    0.00047652
   19       -6.2088056383      -0.0000005534     0.999999    0.00036017
   20       -6.2088059674      -0.0000003291     0.999999    0.00027276
   21       -6.2088061637      -0.0000001963     0.999999    0.00020692
   22       -6.2088062810      -0.0000001173     0.999999    0.00015723
   23       -6.2088063513      -0.0000000703     0.999999    0.00011964
   24       -6.2088063935      -0.0000000422     0.999999    0.00009116
   25       -6.2088064188      -0.0000000254     0.999999    0.00006955
   26       -6.2088064341      -0.0000000153     0.999999    0.00005313
   27       -6.2088064433      -0.0000000092     0.999999    0.00004143
   28       -6.2088064488      -0.0000000056     0.999999    0.00003241
   29       -6.2088064522      -0.0000000034     0.999999    0.00002535
   30       -6.2088064542      -0.0000000020     0.999999    0.00001982
   31       -6.2088064555      -0.0000000012     0.999999    0.00001549
   32       -6.2088064562      -0.0000000007     0.999999    0.00001211
   33       -6.2088064567      -0.0000000004     0.999999    0.00000946
   34       -6.2088064569      -0.0000000003     0.999999    0.00000739
   35       -6.2088064571      -0.0000000002     0.999999    0.00000577
   36       -6.2088064572      -0.0000000001     0.999999    0.00000451
   37       -6.2088064572      -0.0000000001     0.999999    0.00000352
   38       -6.2088064573      -0.0000000000     0.999999    0.00000275
   39       -6.2088064573      -0.0000000000     0.999999    0.00000215
   40       -6.2088064573      -0.0000000000     0.999999    0.00000168
   41       -6.2088064573      -0.0000000000     0.999999    0.00000131
   42       -6.2088064573      -0.0000000000     0.999999    0.00000102
   43       -6.2088064573      -0.0000000000     0.999999    0.00000080
  
--------------------------------------------------
 Final SA-REKS(2,2) energy:      -6.20880646
  
 State     Energy      FON(1)    FON(2)   Spin
  PPS   -6.22865182   1.999998  0.000002  0.00
  OSS   -6.18896110   1.000000  1.000000  0.00
 Trip   -6.22047949   1.000000  1.000000  1.00
--------------------------------------------------

 Lagrangian Wab:  -0.04443652 -0.04443652

--------------------------------------------------
 SSR: 2SI-2SA-REKS(2,2) Hamiltonian matrix
               PPS           OSS
   PPS    -6.22865182   -0.06278474
   OSS    -0.06278474   -6.18896110
--------------------------------------------------

----------------------------------------------------------------
 SSR: 2SI-2SA-REKS(2,2) states
                    E_n       C_{PPS}    C_{OSS}
 SSR state  1   -6.27465296  -0.806656  -0.591021
 SSR state  2   -6.14295995   0.591021  -0.806656
----------------------------------------------------------------

 unrelaxed SSR FONs for S0:  1.650693  0.349307

Total Energy:                       -6.2746529611 H         -170.7420 eV
Extrapolated to 0:                  -6.2746529611 H         -170.7420 eV

----------------------------------------------------------------------------------
 Solving CP-REKS equation for  1 state vector...
----------------------------------------------------------------------------------
  CG solver: Constructing Y initial guess
  CG solver: Iteration    1    eps =    0.004999701574
  CG solver: Iteration    2    eps =    0.000171852615
  CG solver: Iteration    3    eps =    0.000007257237
  CG solver: Iteration    4    eps =    0.000000881282
  CG solver: Iteration    5    eps =    0.000000068545
  CG solver: Iteration    6    eps =    0.000000011283
  CG solver: Iteration    7    eps =    0.000000000455
  Convergence reached in CG solver after    7 iterations
  CG solver: Calculating converged R, Z, Q2 matrix
----------------------------------------------------------------------------------

----------------------------------------------------------------------------------
 Solving CP-REKS equation for SI between  1 and  2 state vectors...
----------------------------------------------------------------------------------
  CG solver: Constructing Y initial guess
  CG solver: Iteration    1    eps =    0.005036110538
  CG solver: Iteration    2    eps =    0.000886898370
  CG solver: Iteration    3    eps =    0.000028921154
  CG solver: Iteration    4    eps =    0.000001755261
  CG solver: Iteration    5    eps =    0.000000480848
  CG solver: Iteration    6    eps =    0.000000028667
  CG solver: Iteration    7    eps =    0.000000000759
  Convergence reached in CG solver after    7 iterations
  CG solver: Calculating converged R, Z, Q2 matrix
----------------------------------------------------------------------------------

--------------------------------------------------
 Gradient Information
--------------------------------------------------
           1 st state (SSR)
     0.04369627     0.03767003    -0.10927564
    -0.01596531     0.10728694     0.05074120
    -0.01561575    -0.04081322    -0.05123894
    -0.02959015     0.04027567     0.01275784
     0.04167648    -0.05040084     0.00469214
    -0.02420155    -0.09401858     0.09232340

           2 st state (SSR)
     0.02819687     0.07862249     0.01020258
     0.02727216     0.06747748    -0.06796711
     0.01119308    -0.04776749    -0.04263960
    -0.00174763     0.05369052     0.01076633
     0.00465630    -0.06423739     0.01067142
    -0.06957078    -0.08778560     0.07896638
--------------------------------------------------
 Coupling Information
--------------------------------------------------
 between  1 and  2 states
--------------------------------------------------
 g vector - difference gradient
     0.00861747    -0.01790134    -0.09182224
    -0.01677415     0.01570825     0.08644893
    -0.01039694     0.00476888    -0.00061254
    -0.01402851    -0.00302019     0.00068165
     0.01377963     0.00567083     0.00143084
     0.01880249    -0.00522643     0.00387337

 h vector - derivative coupling
     0.00540376    -0.01581642    -0.03362865
    -0.01737092     0.01591025     0.03492335
    -0.01077177     0.00213933    -0.00431573
    -0.01016593    -0.00607988     0.00082886
     0.01505721     0.00546318    -0.00358770
     0.01784766    -0.00161647     0.00577988

 G vector - GDV
     0.00774970    -0.02047623    -0.05973911
    -0.02161873     0.01990473     0.05935416
    -0.01340441     0.00347714    -0.00429967
    -0.01392126    -0.00670742     0.00099576
     0.01851009     0.00691827    -0.00298964
     0.02268462    -0.00311649     0.00667851

 H vector - DCV - non-adiabatic coupling
    -0.05002652     0.09341476     0.58786240
     0.08169596    -0.07732131    -0.54599482
     0.05062539    -0.02963228    -0.00544184
     0.07830569     0.00795301    -0.00303845
    -0.06530975    -0.02855588    -0.01857045
    -0.09529078     0.03414168    -0.01481684
--------------------------------------------------


--------------------------------------------------------------------------------
DFTB+ running times                          cpu [s]             wall clock [s]
--------------------------------------------------------------------------------
SCC                                    +     0.02  ( 62.6%)      0.02  ( 57.9%)
Post-SCC processing                    +     0.01  ( 32.9%)      0.01  ( 28.9%)
  Force calculation                          0.01  ( 32.2%)      0.01  ( 26.3%)
--------------------------------------------------------------------------------
Missing                                +     0.00  (  4.5%)      0.00  ( 13.2%)
Total                                  =     0.03  (100.0%)      0.04  (100.0%)
--------------------------------------------------------------------------------
