 Fermi distribution function

Calculation with static geometry


********************************************************************************
 iSCC Total electronic   Diff electronic      SCC error    
   10   -0.53360493E+01   -0.51424376E-09    0.82228033E-06
********************************************************************************

 Total charge:     1.00000000

 Atomic gross charges (e)
 Atom           Charge
    1       0.25948410
    2      -0.14069876
    3       0.17703922
    4       0.26308502
    5       0.26400027
    6       0.17709014

Nr. of electrons (up):     12.00000000
Atom populations (up)
 Atom       Population
    1       3.74051590
    2       5.14069876
    3       0.82296078
    4       0.73691498
    5       0.73599973
    6       0.82290986

l-shell populations (up)
 Atom Sh.   l       Population
    1   1   0       1.36229904
    1   2   1       2.37821686
    2   1   0       1.49515427
    2   2   1       3.64554449
    3   1   0       0.82296078
    4   1   0       0.73691498
    5   1   0       0.73599973
    6   1   0       0.82290986

Orbital populations (up)
 Atom Sh.   l   m       Population  Label
    1   1   0   0       1.36229904  s
    1   2   1  -1       0.47583958  p_y
    1   2   1   0       0.88847187  p_z
    1   2   1   1       1.01390542  p_x
    2   1   0   0       1.49515427  s
    2   2   1  -1       1.31831211  p_y
    2   2   1   0       1.16517598  p_z
    2   2   1   1       1.16205640  p_x
    3   1   0   0       0.82296078  s
    4   1   0   0       0.73691498  s
    5   1   0   0       0.73599973  s
    6   1   0   0       0.82290986  s

Fermi level:                        -0.5266386959 H          -14.3306 eV
Band energy:                        -8.8422645135 H         -240.6103 eV
TS:                                  0.0000000000 H            0.0000 eV
Band free energy (E-TS):            -8.8422645135 H         -240.6103 eV
Extrapolated E(0K):                 -8.8422645135 H         -240.6103 eV
Input / Output electrons (q):     12.0000000000     12.0000000000

Energy H0:                          -5.4738787346 H         -148.9518 eV
Energy SCC:                          0.1378294697 H            3.7505 eV
Total Electronic energy:            -5.3360492649 H         -145.2013 eV
Repulsive energy:                    0.1621950880 H            4.4136 eV
Total energy:                       -5.1738541769 H         -140.7877 eV
Extrapolated to 0:                  -5.1738541769 H         -140.7877 eV
Total Mermin free energy:           -5.1738541769 H         -140.7877 eV
Force related energy:               -5.1738541769 H         -140.7877 eV

SCC converged

Excitation Energy:                   0.1525856878 H            4.1521 eV

Total Forces
    1      0.032016278799      0.007976234215      0.042115779740
    2     -0.042726889928     -0.007743306367     -0.032108092696
    3      0.004943136474      0.006384719155     -0.018949213980
    4      0.009897365090     -0.011545298779      0.000079673358
    5      0.010399902259      0.018809361350      0.012364422294
    6     -0.014529792693     -0.013881709574     -0.003502568715

Maximal derivative component:        0.427269E-01 au


