     6
  Step:   120            Position(A)                                  Velocity(au)
C        -0.04718609    -0.04579781    -0.03586403    -0.00008790    -0.00019931    -0.00004752
N        -0.04326754    -0.04383458     1.35809775    -0.00002068     0.00010773    -0.00007764
H         0.91607536     0.09049971    -0.64517666     0.00019938    -0.00019160     0.00046018
H         0.86538703     0.07622211     1.85611019    -0.00019648     0.00072424     0.00033008
H        -0.94564196    -0.20968172     1.84276383     0.00068293    -0.00116391     0.00008959
H        -0.88523277     0.52805684    -0.60691668     0.00064900     0.00150923     0.00076527
