     6
  Step:     0            Position(A)                                  Velocity(au)
C        -0.03856591     0.00908592     0.03760855     0.00010667     0.00003727    -0.00005951
N        -0.03726368    -0.05923724     1.28225352    -0.00008823     0.00004927     0.00007837
H         0.89341255     0.01476490    -0.52651604    -0.00092961    -0.00022640     0.00014836
H         0.78704057    -0.07976559     1.83197965     0.00089016    -0.00038565     0.00043475
H        -0.95250467    -0.02332315     1.82934380     0.00033417    -0.00028755    -0.00083031
H        -0.96350366     0.13345946    -0.50955749    -0.00033977    -0.00022917    -0.00013280
     6
  Step:     1            Position(A)                                  Velocity(au)
C        -0.03797614     0.00928508     0.03684695     0.00010780     0.00003557    -0.00021827
N        -0.03781087    -0.05900637     1.28305463    -0.00011024     0.00003511     0.00021435
H         0.88865205     0.01366376    -0.52572821    -0.00080254    -0.00017574     0.00013419
H         0.79254296    -0.08173530     1.83466729     0.00110654    -0.00033466     0.00053918
H        -0.95043181    -0.02477553     1.82462208     0.00041604    -0.00024258    -0.00089029
H        -0.96574238     0.13240141    -0.51036888    -0.00047279    -0.00015879    -0.00016095
     6
  Step:     2            Position(A)                                  Velocity(au)
C        -0.03738680     0.00947497     0.03522121     0.00010647     0.00003383    -0.00037502
N        -0.03846940    -0.05885319     1.28459802    -0.00012868     0.00002084     0.00034928
H         0.88463462     0.01284275    -0.52504832    -0.00065967    -0.00012365     0.00010894
H         0.79914358    -0.08342600     1.83787698     0.00128957    -0.00028326     0.00062512
H        -0.94795420    -0.02597645     1.81960608     0.00048069    -0.00019531    -0.00093628
H        -0.96867484     0.13172269    -0.51131787    -0.00059116    -0.00009046    -0.00018280
     6
  Step:     3            Position(A)                                  Velocity(au)
C        -0.03681153     0.00965512     0.03274489     0.00010259     0.00003198    -0.00052842
N        -0.03921841    -0.05877844     1.28687513    -0.00014299     0.00000645     0.00048175
H         0.88143653     0.01231126    -0.52453659    -0.00050484    -0.00006981     0.00007283
H         0.80664842    -0.08483364     1.84150492     0.00143433    -0.00023095     0.00069150
H        -0.94517393    -0.02691191     1.81438095     0.00052493    -0.00014542    -0.00096427
H        -0.97220857     0.13141199    -0.51236842    -0.00068994    -0.00002446    -0.00019794
     6
  Step:     4            Position(A)                                  Velocity(au)
C        -0.03626411     0.00982495     0.02943836     0.00009620     0.00003010    -0.00067666
N        -0.04003418    -0.05878265     1.28987006    -0.00015263    -0.00000790     0.00060991
H         0.87910991     0.01207882    -0.52425125    -0.00034304    -0.00001494     0.00002650
H         0.81484030    -0.08595340     1.84544441     0.00153663    -0.00017829     0.00073785
H        -0.94220956    -0.02756786     1.80905351     0.00054573    -0.00009362    -0.00097022
H        -0.97622527     0.13145497    -0.51348405    -0.00076473     0.00003798    -0.00020658
     6
  Step:     5            Position(A)                                  Velocity(au)
C        -0.03575758     0.00998485     0.02533182     0.00008753     0.00002842    -0.00081710
N        -0.04089053    -0.05886497     1.29355690    -0.00015719    -0.00002180     0.00073124
H         0.87767840     0.01214758    -0.52424632    -0.00017940     0.00003880    -0.00002888
H         0.82348272    -0.08678692     1.84958835     0.00159330    -0.00012714     0.00076399
H        -0.93919527    -0.02793751     1.80375186     0.00054028    -0.00004196    -0.00095066
H        -0.98058638     0.13182802    -0.51463159    -0.00081291     0.00009464    -0.00020953
     6
  Step:     6            Position(A)                                  Velocity(au)
C        -0.03530350     0.01013684     0.02047116     0.00007689     0.00002719    -0.00094596
N        -0.04175922    -0.05902192     1.29789504    -0.00015635    -0.00003474     0.00084231
H         0.87714107     0.01250464    -0.52456814    -0.00001779     0.00008854    -0.00009134
H         0.83232590    -0.08734873     1.85382876     0.00160280    -0.00007984     0.00076967
H        -0.93628023    -0.02802832     1.79862055     0.00050605     0.00000689    -0.00090344
H        -0.98514659     0.13249360    -0.51578356    -0.00083472     0.00014313    -0.00020783
     6
  Step:     7            Position(A)                                  Velocity(au)
C        -0.03491161     0.01028404     0.01492447     0.00006466     0.00002649    -0.00105878
N        -0.04261062    -0.05924717     1.30282386    -0.00014999    -0.00004625     0.00093913
H         0.87748269     0.01312171    -0.52525126     0.00013937     0.00013206    -0.00015830
H         0.84111648    -0.08766534     1.85805616     0.00156575    -0.00003800     0.00075496
H        -0.93362773    -0.02786170     1.79381233     0.00044131     0.00005096    -0.00082827
H        -0.98976989     0.13340268    -0.51691811    -0.00083273     0.00018202    -0.00020246
     6
  Step:     8            Position(A)                                  Velocity(au)
C        -0.03458976     0.01042924     0.00878470     0.00005125     0.00002616    -0.00115131
N        -0.04341473    -0.05953240     1.30826083    -0.00013826    -0.00005606     0.00101798
H         0.87867935     0.01396230    -0.52631543     0.00028996     0.00016849    -0.00022682
H         0.84960811    -0.08776813     1.86216177     0.00148500    -0.00000201     0.00072079
H        -0.93140921    -0.02746586     1.78947839     0.00034614     0.00008956    -0.00072679
H        -0.99433792     0.13450267    -0.51801821    -0.00081048     0.00021126    -0.00019435
     6
  Step:     9            Position(A)                                  Velocity(au)
C        -0.03434370     0.01057390     0.00216670     0.00003712     0.00002595    -0.00122054
N        -0.04414273    -0.05986833     1.31410416    -0.00012167    -0.00006405     0.00107622
H         0.88069580     0.01498876    -0.52776466     0.00043133     0.00019796    -0.00029403
H         0.85757187    -0.08768760     1.86604325     0.00136562     0.00002846     0.00066936
H        -0.92979213    -0.02686934     1.78575876     0.00022324     0.00012286    -0.00060252
H        -0.99875088     0.13574362    -0.51907175    -0.00077168     0.00023164    -0.00018452
     6
  Step:    10            Position(A)                                  Velocity(au)
C        -0.03417664     0.01071804    -0.00480010     0.00002280     0.00002564    -0.00126539
N        -0.04476899    -0.06024533     1.32023942    -0.00010110    -0.00007026     0.00111298
H         0.88348019     0.01616566    -0.52958800     0.00056040     0.00022112    -0.00035747
H         0.86480775    -0.08745135     1.86961193     0.00121495     0.00005397     0.00060425
H        -0.92892446    -0.02609837     1.78277227     0.00007807     0.00015139    -0.00046078
H        -1.00292691     0.13708090    -0.52007198    -0.00072014     0.00024438    -0.00017402
     6
  Step:    11            Position(A)                                  Velocity(au)
C        -0.03408881     0.01086062    -0.01198202     0.00000884     0.00002511    -0.00128720
N        -0.04527319    -0.06065396     1.32654877    -0.00007774    -0.00007482     0.00112948
H         0.88696185     0.01746118    -0.53176167     0.00067451     0.00023888    -0.00041538
H         0.87115665    -0.08708412     1.87279953     0.00104216     0.00007510     0.00052999
H        -0.92891925    -0.02517656     1.78060665    -0.00008186     0.00017576    -0.00030819
H        -1.00680295     0.13847611    -0.52101756    -0.00065987     0.00025086    -0.00016383
     6
  Step:    12            Position(A)                                  Velocity(au)
C        -0.03407739     0.01099999    -0.01925385    -0.00000427     0.00002431    -0.00128971
N        -0.04564193    -0.06108552     1.33292219    -0.00005292    -0.00007799     0.00112906
H         0.89105418     0.01884797    -0.53425225     0.00077220     0.00025237    -0.00046677
H         0.87651006    -0.08660802     1.87556306     0.00085719     0.00009248     0.00045153
H        -0.92984363    -0.02412477     1.77931166    -0.00024821     0.00019669    -0.00015167
H        -1.01033644     0.13989778    -0.52191164    -0.00059499     0.00025263    -0.00015473
     6
  Step:    13            Position(A)                                  Velocity(au)
C        -0.03413688     0.01113447    -0.02651185    -0.00001617     0.00002327    -0.00127836
N        -0.04586938    -0.06153262     1.33926874    -0.00002787    -0.00008012     0.00111652
H         0.89566150     0.02030434    -0.53702028     0.00085354     0.00026289    -0.00051134
H         0.88081377    -0.08604222     1.87788647     0.00066924     0.00010682     0.00037348
H        -0.93171558    -0.02296062     1.77889790    -0.00041337     0.00021504     0.00000273
H        -1.01350610     0.14132225    -0.52276076    -0.00052943     0.00025132    -0.00014746
     6
  Step:    14            Position(A)                                  Velocity(au)
C        -0.03425992     0.01126263    -0.03368247    -0.00002669     0.00002206    -0.00125890
N        -0.04595650    -0.06198978     1.34552414    -0.00000357    -0.00008157     0.00109692
H         0.90068790     0.02181512    -0.54002366     0.00091987     0.00027173    -0.00054954
H         0.88406358    -0.08540241     1.87977841     0.00048542     0.00011886     0.00029944
H        -0.93450921    -0.02169765     1.77934245    -0.00057128     0.00023169     0.00015067
H        -1.01631198     0.14273437    -0.52357602    -0.00046641     0.00024845    -0.00014277
     6
  Step:    15            Position(A)                                  Velocity(au)
C        -0.03443822     0.01138345    -0.04072364    -0.00005600     0.00003243    -0.00193468
N        -0.04590963    -0.06245346     1.35165199     0.00003023    -0.00012939     0.00168174
H         0.90604595     0.02337191    -0.54322404     0.00152303     0.00043824    -0.00091140
H         0.88629376    -0.08470045     1.88126687     0.00048583     0.00020237     0.00036289
H        -0.93816483    -0.02034507     1.78059886    -0.00112301     0.00038722     0.00045322
H        -1.01877139     0.14412698    -0.52437253    -0.00063866     0.00038381    -0.00022101
     6
  Step:    16            Position(A)                                  Velocity(au)
C        -0.03476303     0.01154778    -0.05117382    -0.00005759     0.00002541    -0.00174837
N        -0.04568180    -0.06315965     1.36077595     0.00004862    -0.00011945     0.00153323
H         0.91488983     0.02579936    -0.54874882     0.00157978     0.00041769    -0.00102429
H         0.88856295    -0.08357244     1.88313600     0.00032060     0.00019503     0.00030047
H        -0.94485482    -0.01822491     1.78354589    -0.00121953     0.00036020     0.00057549
H        -1.02249033     0.14630665    -0.52592930    -0.00067016     0.00038426    -0.00032429
     6
  Step:    17            Position(A)                                  Velocity(au)
C        -0.03509241     0.01167203    -0.06058259    -0.00005770     0.00001840    -0.00156978
N        -0.04535743    -0.06381024     1.36906718     0.00006409    -0.00010990     0.00139009
H         0.92398990     0.02811630    -0.55485853     0.00161369     0.00039936    -0.00111806
H         0.88993532    -0.08248516     1.88467978     0.00017076     0.00018817     0.00024849
H        -0.95201693    -0.01625370     1.78713563    -0.00128834     0.00033470     0.00067928
H        -1.02638346     0.14849161    -0.52805601    -0.00069914     0.00038571    -0.00042142
     6
  Step:    18            Position(A)                                  Velocity(au)
C        -0.03541824     0.01175676    -0.06899839    -0.00005667     0.00001159    -0.00140512
N        -0.04495408    -0.06440755     1.37656020     0.00007666    -0.00010112     0.00125788
H         0.93321298     0.03033403    -0.56144422     0.00163003     0.00038421    -0.00119733
H         0.89050187    -0.08143579     1.88595754     0.00003738     0.00018246     0.00020758
H        -0.95948367    -0.01442443     1.79125904    -0.00133166     0.00031131     0.00076651
H        -1.03042900     0.15068627    -0.53071443    -0.00072584     0.00038913    -0.00051335
     6
  Step:    19            Position(A)                                  Velocity(au)
C        -0.03573444     0.01180339    -0.07650223    -0.00005467     0.00000503    -0.00125427
N        -0.04448889    -0.06495595     1.38331868     0.00008630    -0.00009309     0.00113660
H         0.94245778     0.03246930    -0.56842397     0.00162963     0.00037191    -0.00126373
H         0.89035883    -0.08041787     1.88703164    -0.00007976     0.00017794     0.00017736
H        -0.96710427    -0.01272666     1.79582002    -0.00134907     0.00028952     0.00083791
H        -1.03460711     0.15290036    -0.53387218    -0.00074869     0.00039430    -0.00060027
     6
  Step:    20            Position(A)                                  Velocity(au)
C        -0.03603606     0.01181358    -0.08317341    -0.00005183    -0.00000127    -0.00111510
N        -0.04397876    -0.06545956     1.38940540     0.00009294    -0.00008562     0.00102442
H         0.95163009     0.03453711    -0.57572610     0.00161147     0.00036167    -0.00131721
H         0.88960044    -0.07942483     1.88796193    -0.00018083     0.00017436     0.00015719
H        -0.97473000    -0.01115244     1.80072864    -0.00133927     0.00026856     0.00089344
H        -1.03889018     0.15514243    -0.53749836    -0.00076534     0.00040046    -0.00068160
     6
  Step:    21            Position(A)                                  Velocity(au)
C        -0.03631896     0.01178903    -0.08907855    -0.00004827    -0.00000729    -0.00098558
N        -0.04344070    -0.06592162     1.39487230     0.00009653    -0.00007858     0.00091956
H         0.96063238     0.03654825    -0.58327977     0.00157476     0.00035275    -0.00135745
H         0.88831939    -0.07845142     1.88880446    -0.00026571     0.00017147     0.00014650
H        -0.98220886    -0.00969784     1.80589646    -0.00130168     0.00024777     0.00093305
H        -1.04323882     0.15741689    -0.54155941    -0.00077368     0.00040683    -0.00075649
     6
  Step:    22            Position(A)                                  Velocity(au)
C        -0.03657966     0.01173151    -0.09427262    -0.00004414    -0.00001299    -0.00086441
N        -0.04289164    -0.06634448     1.39976114     0.00009714    -0.00007186     0.00082088
H         0.96936437     0.03850959    -0.59101313     0.00151970     0.00034464    -0.00138458
H         0.88660810    -0.07749376     1.88961172    -0.00033430     0.00016912     0.00014475
H        -0.98938892    -0.00836221     1.81123623    -0.00123707     0.00022677     0.00095718
H        -1.04760299     0.15972401    -0.54601767    -0.00077218     0.00041281    -0.00082428
     6
  Step:    23            Position(A)                                  Velocity(au)
C        -0.03681556     0.01164290    -0.09880282    -0.00003961    -0.00001836    -0.00075081
N        -0.04234796    -0.06672997     1.40410687     0.00009490    -0.00006541     0.00072769
H         0.97772842     0.04042528    -0.59885568     0.00144753     0.00033704    -0.00139930
H         0.88455862    -0.07654893     1.89043279    -0.00038672     0.00016719     0.00015138
H        -0.99612537    -0.00714679     1.81666435    -0.00114753     0.00020541     0.00096686
H        -1.05192548     0.16206086    -0.55083226    -0.00076003     0.00041802    -0.00088461
     6
  Step:    24            Position(A)                                  Velocity(au)
C        -0.03702491     0.01152517    -0.10271174    -0.00003484    -0.00002339    -0.00064429
N        -0.04182498    -0.06707964     1.40794046     0.00009005    -0.00005920     0.00063961
H         0.98563467     0.04229794    -0.60674139     0.00136014     0.00032981    -0.00140281
H         0.88226135    -0.07561456     1.89131326    -0.00042342     0.00016564     0.00016579
H        -1.00228718    -0.00605345     1.82210378    -0.00103601     0.00018367     0.00096353
H        -1.05614574     0.16442258    -0.55596077    -0.00073701     0.00042225    -0.00093745
     6
  Step:    25            Position(A)                                  Velocity(au)
C        -0.03720681     0.01138026    -0.10603896    -0.00002996    -0.00002808    -0.00054445
N        -0.04133657    -0.06739490     1.41129049     0.00008288    -0.00005324     0.00055634
H         0.99300448     0.04412947    -0.61461099     0.00125974     0.00032290    -0.00139650
H         0.87980302    -0.07468853     1.89229481    -0.00044525     0.00016448     0.00018726
H        -1.00776105    -0.00508391     1.82748602    -0.00090593     0.00016166     0.00094888
H        -1.06020307     0.16680331    -0.56136103    -0.00070336     0.00042544    -0.00098303
     6
  Step:    26            Position(A)                                  Velocity(au)
C        -0.03736110     0.01121009    -0.10882167    -0.00002509    -0.00003245    -0.00045092
N        -0.04089486    -0.06767714     1.41418376     0.00007371    -0.00004752     0.00047761
H         0.99977159     0.04592156    -0.62241310     0.00114848     0.00031631    -0.00138181
H         0.87726472    -0.07376879     1.89341472    -0.00045334     0.00016368     0.00021500
H        -1.01245368    -0.00423931     1.83275229    -0.00076088     0.00013948     0.00092470
H        -1.06403892     0.16919688    -0.56699246    -0.00065958     0.00042757    -0.00102173
     6
  Step:    27            Position(A)                                  Velocity(au)
C        -0.03748817     0.01101646    -0.11109477    -0.00002033    -0.00003652    -0.00036326
N        -0.04051009    -0.06792773     1.41664551     0.00006288    -0.00004203     0.00040312
H         1.00588141     0.04767597    -0.63010409     0.00102832     0.00031005    -0.00136006
H         0.87472004    -0.07285331     1.89470540    -0.00044914     0.00016326     0.00024811
H        -1.01629222    -0.00352001     1.83785389    -0.00060440     0.00011729     0.00089272
H        -1.06759839     0.17159726    -0.57281691    -0.00060638     0.00042869    -0.00105404
     6
  Step:    28            Position(A)                                  Velocity(au)
C        -0.03758877     0.01080103    -0.11289065    -0.00001571    -0.00004032    -0.00028100
N        -0.04019055    -0.06814799     1.41869920     0.00005072    -0.00003677     0.00033253
H         1.01129014     0.04939454    -0.63764762     0.00090101     0.00030415    -0.00133245
H         0.87223372    -0.07194008     1.89619392    -0.00043429     0.00016321     0.00028564
H        -1.01922372    -0.00292548     1.84275189    -0.00043982     0.00009523     0.00085458
H        -1.07083115     0.17399882    -0.57879911    -0.00054454     0.00042888    -0.00108043
     6
  Step:    29            Position(A)                                  Velocity(au)
C        -0.03766396     0.01056532    -0.11423903    -0.00001129    -0.00004387    -0.00020364
N        -0.03994255    -0.06833923     1.42036645     0.00003758    -0.00003173     0.00026550
H         1.01596343     0.05107928    -0.64501379     0.00076803     0.00029860    -0.00129996
H         0.86986050    -0.07102709     1.89790161    -0.00041059     0.00016351     0.00032651
H        -1.02121370    -0.00245441     1.84741637    -0.00027026     0.00007343     0.00081176
H        -1.07369169     0.17639634    -0.58490667    -0.00047488     0.00042820    -0.00110136
     6
  Step:    30            Position(A)                                  Velocity(au)
C        -0.03771494     0.01031067    -0.11516683    -0.00000708    -0.00004721    -0.00013069
N        -0.03977053    -0.06850268     1.42166693     0.00002378    -0.00002690     0.00020168
H         1.01987493     0.05273220    -0.65217810     0.00063066     0.00029341    -0.00126342
H         0.86764426    -0.07011243     1.89984356    -0.00038001     0.00016415     0.00036959
H        -1.02224458    -0.00210474     1.85182551    -0.00009856     0.00005200     0.00076560
H        -1.07613917     0.17878505    -0.59110972    -0.00039816     0.00042669    -0.00111719
     6
  Step:    31            Position(A)                                  Velocity(au)
C        -0.03774302     0.01003826    -0.11569823    -0.00000310    -0.00005035    -0.00006168
N        -0.03967706    -0.06863952     1.42261835     0.00000965    -0.00002225     0.00014073
H         1.02300505     0.05435534    -0.65912041     0.00048996     0.00028856    -0.00122346
H         0.86561746    -0.06919432     1.90202830    -0.00034459     0.00016508     0.00041368
H        -1.02231418    -0.00187376     1.85596465     0.00007263     0.00003107     0.00071727
H        -1.07813728     0.18116056    -0.59738060    -0.00031515     0.00042442    -0.00112824
     6
  Step:    32            Position(A)                                  Velocity(au)
C        -0.03774954     0.00974914    -0.11585477     0.00000065    -0.00005331     0.00000382
N        -0.03966290    -0.06875085     1.42323660    -0.00000449    -0.00001778     0.00008235
H         1.02533971     0.05595061    -0.66582389     0.00034684     0.00028400    -0.00118056
H         0.86380089    -0.06827118     1.90445749    -0.00030639     0.00016628     0.00045750
H        -1.02143449    -0.00175816     1.85982555     0.00024083     0.00001074     0.00066784
H        -1.07965413     0.18351881    -0.60369346    -0.00022662     0.00042142    -0.00113474
     6
  Step:    33            Position(A)                                  Velocity(au)
C        -0.03773581     0.00944423    -0.11565563     0.00000418    -0.00005613     0.00006620
N        -0.03972709    -0.06883768     1.42353590    -0.00001833    -0.00001349     0.00002627
H         1.02686949     0.05751971    -0.67227422     0.00020208     0.00027971    -0.00113509
H         0.86220369    -0.06734165     1.90712575    -0.00026745     0.00016768     0.00049977
H        -1.01963082    -0.00175407     1.86340572     0.00040365    -0.00000889     0.00061830
H        -1.08066222     0.18585598    -0.61002386    -0.00013333     0.00041771    -0.00113688
     6
  Step:    34            Position(A)                                  Velocity(au)
C        -0.03770306     0.00912438    -0.11511785     0.00000749    -0.00005880     0.00012578
N        -0.03986695    -0.06890096     1.42352897    -0.00003157    -0.00000934    -0.00002775
H         1.02758917     0.05906412    -0.67845890     0.00005646     0.00027561    -0.00108729
H         0.86082377    -0.06640466     1.91002061    -0.00022976     0.00016923     0.00053920
H        -1.01694129    -0.00185707     1.86670802     0.00055876    -0.00002770     0.00056957
H        -1.08113824     0.18816850    -0.61634840    -0.00003605     0.00041333    -0.00113476
     6
  Step:    35            Position(A)                                  Velocity(au)
C        -0.03765249     0.00879032    -0.11425672     0.00001060    -0.00006133     0.00018282
N        -0.04007819    -0.06894160     1.42322732    -0.00004391    -0.00000535    -0.00007986
H         1.02749745     0.06058502    -0.68436676    -0.00008928     0.00027166    -0.00103736
H         0.85964840    -0.06545949     1.91312259    -0.00019513     0.00017086     0.00057452
H        -1.01341646    -0.00206215     1.86974031     0.00070384    -0.00004559     0.00052255
H        -1.08106316     0.19045291    -0.62264435     0.00006443     0.00040828    -0.00112845
     6
  Step:    36            Position(A)                                  Velocity(au)
C        -0.03758526     0.00844277    -0.11308613     0.00001351    -0.00006374     0.00023750
N        -0.04035493    -0.06896044     1.42264147    -0.00005507    -0.00000150    -0.00013020
H         1.02659691     0.06208323    -0.68998754    -0.00023439     0.00026778    -0.00098544
H         0.85865521    -0.06450579     1.91640551    -0.00016521     0.00017250     0.00060453
H        -1.00911917    -0.00236376     1.87251530     0.00083662    -0.00006245     0.00047810
H        -1.08042222     0.19270585    -0.62888938     0.00016729     0.00040256    -0.00111798
     6
  Step:    37            Position(A)                                  Velocity(au)
C        -0.03750244     0.00808242    -0.11161895     0.00001623    -0.00006601     0.00028994
N        -0.04068987    -0.06895830     1.42178128    -0.00006480     0.00000220    -0.00017883
H         1.02489413     0.06355919    -0.69531165    -0.00037804     0.00026390    -0.00093163
H         0.85781345    -0.06354363     1.91983685    -0.00014140     0.00017405     0.00062811
H        -1.00412438    -0.00275572     1.87505036     0.00095486    -0.00007814     0.00043707
H        -1.07920511     0.19492404    -0.63506135     0.00027168     0.00039619    -0.00110334
     6
  Step:    38            Position(A)                                  Velocity(au)
C        -0.03740510     0.00770993    -0.10986740     0.00001875    -0.00006816     0.00034019
N        -0.04107431    -0.06893599     1.42065616    -0.00007286     0.00000577    -0.00022580
H         1.02240006     0.06501296    -0.70033006    -0.00051933     0.00025996    -0.00087607
H         0.85708552    -0.06257352     1.92337849    -0.00012478     0.00017545     0.00064430
H        -0.99851884    -0.00323126     1.87736739     0.00105638    -0.00009256     0.00040027
H        -1.07740621     0.19710420    -0.64113810     0.00037667     0.00038917    -0.00108452
     6
  Step:    39            Position(A)                                  Velocity(au)
C        -0.03729430     0.00732602    -0.10784347     0.00002108    -0.00007016     0.00038824
N        -0.04149842    -0.06889431     1.41927538    -0.00007904     0.00000918    -0.00027106
H         1.01913053     0.06644422    -0.70503438    -0.00065725     0.00025587    -0.00081889
H         0.85642866    -0.06159643     1.92698742    -0.00011613     0.00017661     0.00065230
H        -0.99240049    -0.00378298     1.87949260     0.00113921    -0.00010559     0.00036847
H        -1.07502483     0.19924310    -0.64709747     0.00048129     0.00038150    -0.00106151
     6
  Step:    40            Position(A)                                  Velocity(au)
C        -0.03717115     0.00693143    -0.10555925     0.00002321    -0.00007201     0.00043401
N        -0.04195138    -0.06883409     1.41764836    -0.00008320     0.00001245    -0.00031454
H         1.01510676     0.06785225    -0.70941698    -0.00079072     0.00025158    -0.00076028
H         0.85579691    -0.06061375     1.93061678    -0.00011586     0.00017744     0.00065149
H        -0.98587741    -0.00440294     1.88145616     0.00120163    -0.00011713     0.00034234
H        -1.07206548     0.20133757    -0.65291724     0.00058454     0.00037320    -0.00103432
     6
  Step:    41            Position(A)                                  Velocity(au)
C        -0.03703679     0.00652695    -0.10302724     0.00002511    -0.00007370     0.00047738
N        -0.04242165    -0.06875618     1.41578492    -0.00008522     0.00001555    -0.00035613
H         1.01035589     0.06923600    -0.71347121    -0.00091856     0.00024703    -0.00070048
H         0.85514300    -0.05962734     1.93421700    -0.00012402     0.00017788     0.00064151
H        -0.97906604    -0.00508273     1.88329159     0.00124229    -0.00012709     0.00032243
H        -1.06853818     0.20338448    -0.65857531     0.00068535     0.00036429    -0.00100301
     6
  Step:    42            Position(A)                                  Velocity(au)
C        -0.03689243     0.00611343    -0.10026069     0.00002678    -0.00007522     0.00051817
N        -0.04289730    -0.06866148     1.41369554    -0.00008508     0.00001849    -0.00039568
H         1.00491141     0.07059409    -0.71719174    -0.00103954     0.00024217    -0.00063978
H         0.85442042    -0.05863941     1.93773708    -0.00014030     0.00017786     0.00062224
H        -0.97208886    -0.00581360     1.88503487     0.00126040    -0.00013545     0.00030907
H        -1.06445862     0.20538087    -0.66404987     0.00078263     0.00035480    -0.00096767
     6
  Step:    43            Position(A)                                  Velocity(au)
C        -0.03673942     0.00569180    -0.09727377     0.00002820    -0.00007655     0.00055620
N        -0.04336636    -0.06855092     1.41139157    -0.00008280     0.00002124    -0.00043299
H         0.99881352     0.07192495    -0.72057489    -0.00115241     0.00023699    -0.00057856
H         0.85358525    -0.05765250     1.94112598    -0.00016406     0.00017733     0.00059382
H        -0.96507137    -0.00658664     1.88672332     0.00125574    -0.00014217     0.00030239
H        -1.05984835     0.20732397    -0.66931968     0.00087530     0.00034480    -0.00092848
     6
  Step:    44            Position(A)                                  Velocity(au)
C        -0.03657916     0.00526304    -0.09408174     0.00002934    -0.00007769     0.00059126
N        -0.04381714    -0.06842548     1.40888542    -0.00007847     0.00002382    -0.00046785
H         0.99210915     0.07322680    -0.72361901    -0.00125593     0.00023144    -0.00051725
H         0.85259790    -0.05666942     1.94433393    -0.00019436     0.00017626     0.00055664
H        -0.95813863    -0.00739302     1.88839421     0.00122880    -0.00014731     0.00030225
H        -1.05473475     0.20921134    -0.67436448     0.00096230     0.00033437    -0.00088568
     6