     6
  Step:     0            Position(A)                                  Velocity(au)
C        -0.04063623     0.01986427     0.00181167    -0.00000821     0.00007624    -0.00007509
N        -0.04232754    -0.04814980     1.31394993    -0.00020902    -0.00002593     0.00000954
H         0.91868556    -0.05659546    -0.51592490     0.00030080    -0.00032733    -0.00034924
H         0.85568447    -0.15006478     1.85069532     0.00072280    -0.00001052     0.00082420
H        -0.93784314    -0.09757466     1.80435369     0.00162745     0.00007578    -0.00045206
H        -0.97704248     0.06685913    -0.52778176     0.00035145    -0.00028608     0.00073931
     6
  Step:     1            Position(A)                                  Velocity(au)
C        -0.04066810     0.02028459     0.00136170    -0.00000251     0.00007744    -0.00008907
N        -0.04345040    -0.04829266     1.31406637    -0.00019932    -0.00002633     0.00003248
H         0.92050573    -0.05841109    -0.51810826     0.00036040    -0.00033652    -0.00044660
H         0.85940645    -0.15010658     1.85518476     0.00062816    -0.00000339     0.00081014
H        -0.92902881    -0.09720643     1.80208443     0.00157415     0.00005769    -0.00036564
H        -0.97541525     0.06532505    -0.52407473     0.00023710    -0.00027475     0.00061203
     6
  Step:     2            Position(A)                                  Velocity(au)
C        -0.04066372     0.02071132     0.00083748     0.00000496     0.00007861    -0.00010230
N        -0.04450765    -0.04843775     1.31430522    -0.00018521    -0.00002674     0.00005419
H         0.92262752    -0.06027630    -0.52080978     0.00041057    -0.00034551    -0.00053849
H         0.86255516    -0.15010182     1.85955652     0.00051486     0.00000632     0.00078230
H        -0.92062544    -0.09694365     1.80035441     0.00147796     0.00003725    -0.00025512
H        -0.97444917     0.06385392    -0.52108753     0.00011128    -0.00026325     0.00047723
     6
  Step:     3            Position(A)                                  Velocity(au)
C        -0.04061380     0.02114425     0.00024297     0.00001403     0.00007975    -0.00011486
N        -0.04547589    -0.04858504     1.31465900    -0.00016704    -0.00002714     0.00007446
H         0.92499578    -0.06218956    -0.52399717     0.00045026    -0.00035421    -0.00062429
H         0.86503695    -0.15003741     1.86373999     0.00038600     0.00001825     0.00074258
H        -0.91286579    -0.09679904     1.79929444     0.00134058     0.00001455    -0.00012132
H        -0.97419831     0.06244618    -0.51885571    -0.00002270    -0.00025180     0.00033704
     6
  Step:     4            Position(A)                                  Velocity(au)
C        -0.04051032     0.02158324    -0.00041837     0.00002444     0.00008088    -0.00012687
N        -0.04633397    -0.04873443     1.31511932    -0.00014527    -0.00002751     0.00009318
H         0.92755032    -0.06414897    -0.52763529     0.00047868    -0.00036258    -0.00070359
H         0.86677543    -0.14990225     1.86767534     0.00024470     0.00003204     0.00069295
H        -0.90596851    -0.09678460     1.79902801     0.00116543    -0.00001025     0.00003394
H        -0.97469740     0.06110092    -0.51740260    -0.00016123    -0.00024065     0.00019368
     6
  Step:     5            Position(A)                                  Velocity(au)
C        -0.04034672     0.02202820    -0.00114369     0.00003589     0.00008200    -0.00013843
N        -0.04706365    -0.04888572     1.31567740    -0.00012048    -0.00002785     0.00011033
H         0.93022762    -0.06615246    -0.53168723     0.00049537    -0.00037059    -0.00077616
H         0.86771149    -0.14968718     1.87131374     0.00009403     0.00004735     0.00063539
H        -0.90012801    -0.09691112     1.79966539     0.00095776    -0.00003689     0.00020774
H        -0.97596054     0.05981598    -0.51673881    -0.00030052    -0.00023000     0.00004946
     6
  Step:     6            Position(A)                                  Velocity(au)
C        -0.04011817     0.02247914    -0.00193079     0.00004808     0.00008313    -0.00014967
N        -0.04765030    -0.04903870     1.31632468    -0.00009338    -0.00002815     0.00012599
H         0.93296236    -0.06819780    -0.53611510     0.00050007    -0.00037820    -0.00084185
H         0.86780279    -0.14938491     1.87461718    -0.00006301     0.00006384     0.00057181
H        -0.89550471    -0.09718765     1.80129766     0.00072446    -0.00006501     0.00039611
H        -0.97798067     0.05858815    -0.51686228    -0.00043673    -0.00022001    -0.00009339
     6
  Step:     7            Position(A)                                  Velocity(au)
C        -0.03982163     0.02293607    -0.00277813     0.00006068     0.00008427    -0.00016068
N        -0.04808345    -0.04919318     1.31705324    -0.00006476    -0.00002843     0.00014030
H         0.93568860    -0.07028262    -0.54088070     0.00049272    -0.00038537    -0.00090060
H         0.86702344    -0.14898999     1.87755824    -0.00022345     0.00008119     0.00050411
H        -0.89221658    -0.09762102     1.80399114     0.00047382    -0.00009415     0.00059411
H        -0.98072990     0.05741331    -0.51775871    -0.00056614    -0.00021083    -0.00023269
     6
  Step:     8            Position(A)                                  Velocity(au)
C        -0.03945584     0.02339904    -0.00368468     0.00007334     0.00008541    -0.00017153
N        -0.04835720    -0.04934901     1.31785618    -0.00003548    -0.00002868     0.00015346
H         0.93834071    -0.07240439    -0.54594576     0.00047341    -0.00039204    -0.00095233
H         0.86536370    -0.14849868     1.88011989    -0.00038430     0.00009907     0.00043414
H        -0.89033262    -0.09821535     1.80778279     0.00021516    -0.00012379     0.00079600
H        -0.98416050     0.05628678    -0.51940229    -0.00068521    -0.00020252    -0.00036640
     6
  Step:     9            Position(A)                                  Velocity(au)
C        -0.03902133     0.02386805    -0.00464981     0.00008577     0.00008654    -0.00018228
N        -0.04847055    -0.04950610     1.31872776    -0.00000644    -0.00002891     0.00016568
H         0.94085418    -0.07456033    -0.55127198     0.00044239    -0.00039814    -0.00099699
H         0.86283019    -0.14790903     1.88229532    -0.00054247     0.00011714     0.00036379
H        -0.88986886    -0.09897177     1.81267668    -0.00004167    -0.00015335     0.00099553
H        -0.98820649     0.05520354    -0.52175661    -0.00079072    -0.00019511    -0.00049261
     6
  Step:    10            Position(A)                                  Velocity(au)
C        -0.03852030     0.02434303    -0.00567305     0.00009764     0.00008763    -0.00019292
N        -0.04842744    -0.04966439     1.31966346     0.00002144    -0.00002914     0.00017715
H         0.94316636    -0.07674728    -0.55682100     0.00040006    -0.00040356    -0.00103449
H         0.85944642    -0.14722091     1.88408810    -0.00069470     0.00013506     0.00029499
H        -0.89078715    -0.09988806     1.81864209    -0.00028684    -0.00018218     0.00118620
H        -0.99278571     0.05415856    -0.52477571    -0.00087986    -0.00018857    -0.00060962
     6
  Step:    11            Position(A)                                  Velocity(au)
C        -0.03795650     0.02482375    -0.00675378     0.00010868     0.00008865    -0.00020337
N        -0.04823672    -0.04982391     1.32065976     0.00004728    -0.00002937     0.00018801
H         0.94521721    -0.07896164    -0.56255425     0.00034694    -0.00040822    -0.00106473
H         0.85525375    -0.14643606     1.88551250    -0.00083753     0.00015246     0.00022977
H        -0.89299718    -0.10095866     1.82561351    -0.00051112    -0.00020967     0.00136168
H        -0.99780231     0.05314703    -0.52840520    -0.00095027    -0.00018284    -0.00071591
     6
  Step:    12            Position(A)                                  Velocity(au)
C        -0.03733509     0.02530983    -0.00789102     0.00011864     0.00008956    -0.00021355
N        -0.04791182    -0.04998466     1.32171384     0.00007026    -0.00002959     0.00019833
H         0.94695008    -0.08119929    -0.56843280     0.00028378    -0.00041200    -0.00108760
H         0.85031244    -0.14555823     1.88659392    -0.00096733     0.00016894     0.00017024
H        -0.89636132    -0.10217465     1.83349239    -0.00070638    -0.00023519     0.00151615
H        -1.00314928     0.05216457    -0.53258330    -0.00100015    -0.00017782    -0.00081016
     6
  Step:    13            Position(A)                                  Velocity(au)
C        -0.03666243     0.02580066    -0.00908314     0.00012732     0.00009033    -0.00022332
N        -0.04747032    -0.05014665     1.32282310     0.00008968    -0.00002980     0.00020812
H         0.94831251    -0.08345555    -0.57441734     0.00021144    -0.00041480    -0.00110304
H         0.84470255    -0.14459328     1.88736940    -0.00108036     0.00018413     0.00011859
H        -0.90070210    -0.10352399     1.84215100    -0.00086612    -0.00025820     0.00164467
H        -1.00871149     0.05120745    -0.53724207    -0.00102828    -0.00017339    -0.00089133
     6
  Step:    14            Position(A)                                  Velocity(au)
C        -0.03594590     0.02629544    -0.01032769     0.00013455     0.00009091    -0.00023249
N        -0.04693328    -0.05030982     1.32398473     0.00010496    -0.00002999     0.00021729
H         0.94925714    -0.08572524    -0.58046834     0.00013099    -0.00041654    -0.00111105
H         0.83852432    -0.14354913     1.88788788    -0.00117295     0.00019763     0.00007701
H        -0.90581181    -0.10499198     1.85143778    -0.00098576    -0.00027827     0.00174348
H        -1.01436912     0.05027263    -0.54230884    -0.00103417    -0.00016942    -0.00095869
     6
  Step:    15            Position(A)                                  Velocity(au)
C        -0.03519357     0.02679315    -0.01162117     0.00014023     0.00009128    -0.00024089
N        -0.04632446    -0.05047404     1.32519525     0.00011569    -0.00003014     0.00022568
H         0.94974254    -0.08800281    -0.58654640     0.00004367    -0.00041719    -0.00111175
H         0.83189774    -0.14243576     1.88821015    -0.00124162     0.00020910     0.00004764
H        -0.91146340    -0.10656181     1.86118417    -0.00106275    -0.00029506     0.00181016
H        -1.02000127     0.04935790    -0.54770790    -0.00101795    -0.00016577    -0.00101184
     6
  Step:    16            Position(A)                                  Velocity(au)
C        -0.03441403     0.02729259    -0.01295909     0.00014430     0.00009141    -0.00024833
N        -0.04566949    -0.05063904     1.32645008     0.00012162    -0.00003023     0.00023309
H         0.94973413    -0.09028252    -0.59261296    -0.00004918    -0.00041675    -0.00110544
H         0.82496113    -0.14126498     1.88840832    -0.00128335     0.00021823     0.00003241
H        -0.91742114    -0.10821520     1.87121171    -0.00109659    -0.00030839     0.00184371
H        -1.02548900     0.04846182    -0.55336196    -0.00098037    -0.00016229    -0.00105068
     6
  Step:    17            Position(A)                                  Velocity(au)
C        -0.03361608     0.02779244    -0.01433590     0.00014675     0.00009128    -0.00025465
N        -0.04499495    -0.05080447     1.32774339     0.00012267    -0.00003024     0.00023928
H         0.94920494    -0.09255873    -0.59863105    -0.00014606    -0.00041530    -0.00109255
H         0.81786816    -0.14005005     1.88856442    -0.00129586     0.00022482     0.00003288
H        -0.92345126    -0.10993316     1.88133957    -0.00108860    -0.00031822     0.00184447
H        -1.03071868     0.04758370    -0.55919396    -0.00092279    -0.00015888    -0.00107552
     6
  Step:    18            Position(A)                                  Velocity(au)
C        -0.03280846     0.02829129    -0.01574514     0.00014763     0.00009090    -0.00025971
N        -0.04432741    -0.05096984     1.32906799     0.00011893    -0.00003015     0.00024404
H         0.94813608    -0.09482618    -0.60456624    -0.00024549    -0.00041295    -0.00107369
H         0.81078351    -0.13880523     1.88876808    -0.00127773     0.00022878     0.00005016
H        -0.92933121    -0.11169674     1.89139152    -0.00104161    -0.00032463     0.00181395
H        -1.03558503     0.04672356    -0.56512891    -0.00084704    -0.00015542    -0.00108694
     6
  Step:    19            Position(A)                                  Velocity(au)
C        -0.03199960     0.02878776    -0.01717958     0.00014701     0.00009027    -0.00026339
N        -0.04369266    -0.05113459     1.33041547     0.00011066    -0.00002996     0.00024717
H         0.94651691    -0.09708031    -0.61038747    -0.00034594    -0.00040984    -0.00104961
H         0.80387752    -0.13754505     1.88911362    -0.00122869     0.00023012     0.00008470
H        -0.93485649    -0.11348768     1.90120156    -0.00095953    -0.00032782     0.00175459
H        -1.03999345     0.04588197    -0.57109550    -0.00075528    -0.00015182    -0.00108582
     6
  Step:    20            Position(A)                                  Velocity(au)
C        -0.03119752     0.02928048    -0.01863139     0.00014500     0.00008941    -0.00026563
N        -0.04311485    -0.05129812     1.33177646     0.00009820    -0.00002966     0.00024855
H         0.94434523    -0.09931723    -0.61606795    -0.00044598    -0.00040619    -0.00102118
H         0.79731945    -0.13628354     1.88969621    -0.00114958     0.00022902     0.00013628
H        -0.93984575    -0.11528902     1.91061839    -0.00084701    -0.00032809     0.00166951
H        -1.04386140     0.04505988    -0.57702737    -0.00064985    -0.00014803    -0.00107321
     6
  Step:    21            Position(A)                                  Velocity(au)
C        -0.03040955     0.02976823    -0.02009240     0.00014174     0.00008835    -0.00026639
N        -0.04261585    -0.05145982     1.33314095     0.00008204    -0.00002925     0.00024811
H         0.94162646    -0.10153451    -0.62158550    -0.00054427    -0.00040227    -0.00098931
H         0.79127158    -0.13503371     1.89060798    -0.00104241     0.00022574     0.00020389
H        -0.94414458    -0.11708548     1.91950891    -0.00070910    -0.00032580     0.00156223
H        -1.04711947     0.04425874    -0.58286408    -0.00053320    -0.00014396    -0.00105033
     6
  Step:    22            Position(A)                                  Velocity(au)
C        -0.02964231     0.03024990    -0.02155428     0.00013736     0.00008712    -0.00026565
N        -0.04221470    -0.05161910     1.33449879     0.00006274    -0.00002876     0.00024587
H         0.93837336    -0.10373107    -0.62692294    -0.00063957    -0.00039833    -0.00095492
H         0.78588180    -0.13380664     1.89193330    -0.00091043     0.00022071     0.00028570
H        -0.94762627    -0.11886380     1.92775963    -0.00055085    -0.00032133     0.00143639
H        -1.04971179     0.04348032    -0.58855188    -0.00040776    -0.00013956    -0.00101842
     6
  Step:    23            Position(A)                                  Velocity(au)
C        -0.02890166     0.03072458    -0.02300864     0.00013200     0.00008574    -0.00026342
N        -0.04192711    -0.05177549     1.33584008     0.00004093    -0.00002818     0.00024193
H         0.93460544    -0.10590724    -0.63206828    -0.00073075    -0.00039463    -0.00091893
H         0.78127721    -0.13261085     1.89374435    -0.00075790     0.00021443     0.00037916
H        -0.95019168    -0.12061290     1.93527716    -0.00037714    -0.00031508     0.00129560
H        -1.05159577     0.04272667    -0.59404400    -0.00027586    -0.00013479    -0.00097876
     6
  Step:    24            Position(A)                                  Velocity(au)
C        -0.02819269     0.03119152    -0.02444715     0.00012580     0.00008426    -0.00025972
N        -0.04176523    -0.05192862     1.33715559     0.00001727    -0.00002757     0.00023642
H         0.93034835    -0.10806479    -0.63701449    -0.00081677    -0.00039142    -0.00088222
H         0.77755873    -0.13145176     1.89609713    -0.00058994     0.00020751     0.00048100
H        -0.95176797    -0.12232397     1.94198766    -0.00019255    -0.00030746     0.00114327
H        -1.05274128     0.04200007    -0.59930043    -0.00013966    -0.00012960    -0.00093253
     6
  Step:    25            Position(A)                                  Velocity(au)
C        -0.02751981     0.03165015    -0.02586163     0.00011886     0.00008269    -0.00025456
N        -0.04173743    -0.05207830     1.33843708    -0.00000755    -0.00002693     0.00022954
H         0.92563336    -0.11020691    -0.64175930    -0.00089664    -0.00038894    -0.00084557
H         0.77479687    -0.13033134     1.89902800    -0.00041228     0.00020058     0.00058743
H        -0.95230676    -0.12399034     1.94783579    -0.00000132    -0.00029886     0.00098261
H        -1.05312986     0.04130300    -0.60428768    -0.00000116    -0.00012395    -0.00088085
     6
  Step:    26            Position(A)                                  Velocity(au)
C        -0.02688677     0.03210007    -0.02724397     0.00011130     0.00008107    -0.00024795
N        -0.04184818    -0.05222449     1.33967749    -0.00003282    -0.00002630     0.00022150
H         0.92049702    -0.11233810    -0.64630469    -0.00096942    -0.00038742    -0.00080968
H         0.77302898    -0.12924796     1.90255119    -0.00023102     0.00019428     0.00069431
H        -0.95178246    -0.12560752     1.95278349     0.00019256    -0.00028963     0.00081658
H        -1.05275400     0.04063822    -0.60897833     0.00013774    -0.00011778    -0.00082475
     6
  Step:    27            Position(A)                                  Velocity(au)
C        -0.02629674     0.03254100    -0.02858619     0.00010322     0.00007941    -0.00023989
N        -0.04209811    -0.05236731     1.34087107    -0.00005786    -0.00002571     0.00021254
H         0.91498090    -0.11446403    -0.65065643    -0.00103418    -0.00038702    -0.00077515
H         0.77225827    -0.12819646     1.90665740    -0.00005228     0.00018922     0.00079731
H        -0.95019079    -0.12717298     1.95680879     0.00038533    -0.00028014     0.00064800
H        -1.05161633     0.04000876    -0.61335051     0.00027524    -0.00011104    -0.00076516
     6
  Step:    28            Position(A)                                  Velocity(au)
C        -0.02575238     0.03297275    -0.02988034     0.00009470     0.00007772    -0.00023038
N        -0.04248407    -0.05250702     1.34201330    -0.00008199    -0.00002517     0.00020286
H         0.90913146    -0.11659145    -0.65482354    -0.00109001    -0.00038793    -0.00074251
H         0.77245445    -0.12716843     1.91131358     0.00011806     0.00018595     0.00089219
H        -0.94754775    -0.12868618     1.95990495     0.00057331    -0.00027070     0.00047957
H        -1.04972913     0.03941793    -0.61738739     0.00040962    -0.00010366    -0.00070293
     6
  Step:    29            Position(A)                                  Velocity(au)
C        -0.02525588     0.03339525    -0.03111846     0.00008581     0.00007602    -0.00021942
N        -0.04299930    -0.05264396     1.34310076    -0.00010457    -0.00002470     0.00019262
H         0.90300004    -0.11872794    -0.65881777    -0.00113599    -0.00039026    -0.00071219
H         0.77355597    -0.12615262     1.91646394     0.00027463     0.00018491     0.00097497
H        -0.94388922    -0.13014843     1.96207997     0.00075287    -0.00026167     0.00031396
H        -1.04711395     0.03886940    -0.62107681     0.00053918    -0.00009558    -0.00063887
     6
  Step:    30            Position(A)                                  Velocity(au)
C        -0.02480903     0.03380845    -0.03229255     0.00007663     0.00007430    -0.00020698
N        -0.04363368    -0.05277854     1.34413091    -0.00012501    -0.00002429     0.00018196
H         0.89664276    -0.12088184    -0.66265311    -0.00117123    -0.00039413    -0.00068452
H         0.77547366    -0.12513556     1.92203208     0.00041281     0.00018645     0.00104215
H        -0.93927097    -0.13156293     1.96335656     0.00092029    -0.00025338     0.00015391
H        -1.04380151     0.03836717    -0.62441094     0.00066223    -0.00008674    -0.00057375
     6
  Step:    31            Position(A)                                  Velocity(au)
C        -0.02441319     0.03421232    -0.03339458     0.00006724     0.00007258    -0.00019307
N        -0.04437399    -0.05291111     1.34510176    -0.00014277    -0.00002395     0.00017096
H         0.89012032    -0.12306204    -0.66634529    -0.00119494    -0.00039960    -0.00065978
H         0.77809547    -0.12410226     1.92792419     0.00052889     0.00019078     0.00109090
H        -0.93376910    -0.13293481     1.96377242     0.00107178    -0.00024619     0.00000220
H        -1.03983165     0.03791558    -0.62738620     0.00077704    -0.00007707    -0.00050835
     6
  Step:    32            Position(A)                                  Velocity(au)
C        -0.02406929     0.03460689    -0.03441651     0.00005773     0.00007085    -0.00017770
N        -0.04520429    -0.05304198     1.34601159    -0.00015739    -0.00002364     0.00015962
H         0.88349743    -0.12527778    -0.66991122    -0.00120644    -0.00040673    -0.00063811
H         0.78129193    -0.12303688     1.93403288     0.00062024     0.00019796     0.00111913
H        -0.92748049    -0.13427122     1.96338076     0.00120351    -0.00024047    -0.00013826
H        -1.03525337     0.03751935    -0.63000321     0.00088195    -0.00006652    -0.00044345
     6
  Step:    33            Position(A)                                  Velocity(au)
C        -0.02377775     0.03499214    -0.03535038     0.00004820     0.00006912    -0.00016090
N        -0.04610628    -0.05317132     1.34685860    -0.00016848    -0.00002335     0.00014793
H         0.87684204    -0.12753854    -0.67336846    -0.00120529    -0.00041552    -0.00061959
H         0.78492190    -0.12192348     1.94024153     0.00068528     0.00020799     0.00112563
H        -0.92052310    -0.13558142     1.96225071     0.00131162    -0.00023664    -0.00026451
H        -1.03012476     0.03718347    -0.63226693     0.00097531    -0.00005504    -0.00037988
     6
  Step:    34            Position(A)                                  Velocity(au)
C        -0.02353848     0.03536809    -0.03618850     0.00003875     0.00006739    -0.00014275
N        -0.04705969    -0.05329910     1.34764071    -0.00017573    -0.00002303     0.00013581
H         0.87022400    -0.12985374    -0.67673453    -0.00119128    -0.00042596    -0.00060416
H         0.78883871    -0.12074640     1.94642906     0.00072357     0.00022070     0.00111005
H        -0.91303598    -0.13687727     1.96046779     0.00139246    -0.00023514    -0.00037363
H        -1.02451257     0.03691321    -0.63418674     0.00105560    -0.00004260    -0.00031847
     6
  Step:    35            Position(A)                                  Velocity(au)
C        -0.02335077     0.03573476    -0.03692353     0.00002652     0.00006603    -0.00015108
N        -0.04804287    -0.05342508     1.34835524    -0.00017734    -0.00002335     0.00014272
H         0.86371379    -0.13223277    -0.68002649    -0.00117793    -0.00050325    -0.00055814
H         0.79289588    -0.11949129     1.95247464     0.00072667     0.00031215     0.00107963
H        -0.90517780    -0.13817267     1.95813326     0.00144606    -0.00031839    -0.00047249
H        -1.01849175     0.03671406    -0.63577660     0.00115362     0.00004713    -0.00023191
     6
  Step:    36            Position(A)                                  Velocity(au)
C        -0.02324598     0.03609629    -0.03785481     0.00001164     0.00006534    -0.00019338
N        -0.04901558    -0.05355657     1.34921473    -0.00017328    -0.00002452     0.00017537
H         0.85723260    -0.13540404    -0.68289028    -0.00116489    -0.00063382    -0.00047694
H         0.79685316    -0.11730371     1.95833622     0.00069276     0.00046695     0.00102633
H        -0.89708748    -0.14038876     1.95525673     0.00147173    -0.00047243    -0.00056505
H        -1.01178934     0.03743299    -0.63674446     0.00126971     0.00020151    -0.00011697
     6
  Step:    37            Position(A)                                  Velocity(au)
C        -0.02322229     0.03645604    -0.03905835    -0.00000277     0.00006503    -0.00024441
N        -0.04995574    -0.05369579     1.35029120    -0.00016513    -0.00002586     0.00021647
H         0.85085427    -0.13922970    -0.68529159    -0.00113785    -0.00074506    -0.00039283
H         0.80054339    -0.11433652     1.96380461     0.00063175     0.00059989     0.00094128
H        -0.88893101    -0.14338800     1.95189547     0.00146414    -0.00060775    -0.00064229
H        -1.00447511     0.03893860    -0.63706783     0.00136974     0.00033741    -0.00000184
     6
  Step:    38            Position(A)                                  Velocity(au)
C        -0.02327658     0.03681493    -0.04055594    -0.00001646     0.00006479    -0.00029734
N        -0.05084055    -0.05384234     1.35160703    -0.00015291    -0.00002701     0.00025972
H         0.84465763    -0.14363809    -0.68723168    -0.00109630    -0.00084476    -0.00031044
H         0.80383491    -0.11067407     1.96873879     0.00054935     0.00071897     0.00083398
H        -0.88090656    -0.14710533     1.94815844     0.00141915    -0.00073306    -0.00069744
H        -0.99665163     0.04116188    -0.63676484     0.00144883     0.00046213     0.00010776
     6
  Step:    39            Position(A)                                  Velocity(au)
C        -0.02340439     0.03717294    -0.04234856    -0.00002917     0.00006448    -0.00034902
N        -0.05164778    -0.05399462     1.35316520    -0.00013680    -0.00002777     0.00030221
H         0.83872304    -0.14857750    -0.68872677    -0.00104028    -0.00093564    -0.00023209
H         0.80662225    -0.10638071     1.97303316     0.00045037     0.00082675     0.00071045
H        -0.87322717    -0.15149982     1.94417782     0.00133514    -0.00085172    -0.00072726
H        -0.98844288     0.04405241    -0.63587539     0.00150348     0.00057818     0.00020821
     6
  Step:    40            Position(A)                                  Velocity(au)
C        -0.02359983     0.03752945    -0.04442360    -0.00004064     0.00006401    -0.00039736
N        -0.05235654    -0.05415008     1.35495597    -0.00011716    -0.00002801     0.00034198
H         0.83312978    -0.15400644    -0.68980354    -0.00097037    -0.00101917    -0.00015943
H         0.80882571    -0.10151240     1.97661167     0.00033956     0.00092431     0.00057594
H        -0.86611119    -0.15654365     1.94009932     0.00121240    -0.00096554    -0.00073028
H        -0.97999074     0.04756897    -0.63445755     0.00153088     0.00068681     0.00029643
     6
  Step:    41            Position(A)                                  Velocity(au)
C        -0.02385546     0.03788342    -0.04675874    -0.00005060     0.00006333    -0.00044087
N        -0.05294815    -0.05430547     1.35696075    -0.00009449    -0.00002761     0.00037771
H         0.82795310    -0.15988909    -0.69049623    -0.00088772    -0.00109626    -0.00009362
H         0.81039093    -0.09612195     1.97942540     0.00022154     0.00101216     0.00043532
H        -0.85977102    -0.16221614     1.93607262     0.00105338    -0.00107560    -0.00070680
H        -0.97145200     0.05167515    -0.63258538     0.00152894     0.00078876     0.00036981
     6
  Step:    42            Position(A)                                  Velocity(au)
C        -0.02416238     0.03823348    -0.04932468    -0.00005881     0.00006239    -0.00047856
N        -0.05340700    -0.05445704     1.35915485    -0.00006945    -0.00002652     0.00040855
H         0.82326112    -0.16619334    -0.69084429    -0.00079400    -0.00116755    -0.00003540
H         0.81128849    -0.09026040     1.98145104     0.00010084     0.00109068     0.00029317
H        -0.85440095    -0.16850089     1.93224191     0.00086263    -0.00118256    -0.00065883
H        -0.96299386     0.05633743    -0.63034645     0.00149650     0.00088460     0.00042630
     6
  Step:    43            Position(A)                                  Velocity(au)
C        -0.02451035     0.03857806    -0.05208737    -0.00006507     0.00006116    -0.00050984
N        -0.05372144    -0.05460078     1.36150980    -0.00004282    -0.00002472     0.00043409
H         0.81911216    -0.17288946    -0.69089040    -0.00069131    -0.00123366     0.00001490
H         0.81151373    -0.08397759     1.98268974    -0.00001825     0.00116035     0.00015371
H        -0.85016589    -0.17538364     1.92873672     0.00064662    -0.00128686    -0.00058994
H        -0.95478892     0.06152491    -0.62783870     0.00143338     0.00097496     0.00046445
     6
  Step:    44            Position(A)                                  Velocity(au)
C        -0.02488803     0.03891549    -0.05501018    -0.00006924     0.00005964    -0.00053454
N        -0.05388448    -0.05473274     1.36399555    -0.00001546    -0.00002225     0.00045430
H         0.81555203    -0.17995051    -0.69067818    -0.00058211    -0.00129534     0.00005732
H         0.81108497    -0.07732084     1.98316511    -0.00013185     0.00122194     0.00002070
H        -0.84719014    -0.18285122     1.92566316     0.00041342    -0.00138877    -0.00050507
H        -0.94700953     0.06720972    -0.62516714     0.00134050     0.00106068     0.00048356
     6