     6
  Step:     0            Position(A)                                  Velocity(au)
C        -0.02724231     0.01251967     0.00949681    -0.00010536     0.00008869     0.00041727
N        -0.04082489    -0.03940756     1.30285654    -0.00001565     0.00004327    -0.00034658
H         0.92546168    -0.04667219    -0.52147036     0.00022940    -0.00060408     0.00019826
H         0.75131443    -0.15192595     1.82064046    -0.00018693    -0.00034836     0.00049352
H        -0.93980608    -0.15352078     1.91735307     0.00122242    -0.00027866    -0.00031087
H        -1.05797006     0.08077644    -0.54259933     0.00020814    -0.00042708    -0.00053683
     6
  Step:     1            Position(A)                                  Velocity(au)
C        -0.02786135     0.01300879     0.01166819    -0.00012058     0.00009023     0.00037459
N        -0.04102165    -0.03916367     1.30104856    -0.00005507     0.00004583    -0.00031272
H         0.92682790    -0.04999414    -0.52065755     0.00026646    -0.00061069     0.00010104
H         0.75137602    -0.15398597     1.82408519     0.00020012    -0.00040373     0.00075871
H        -0.93262861    -0.15502433     1.91526226     0.00139294    -0.00027193    -0.00044917
H        -1.05646415     0.07844420    -0.54551555     0.00034260    -0.00042568    -0.00052841
     6
  Step:     2            Position(A)                                  Velocity(au)
C        -0.02856136     0.01350668     0.01359460    -0.00013478     0.00009184     0.00032771
N        -0.04142728    -0.03890622     1.29943554    -0.00009134     0.00004816    -0.00027508
H         0.92837660    -0.05335276    -0.52036504     0.00029551    -0.00061715     0.00000845
H         0.75350362    -0.15634252     1.82894022     0.00056124    -0.00045548     0.00100374
H        -0.92456819    -0.15649552     1.91243940     0.00154252    -0.00026706    -0.00057659
H        -1.05422226     0.07611974    -0.54837978     0.00047625    -0.00042399    -0.00051795
     6
  Step:     3            Position(A)                                  Velocity(au)
C        -0.02933615     0.01401371     0.01525395    -0.00014770     0.00009348     0.00027696
N        -0.04202110    -0.03863672     1.29803871    -0.00012322     0.00005017    -0.00023353
H         0.93006128    -0.05674693    -0.52056510     0.00031560    -0.00062319    -0.00007860
H         0.75751701    -0.15896976     1.83506802     0.00088325    -0.00050138     0.00121898
H        -0.91575061    -0.15794646     1.90895330     0.00166633    -0.00026473    -0.00068930
H        -1.05125311     0.07380500    -0.55118292     0.00060723    -0.00042174    -0.00050608
     6
  Step:     4            Position(A)                                  Velocity(au)
C        -0.03017808     0.01452987     0.01662622    -0.00015906     0.00009506     0.00022282
N        -0.04277605    -0.03835711     1.29687934    -0.00014963     0.00005178    -0.00018823
H         0.93183108    -0.06017414    -0.52122543     0.00032609    -0.00062848    -0.00015932
H         0.76317161    -0.16183063     1.84228312     0.00115580    -0.00053954     0.00139662
H        -0.90632865    -0.15939320     1.90489435     0.00175936    -0.00026565    -0.00078326
H        -1.04757556     0.07150340    -0.55391928     0.00073354    -0.00041870    -0.00049341
     6
  Step:     5            Position(A)                                  Velocity(au)
C        -0.03107815     0.01505477     0.01769426    -0.00016862     0.00009651     0.00016591
N        -0.04365987    -0.03806960     1.29597725    -0.00016975     0.00005298    -0.00013961
H         0.93363262    -0.06362992    -0.52230992     0.00032669    -0.00063267    -0.00023302
H         0.77017524    -0.16487879     1.85036365     0.00137182    -0.00056850     0.00153116
H        -0.89648225    -0.16085583     1.90037509     0.00181669    -0.00027058    -0.00085439
H        -1.04321946     0.06921948    -0.55658674     0.00085306    -0.00041464    -0.00048064
     6
  Step:     6            Position(A)                                  Velocity(au)
C        -0.03202612     0.01558762     0.01844458    -0.00017618     0.00009777     0.00010701
N        -0.04463646    -0.03777642     1.29534926    -0.00018300     0.00005379    -0.00008839
H         0.93541159    -0.06710805    -0.52377924     0.00031743    -0.00063548    -0.00029916
H         0.77820650    -0.16806130     1.85906439     0.00152770    -0.00058734     0.00161968
H        -0.88641805    -0.16235869     1.89553044     0.00183377    -0.00028029    -0.00089874
H        -1.03822621     0.06695907    -0.55918697     0.00096365    -0.00040936    -0.00046848
     6
  Step:     7            Position(A)                                  Velocity(au)
C        -0.03301078     0.01612722     0.01886808    -0.00018160     0.00009876     0.00004701
N        -0.04566729    -0.03747960     1.29500765    -0.00018911     0.00005425    -0.00003553
H         0.93711461    -0.07060083    -0.52559156     0.00029865    -0.00063673    -0.00035739
H         0.78693327    -0.17132163     1.86813062     0.00162316    -0.00059573     0.00166177
H        -0.87636683    -0.16393048     1.89051639     0.00180692    -0.00029556    -0.00091294
H        -1.03264881     0.06472907    -0.56172572     0.00106323    -0.00040271    -0.00045776
     6
  Step:     8            Position(A)                                  Velocity(au)
C        -0.03402017     0.01667206     0.01896072    -0.00018479     0.00009945    -0.00001312
N        -0.04671291    -0.03718077     1.29495914    -0.00018807     0.00005446     0.00001788
H         0.93869090    -0.07409953    -0.52770343     0.00027105    -0.00063631    -0.00040752
H         0.79602921    -0.17460261     1.87731104     0.00166074    -0.00059386     0.00165929
H        -0.86657760    -0.16560399     1.88550617     0.00173378    -0.00031707    -0.00089447
H        -1.02655163     0.06253718    -0.56421329     0.00114991    -0.00039462    -0.00044935
     6
  Step:     9            Position(A)                                  Velocity(au)
C        -0.03504193     0.01722033     0.01872389    -0.00018572     0.00009979    -0.00007237
N        -0.04773444    -0.03688100     1.29520418    -0.00018014     0.00005454     0.00007070
H         0.94009391    -0.07759496    -0.53007090     0.00023556    -0.00063424    -0.00044962
H         0.80518757    -0.17784913     1.88636893     0.00164520    -0.00058236     0.00161589
H        -0.85730973    -0.16741561     1.88068467     0.00161368    -0.00034539    -0.00084210
H        -1.02000937     0.06039150    -0.56666485     0.00122205    -0.00038508    -0.00044418
     6
  Step:    10            Position(A)                                  Velocity(au)
C        -0.03606368     0.01777008     0.01816442    -0.00018444     0.00009978    -0.00012980
N        -0.04869498    -0.03658071     1.29573705    -0.00016583     0.00005460     0.00012187
H         0.94128271    -0.08107807    -0.53265060     0.00019332    -0.00063064    -0.00048396
H         0.81413122    -0.18101029     1.89509054     0.00158275    -0.00056220     0.00153646
H        -0.84882243    -0.16940425     1.87624065     0.00144795    -0.00038084    -0.00075609
H        -1.01310551     0.05830022    -0.56910057     0.00127834    -0.00037411    -0.00044316
     6
  Step:    11            Position(A)                                  Velocity(au)
C        -0.03707331     0.01831929     0.01729432    -0.00018104     0.00009941    -0.00018455
N        -0.04956080    -0.03627969     1.29654640    -0.00014583     0.00005475     0.00017049
H         0.94222300    -0.08454050    -0.53540094     0.00014561    -0.00062570    -0.00051098
H         0.82261912    -0.18404090     1.90329066     0.00148035    -0.00053453     0.00142654
H        -0.84136272    -0.17160997     1.87235745     0.00124008    -0.00042348    -0.00063844
H        -1.00593038     0.05627130    -0.57154556     0.00131785    -0.00036180    -0.00044717
     6
  Step:    12            Position(A)                                  Velocity(au)
C        -0.03805928     0.01886591     0.01613018    -0.00017565     0.00009870    -0.00023587
N        -0.05030243    -0.03597720     1.29761634    -0.00012099     0.00005508     0.00021589
H         0.94288769    -0.08797505    -0.53828306     0.00009375    -0.00061968    -0.00053130
H         0.83044888    -0.18690237     1.91081508     0.00134512    -0.00050061     0.00129187
H        -0.83515321    -0.17407217     1.86920323     0.00099566    -0.00047299    -0.00049284
H        -0.99857908     0.05431218    -0.57402961     0.00133995    -0.00034826    -0.00045702
     6
  Step:    13            Position(A)                                  Velocity(au)
C        -0.03901081     0.01940798     0.01469248    -0.00016841     0.00009765    -0.00028317
N        -0.05089545    -0.03567212     1.29892779    -0.00009230     0.00005563     0.00025763
H         0.94325709    -0.09137595    -0.54126151     0.00003906    -0.00061283    -0.00054560
H         0.83745672    -0.18956292     1.91754082     0.00118384    -0.00046162     0.00113792
H        -0.83037992    -0.17682735     1.86692105     0.00072230    -0.00052865    -0.00032466
H        -0.99114986     0.05242976    -0.57658683     0.00134429    -0.00033360    -0.00047344
     6
  Step:    14            Position(A)                                  Velocity(au)
C        -0.03991804     0.01994363     0.01300481    -0.00015951     0.00009628    -0.00032598
N        -0.05132112    -0.03536318     1.30045983    -0.00006079     0.00005642     0.00029553
H         0.94331884    -0.09473886    -0.54430477    -0.00001718    -0.00060543    -0.00055459
H         0.84351491    -0.19199722     1.92337425     0.00100272    -0.00041870     0.00096974
H        -0.82718127    -0.17990690     1.86562000     0.00042913    -0.00058933    -0.00014056
H        -0.98374226     0.05063027    -0.57925490     0.00133080    -0.00031791    -0.00049693
     6
  Step:    15            Position(A)                                  Velocity(au)
C        -0.04077205     0.02047107     0.01109302    -0.00014910     0.00009461    -0.00036396
N        -0.05156665    -0.03504911     1.30219104    -0.00002755     0.00005742     0.00032959
H         0.94306737    -0.09806098    -0.54738525    -0.00007381    -0.00059769    -0.00055899
H         0.84852864    -0.19418614     1.92824855     0.00080730    -0.00037288     0.00079183
H        -0.82564147    -0.18333470     1.86536897     0.00012641    -0.00065348     0.00005180
H        -0.97645542     0.04891940    -0.58207384     0.00129966    -0.00030129    -0.00052778
     6
  Step:    16            Position(A)                                  Velocity(au)
C        -0.04156495     0.02098865     0.00898462    -0.00013737     0.00009265    -0.00039684
N        -0.05162540    -0.03472893     1.30410044     0.00000633     0.00005856     0.00035995
H         0.94250353    -0.10134076    -0.55047921    -0.00012972    -0.00058979    -0.00055943
H         0.85243213    -0.19611592     1.93212058     0.00060245    -0.00032504     0.00060814
H        -0.82578502    -0.18712511     1.86619217    -0.00017503    -0.00071921     0.00024426
H        -0.96938654     0.04730231    -0.58508464     0.00125129    -0.00028378    -0.00056602
     6
  Step:    17            Position(A)                                  Velocity(au)
C        -0.04228985     0.02149474     0.00670826    -0.00012450     0.00009040    -0.00042446
N        -0.05149671    -0.03440206     1.30616812     0.00003979     0.00005976     0.00038679
H         0.94163409    -0.10457761    -0.55356650    -0.00018387    -0.00058185    -0.00055652
H         0.85518519    -0.19777756     1.93496795     0.00039252    -0.00027598     0.00042217
H        -0.82757537    -0.19128137     1.86806786    -0.00046435    -0.00078439     0.00042867
H        -0.96262975     0.04578385    -0.58832789     0.00118636    -0.00026543    -0.00061138
     6
  Step:    18            Position(A)                                  Velocity(au)
C        -0.04294094     0.02198781     0.00429330    -0.00011068     0.00008788    -0.00044669
N        -0.05118565    -0.03406848     1.30837545     0.00007184     0.00006090     0.00041035
H         0.94047133    -0.10777160    -0.55663011    -0.00023530    -0.00057394    -0.00055076
H         0.85677041    -0.19916623     1.93678663     0.00018147    -0.00022643     0.00023711
H        -0.83091721    -0.19579457     1.87093002    -0.00073143    -0.00084678     0.00059741
H        -0.95627431     0.04436860    -0.59184191     0.00110590    -0.00024628    -0.00066322
     6
  Step:    19            Position(A)                                  Velocity(au)
C        -0.04351357     0.02246633     0.00176952    -0.00009614     0.00008507    -0.00046349
N        -0.05070245    -0.03372877     1.31070503     0.00010159     0.00006188     0.00043079
H         0.93903257    -0.11092324    -0.55965585    -0.00028311    -0.00056610    -0.00054262
H         0.85719154    -0.20028099     1.93758950    -0.00002691    -0.00017704     0.00005595
H        -0.83566224    -0.20064360     1.87467298    -0.00096744    -0.00090422     0.00074390
H        -0.95040261     0.04306095    -0.59566067     0.00101136    -0.00022634    -0.00072053
     6
  Step:    20            Position(A)                                  Velocity(au)
C        -0.04400436     0.02292881    -0.00083338    -0.00008112     0.00008200    -0.00047490
N        -0.05006192    -0.03338402     1.31314038     0.00012829     0.00006262     0.00044824
H         0.93733981    -0.11403323    -0.56263196    -0.00032651    -0.00055837    -0.00053251
H         0.85647274    -0.20112450     1.93740550    -0.00022888    -0.00012853    -0.00011839
H        -0.84161802    -0.20579612     1.87915828    -0.00116533    -0.00095476     0.00086299
H        -0.94508769     0.04186506    -0.59981168     0.00090467    -0.00020567    -0.00078196
     6
  Step:    21            Position(A)                                  Velocity(au)
C        -0.04441132     0.02337380    -0.00348600    -0.00006589     0.00007867    -0.00048102
N        -0.04928270    -0.03303581     1.31566549     0.00015131     0.00006303     0.00046275
H         0.93541924    -0.11710250    -0.56554895    -0.00036477    -0.00055080    -0.00052085
H         0.85465858    -0.20170332     1.93627930    -0.00042070    -0.00008159    -0.00028305
H        -0.84855847    -0.21120952     1.88422329    -0.00132016    -0.00099677     0.00095117
H        -0.94039105     0.04078493    -0.60431426     0.00078816    -0.00018430    -0.00084587
     6
  Step:    22            Position(A)                                  Velocity(au)
C        -0.04473399     0.02379996    -0.00615978    -0.00005074     0.00007511    -0.00048208
N        -0.04838642    -0.03268603     1.31826445     0.00017020     0.00006310     0.00047433
H         0.93330066    -0.12013225    -0.56839944    -0.00039733    -0.00054345    -0.00050804
H         0.85181432    -0.20202797     1.93427126    -0.00059856    -0.00003698    -0.00043518
H        -0.85623623    -0.21683348     1.88969069    -0.00142930    -0.00102915     0.00100674
H        -0.93636027     0.03982426    -0.60917805     0.00066463    -0.00016232    -0.00091042
     6
  Step:    23            Position(A)                                  Velocity(au)
C        -0.04497350     0.02420604    -0.00882757    -0.00003595     0.00007134    -0.00047842
N        -0.04739682    -0.03233666     1.32092118     0.00018467     0.00006281     0.00048296
H         0.93101672    -0.12312406    -0.57117817    -0.00042378    -0.00053646    -0.00049449
H         0.84802639    -0.20211304     1.93145738    -0.00075870     0.00000456    -0.00057203
H        -0.86439540    -0.22261275     1.89537817    -0.00149241    -0.00105135     0.00102969
H        -0.93302686     0.03898635    -0.61440187     0.00053714    -0.00013982    -0.00097366
     6
  Step:    24            Position(A)                                  Velocity(au)
C        -0.04513261     0.02459097    -0.01146418    -0.00002183     0.00006741    -0.00047046
N        -0.04633893    -0.03198958     1.32361923     0.00019456     0.00006222     0.00048861
H         0.92860201    -0.12608018    -0.57388202    -0.00044390    -0.00052998    -0.00048060
H         0.84340229    -0.20197740     1.92792888    -0.00089746     0.00004227    -0.00069102
H        -0.87278324    -0.22849021     1.90110728    -0.00151116    -0.00106336     0.00102150
H        -0.93040480     0.03827405    -0.61997345     0.00040893    -0.00011688    -0.00103369
     6
  Step:    25            Position(A)                                  Velocity(au)
C        -0.04521566     0.02495392    -0.01404689    -0.00000863     0.00006336    -0.00045873
N        -0.04523831    -0.03164638     1.32634185     0.00019988     0.00006139     0.00049127
H         0.92609207    -0.12900375    -0.57651004    -0.00045765    -0.00052424    -0.00046682
H         0.83806986    -0.20164411     1.92379116    -0.00101144     0.00007542    -0.00078982
H        -0.88116042    -0.23440981     1.90671085    -0.00148889    -0.00106572     0.00098486
H        -0.92849008     0.03768968    -0.62586980     0.00028321    -0.00009360    -0.00108877
     6
  Step:    26            Position(A)                                  Velocity(au)
C        -0.04522840     0.02529427    -0.01655594     0.00000341     0.00005924    -0.00044383
N        -0.04412031    -0.03130819     1.32907216     0.00020072     0.00006042     0.00049099
H         0.92352229    -0.13189911    -0.57906353    -0.00046519    -0.00051951    -0.00045355
H         0.83217569    -0.20114023     1.91916213    -0.00109758     0.00010336    -0.00086649
H        -0.88930933    -0.24031934     1.91203885    -0.00143009    -0.00105938     0.00092323
H        -0.92726130     0.03723511    -0.63205837     0.00016291    -0.00007006    -0.00113741
     6
  Step:    27            Position(A)                                  Velocity(au)
C        -0.04517779     0.02561172    -0.01897485     0.00001412     0.00005510    -0.00042636
N        -0.04300960    -0.03097553     1.33179345     0.00019726     0.00005943     0.00048784
H         0.92092688    -0.13477200    -0.58154592    -0.00046686    -0.00051606    -0.00044118
H         0.82588316    -0.20049651     1.91417027    -0.00115325     0.00012549    -0.00091947
H        -0.89703907    -0.24617245     1.91696172    -0.00133991    -0.00104560     0.00084049
H        -0.92668125     0.03691177    -0.63849878     0.00005060    -0.00004631    -0.00117848
     6
  Step:    28            Position(A)                                  Velocity(au)
C        -0.04507165     0.02590618    -0.02129051     0.00002336     0.00005099    -0.00040693
N        -0.04192977    -0.03064828     1.33448945     0.00018973     0.00005853     0.00048195
H         0.91833800    -0.13762972    -0.58396261    -0.00046310    -0.00051420    -0.00043004
H         0.81936931    -0.19974674     1.90895186    -0.00117641     0.00014136    -0.00094768
H        -0.90418844    -0.25193020     1.92137210    -0.00122372    -0.00102578     0.00074059
H        -0.92669942     0.03672088    -0.64514481    -0.00005167    -0.00002235    -0.00121117
     6
  Step:    29            Position(A)                                  Velocity(au)
C        -0.04491840     0.02617784    -0.02349303     0.00003108     0.00004693    -0.00038607
N        -0.04090301    -0.03032565     1.33714459     0.00017837     0.00005785     0.00047344
H         0.91578499    -0.14048118    -0.58632071    -0.00045446    -0.00051420    -0.00042040
H         0.81282136    -0.19892703     1.90364807    -0.00116556     0.00015063    -0.00095054
H        -0.91062615    -0.25756178     1.92518456    -0.00108665    -0.00100139     0.00062726
H        -0.92725493     0.03666362    -0.65194649    -0.00014238     0.00000184    -0.00123500
     6
  Step:    30            Position(A)                                  Velocity(au)
C        -0.04472670     0.02642704    -0.02557545     0.00003725     0.00004296    -0.00036425
N        -0.03995003    -0.03000623     1.33974415     0.00016346     0.00005748     0.00046248
H         0.91329402    -0.14333677    -0.58862862    -0.00044151    -0.00051632    -0.00041244
H         0.80643287    -0.19807497     1.89840196    -0.00111993     0.00015313    -0.00092797
H        -0.91624902    -0.26304455     1.92833399    -0.00093338    -0.00097384     0.00050385
H        -0.92827971     0.03674136    -0.65885193    -0.00022056     0.00002635    -0.00124974
     6
  Step:    31            Position(A)                                  Velocity(au)
C        -0.04450518     0.02665430    -0.02753332     0.00004191     0.00003908    -0.00034185
N        -0.03908990    -0.02968805     1.34227444     0.00014527     0.00005752     0.00044921
H         0.91088774    -0.14620825    -0.59089558    -0.00042485    -0.00052077    -0.00040625
H         0.80039902    -0.19722854     1.89335494    -0.00103951     0.00014887    -0.00088048
H        -0.92097929    -0.26836366     1.93077331    -0.00076804    -0.00094440     0.00037326
H        -0.92970142     0.03695590    -0.66580874    -0.00028567     0.00005128    -0.00125534
     6
  Step:    32            Position(A)                                  Velocity(au)
C        -0.04426224     0.02686016    -0.02936423     0.00004510     0.00003531    -0.00031917
N        -0.03833997    -0.02936873     1.34472278     0.00012411     0.00005802     0.00043379
H         0.90858531    -0.14910847    -0.59313109    -0.00040509    -0.00052769    -0.00040179
H         0.79491186    -0.19642501     1.88864349    -0.00092523     0.00013809    -0.00080918
H        -0.92476130    -0.27351139     1.93247090    -0.00059415    -0.00091420     0.00023796
H        -0.93144586     0.03730971    -0.67276497    -0.00033755     0.00007678    -0.00125183
     6
  Step:    33            Position(A)                                  Velocity(au)
C        -0.04400585     0.02704522    -0.03106733     0.00004690     0.00003163    -0.00029642
N        -0.03771568    -0.02904560     1.34707762     0.00010032     0.00005903     0.00041640
H         0.90640236    -0.15205110    -0.59534442    -0.00038281    -0.00053720    -0.00039897
H         0.79015440    -0.19569956     1.88439526    -0.00077911     0.00012125    -0.00071590
H        -0.92755806    -0.27848621     1.93340808    -0.00041472    -0.00088426     0.00010000
H        -0.93343899     0.03780602    -0.67966970    -0.00037633     0.00010300    -0.00123934
     6
  Step:    34            Position(A)                                  Velocity(au)
C        -0.04374343     0.02721003    -0.03264290     0.00004743     0.00002804    -0.00027375
N        -0.03723032    -0.02871584     1.34932852     0.00007430     0.00006055     0.00039720
H         0.90435111    -0.15505037    -0.59754407    -0.00035859    -0.00054934    -0.00039758
H         0.78629416    -0.19508385     1.88072491    -0.00060439     0.00009911    -0.00060324
H        -0.92934851    -0.28329211     1.93357702    -0.00023237    -0.00085545    -0.00003880
H        -0.93560847     0.03844900    -0.68647329    -0.00040237     0.00013013    -0.00121803
     6
  Step:    35            Position(A)                                  Velocity(au)
C        -0.04348176     0.02735505    -0.03409194     0.00004680     0.00002452    -0.00025125
N        -0.03689471    -0.02837663     1.35146628     0.00004653     0.00006257     0.00037641
H         0.90244036    -0.15812079    -0.59973727    -0.00033302    -0.00056415    -0.00039734
H         0.78347648    -0.19460448     1.87773008    -0.00040559     0.00007270    -0.00047455
H        -0.93012553    -0.28793801     1.93297937    -0.00004949    -0.00082861    -0.00017682
H        -0.93788478     0.03924383    -0.69312763    -0.00041619     0.00015835    -0.00118807
     6
  Step:    36            Position(A)                                  Velocity(au)
C        -0.04322689     0.02748068    -0.03541601     0.00004513     0.00002105    -0.00022902
N        -0.03671673    -0.02802527     1.35348303     0.00001757     0.00006506     0.00035427
H         0.90067557    -0.16127693    -0.60192956    -0.00030670    -0.00058159    -0.00039789
H         0.78181762    -0.19428143     1.87548728    -0.00018848     0.00004333    -0.00033393
H        -0.92989477    -0.29243753     1.93162539     0.00013163    -0.00080456    -0.00031252
H        -0.94020204     0.04019672    -0.69958616    -0.00041843     0.00018785    -0.00114968
     6
  Step:    37            Position(A)                                  Velocity(au)
C        -0.04298412     0.02758718    -0.03661703     0.00004259     0.00001802    -0.00023627
N        -0.03670096    -0.02765930     1.35537236    -0.00001168     0.00006868     0.00035291
H         0.89905877    -0.16453331    -0.60412438    -0.00030829    -0.00065107    -0.00036763
H         0.78139838    -0.19412670     1.87404825     0.00003383     0.00005944    -0.00018264
H        -0.92867418    -0.29680893     1.92953363     0.00032279    -0.00084333    -0.00046474
H        -0.94249835     0.04131502    -0.70580381    -0.00039352     0.00026586    -0.00107373
     6
  Step:    38            Position(A)                                  Velocity(au)
C        -0.04275768     0.02767915    -0.03801871     0.00003977     0.00001572    -0.00027943
N        -0.03684540    -0.02726872     1.35737064    -0.00004069     0.00007278     0.00037819
H         0.89727952    -0.16844901    -0.60597932    -0.00034071    -0.00076626    -0.00030227
H         0.78219025    -0.19362669     1.87347534     0.00025087     0.00011870    -0.00003296
H        -0.92633900    -0.30172750     1.92650586     0.00052344    -0.00093751    -0.00063460
H        -0.94453704     0.04312539    -0.71141423    -0.00034205     0.00038641    -0.00095587
     6
  Step:    39            Position(A)                                  Velocity(au)
C        -0.04254631     0.02776018    -0.03969306     0.00003688     0.00001383    -0.00033056
N        -0.03714888    -0.02685813     1.35953556    -0.00006902     0.00007636     0.00040959
H         0.89530818    -0.17296849    -0.60745182    -0.00037551    -0.00087380    -0.00023227
H         0.78416003    -0.19281999     1.87368543     0.00046052     0.00017305     0.00010442
H        -0.92291204    -0.30712932     1.92254776     0.00071669    -0.00102396    -0.00079983
H        -0.94626371     0.04556868    -0.71632625    -0.00028188     0.00049883    -0.00082510
     6
  Step:    40            Position(A)                                  Velocity(au)
C        -0.04235191     0.02783130    -0.04165618     0.00003359     0.00001207    -0.00038323
N        -0.03760494    -0.02642849     1.36187773    -0.00009577     0.00007979     0.00044178
H         0.89314740    -0.17806417    -0.60853516    -0.00040876    -0.00097651    -0.00016187
H         0.78725781    -0.19172247     1.87462436     0.00065806     0.00022546     0.00023103
H        -0.91845257    -0.31299502     1.91770457     0.00089669    -0.00110781    -0.00095471
H        -0.94763881     0.04861449    -0.72049358    -0.00021537     0.00060615    -0.00068697
     6
  Step:    41            Position(A)                                  Velocity(au)
C        -0.04217667     0.02789301    -0.04390983     0.00002991     0.00001038    -0.00043527
N        -0.03820266    -0.02598016     1.36439656    -0.00012009     0.00008315     0.00047310
H         0.89081052    -0.18371317    -0.60923287    -0.00043874    -0.00107479    -0.00009272
H         0.79140070    -0.19033920     1.87622745     0.00083720     0.00027757     0.00034444
H        -0.91304569    -0.31931872     1.91204301     0.00105848    -0.00119098    -0.00109525
H        -0.94863349     0.05223828    -0.72388509    -0.00014450     0.00070891    -0.00054407
     6
  Step:    42            Position(A)                                  Velocity(au)
C        -0.04202271     0.02794556    -0.04644680     0.00002586     0.00000872    -0.00048512
N        -0.03892668    -0.02551327     1.36708470    -0.00014118     0.00008648     0.00050239
H         0.88831858    -0.18989342    -0.60955565    -0.00046413    -0.00116848    -0.00002612
H         0.79647215    -0.18866746     1.87841534     0.00099194     0.00033050     0.00044197
H        -0.90680276    -0.32610313     1.90565010     0.00119712    -0.00127480    -0.00121768
H        -0.94922922     0.05641685    -0.72648173    -0.00007124     0.00080704    -0.00039874
     6
  Step:    43            Position(A)                                  Velocity(au)
C        -0.04189183     0.02798907    -0.04925253     0.00002152     0.00000708    -0.00053150
N        -0.03975745    -0.02502774     1.36992940    -0.00015830     0.00008981     0.00052871
H         0.88569908    -0.19658165    -0.60952056    -0.00048380    -0.00125710     0.00003673
H         0.80232494    -0.18669934     1.88109484     0.00111711     0.00038492     0.00052130
H        -0.89986180    -0.33335820     1.89863268     0.00130770    -0.00136040    -0.00131837
H        -0.94941801     0.06112623    -0.72827647     0.00000238     0.00090018    -0.00025337
     6
  Step:    44            Position(A)                                  Velocity(au)
C        -0.04178543     0.02802363    -0.05230597     0.00001698     0.00000546    -0.00057327
N        -0.04067176    -0.02452326     1.37291310    -0.00017086     0.00009319     0.00055124
H         0.88298526    -0.20375139    -0.60915075    -0.00049682    -0.00134004     0.00009470
H         0.80878690    -0.18442422     1.88416201     0.00120884     0.00044100     0.00058083
H        -0.89238700    -0.34109985     1.89111667     0.00138574    -0.00144877    -0.00139411
H        -0.94920302     0.06634016    -0.72927484     0.00007421     0.00098780    -0.00011048
     6