     6
  Step:   120            Position(A)                                  Velocity(au)
C        -0.03923581     0.03876534    -0.05558761    -0.00005779    -0.00000221     0.00062319
N        -0.03238161    -0.01514667     1.37784941     0.00006712    -0.00000649    -0.00056622
H         0.85177334     0.31146580    -0.68241278    -0.00062287     0.00125520     0.00048639
H         0.55209808    -0.82631681     1.73617129    -0.00127870    -0.00119964    -0.00036785
H        -0.87604180     0.14634777     1.95915737     0.00054472     0.00140345    -0.00026198
H        -0.82324528    -0.55272618    -0.60556876     0.00111275    -0.00134243     0.00058588
