     6
  Step:     0            Position(A)                                  Velocity(au)
C        -0.03453665     0.02036895     0.01842540     0.00014010    -0.00012761     0.00026850
N        -0.04101673    -0.04846532     1.29838527     0.00008409     0.00012354    -0.00019548
H         0.90190596     0.02052907    -0.54120410    -0.00105904     0.00023641     0.00013624
H         0.81032598    -0.15162791     1.81860302    -0.00093103    -0.00025340    -0.00068197
H        -0.96809851    -0.11600290     1.86458592    -0.00056930    -0.00058390    -0.00010461
H        -0.97554779     0.00809684    -0.51232019    -0.00027862     0.00040461     0.00016729
     6
  Step:     1            Position(A)                                  Velocity(au)
C        -0.03376933     0.01967889     0.01977268     0.00013960    -0.00012480     0.00022321
N        -0.04061120    -0.04779269     1.29745654     0.00006303     0.00012258    -0.00014358
H         0.89631594     0.02183486    -0.54069944    -0.00097756     0.00024138     0.00004351
H         0.80554943    -0.15309275     1.81519199    -0.00080308    -0.00028444    -0.00055704
H        -0.97070219    -0.11917102     1.86376343    -0.00037907    -0.00057449    -0.00019845
H        -0.97735645     0.01029902    -0.51173986    -0.00037958     0.00040122     0.00004739
     6
  Step:     2            Position(A)                                  Velocity(au)
C        -0.03300985     0.01900397     0.02086664     0.00013733    -0.00012217     0.00017615
N        -0.04032742    -0.04712470     1.29681495     0.00003985     0.00012193    -0.00009075
H         0.89121433     0.02316907    -0.54072827    -0.00088185     0.00024700    -0.00005845
H         0.80154261    -0.15473888     1.81251060    -0.00065196    -0.00031972    -0.00041682
H        -0.97224444    -0.12228618     1.86241545    -0.00018307    -0.00056500    -0.00029576
H        -0.97969933     0.01248505    -0.51180189    -0.00047332     0.00039893    -0.00006705
     6
  Step:     3            Position(A)                                  Velocity(au)
C        -0.03226776     0.01834313     0.02169869     0.00013339    -0.00011977     0.00012769
N        -0.04017553    -0.04645951     1.29646436     0.00001508     0.00012166    -0.00003736
H         0.88667409     0.02453551    -0.54133854    -0.00077393     0.00025342    -0.00016875
H         0.79842117    -0.15658846     1.81063465    -0.00048214    -0.00035891    -0.00026438
H        -0.97270383    -0.12534855     1.86052968     0.00001526    -0.00055578    -0.00039432
H        -0.98253160     0.01466080    -0.51247292    -0.00055827     0.00039777    -0.00017502
     6
  Step:     4            Position(A)                                  Velocity(au)
C        -0.03155203     0.01769499     0.02226221     0.00012789    -0.00011765     0.00007816
N        -0.04016258    -0.04579512     1.29640663    -0.00001068     0.00012176     0.00001626
H         0.88275604     0.02593867    -0.54257257    -0.00065605     0.00026072    -0.00028626
H         0.79627327    -0.15866136     1.80962114    -0.00029891    -0.00040148    -0.00010333
H        -0.97207765    -0.12836031     1.85810589     0.00021260    -0.00054716    -0.00049194
H        -0.98580066     0.01683227    -0.51371470    -0.00063314     0.00039771    -0.00027577
     6
  Step:     5            Position(A)                                  Velocity(au)
C        -0.03087073     0.01705795     0.02255246     0.00012100    -0.00011583     0.00002786
N        -0.04029222    -0.04512945     1.29664196    -0.00003681     0.00012224     0.00006982
H         0.87950750     0.02738352    -0.54446563    -0.00053075     0.00026895    -0.00040958
H         0.79515592    -0.16097415     1.80950585    -0.00010816    -0.00044675     0.00006233
H        -0.97038146    -0.13132562     1.85515587     0.00040556    -0.00053947    -0.00058635
H        -0.98944785     0.01900531    -0.51548540    -0.00069691     0.00039869    -0.00036873
     6
  Step:     6            Position(A)                                  Velocity(au)
C        -0.03023090     0.01643026     0.02256643     0.00011291    -0.00011433    -0.00002286
N        -0.04056452    -0.04446043     1.29716897    -0.00006263     0.00012308     0.00012303
H         0.87696105     0.02887525    -0.54704455    -0.00040076     0.00027813    -0.00053698
H         0.79509234    -0.16353917     1.81030167     0.00008382    -0.00049382     0.00022832
H        -0.96764952    -0.13425049     1.85170382     0.00059056    -0.00053301    -0.00067516
H        -0.99340990     0.02118536    -0.51774068    -0.00074880     0.00040058    -0.00045346
     6
  Step:     7            Position(A)                                  Velocity(au)
C        -0.02963841     0.01581013     0.02230292     0.00010386    -0.00011315    -0.00007367
N        -0.04097573    -0.04378614     1.29798470    -0.00008740     0.00012424     0.00017555
H         0.87513359     0.03041898    -0.55032621    -0.00026905     0.00028817    -0.00066647
H         0.79607069    -0.16636363     1.81199771     0.00027054    -0.00054165     0.00039022
H        -0.96393610    -0.13714287     1.84778722     0.00076367    -0.00052813    -0.00075576
H        -0.99762015     0.02337719    -0.52043440    -0.00078819     0.00040321    -0.00052962
     6
  Step:     8            Position(A)                                  Velocity(au)
C        -0.02909778     0.01519579     0.02176263     0.00009407    -0.00011225    -0.00012416
N        -0.04151808    -0.04310488     1.29908428    -0.00011037     0.00012567     0.00022695
H         0.87402555     0.03201939    -0.55431606    -0.00013871     0.00029897    -0.00079573
H         0.79804404    -0.16944888     1.81455920     0.00044562    -0.00058907     0.00054365
H        -0.95931752    -0.14001268     1.84345806     0.00092047    -0.00052518    -0.00082529
H        -1.00200946     0.02558463    -0.52351914    -0.00081464     0.00040638    -0.00059694
     6
  Step:     9            Position(A)                                  Velocity(au)
C        -0.02861220     0.01458560     0.02094841     0.00008381    -0.00011161    -0.00017389
N        -0.04217970    -0.04241522     1.30046051    -0.00013076     0.00012731     0.00027674
H         0.87362040     0.03368040    -0.55900683    -0.00001291     0.00031031    -0.00092224
H         0.80093195    -0.17278982     1.81792840     0.00060308    -0.00063482     0.00068445
H        -0.95389469    -0.14287206     1.83878420     0.00105615    -0.00052457    -0.00088066
H        -1.00650705     0.02781039    -0.52694641    -0.00082784     0.00040984    -0.00065515
     6
  Step:    10            Position(A)                                  Velocity(au)
C        -0.02818346     0.01397813     0.01986555     0.00007333    -0.00011119    -0.00022234
N        -0.04294467    -0.04171602     1.30210337    -0.00014784     0.00012909     0.00032429
H         0.87388469     0.03540481    -0.56437744     0.00010520     0.00032197    -0.00104331
H         0.80462340    -0.17637460     1.82202636     0.00073759    -0.00067762     0.00080888
H        -0.94779523    -0.14573559     1.83385038     0.00116557    -0.00052676    -0.00091869
H        -1.01104094     0.03005590    -0.53066660    -0.00082762     0.00041334    -0.00070401
     6
  Step:    11            Position(A)                                  Velocity(au)
C        -0.02781200     0.01337215     0.01852209     0.00006287    -0.00011094    -0.00026894
N        -0.04379310    -0.04100644     1.30399944    -0.00016091     0.00013098     0.00036891
H         0.87476846     0.03719405    -0.57039236     0.00021264     0.00033365    -0.00115619
H         0.80898117    -0.18018465     1.82675569     0.00084478    -0.00071623     0.00091381
H        -0.94117489    -0.14862053     1.82875858     0.00124349    -0.00053225    -0.00093625
H        -1.01553885     0.03232113    -0.53462918    -0.00081404     0.00041660    -0.00074333
     6
  Step:    12            Position(A)                                  Velocity(au)
C        -0.02749698     0.01276676     0.01692909     0.00005268    -0.00011081    -0.00031309
N        -0.04470160    -0.04028590     1.30613147    -0.00016936     0.00013291     0.00040987
H         0.87620648     0.03904786    -0.57700165     0.00030672     0.00034502    -0.00125826
H         0.81384738    -0.18419504     1.83200411     0.00092142    -0.00074955     0.00099685
H        -0.93421777    -0.15154717     1.82362764     0.00128494    -0.00054161    -0.00093046
H        -1.01992924     0.03460465    -0.53878293    -0.00078735     0.00041936    -0.00077303
     6
  Step:    13            Position(A)                                  Velocity(au)
C        -0.02723635     0.01216134     0.01510084     0.00004296    -0.00011073    -0.00035420
N        -0.04564373    -0.03955406     1.30847819    -0.00017273     0.00013487     0.00044641
H         0.87812007     0.04096422    -0.58414174     0.00038519     0.00035577    -0.00134715
H         0.81904979    -0.18837520     1.83764856     0.00096557    -0.00077664     0.00105647
H        -0.92713399    -0.15453889     1.81859113     0.00128571    -0.00055539    -0.00089907
H        -1.02414251     0.03690360    -0.54307635    -0.00074811     0.00042139    -0.00079312
     6
  Step:    14            Position(A)                                  Velocity(au)
C        -0.02702703     0.01155558     0.01305477     0.00003390    -0.00011067    -0.00039171
N        -0.04659094    -0.03881069     1.31101439    -0.00017075     0.00013683     0.00047788
H         0.88041979     0.04293933    -0.59173698     0.00044638     0.00036558    -0.00142090
H         0.82440887    -0.19269001     1.84355995     0.00097666    -0.00079683     0.00109210
H        -0.92015451    -0.15762207     1.81379355     0.00124287    -0.00057409    -0.00084067
H        -1.02811217     0.03921389    -0.54745820    -0.00069707     0.00042250    -0.00080376
     6
  Step:    15            Position(A)                                  Velocity(au)
C        -0.02686513     0.01094945     0.01081132     0.00002562    -0.00011057    -0.00042510
N        -0.04751357    -0.03805567     1.31371136    -0.00016335     0.00013878     0.00050371
H         0.88300837     0.04496767    -0.59970185     0.00048924     0.00037418    -0.00147804
H         0.82974509    -0.19710122     1.84960805     0.00095546    -0.00080975     0.00110407
H        -0.91352344    -0.16082568     1.80938509     0.00115528    -0.00059810    -0.00075505
H        -1.03177607     0.04153039    -0.55187817    -0.00063526     0.00042255    -0.00080525
     6
  Step:    16            Position(A)                                  Velocity(au)
C        -0.02674612     0.01034315     0.00839351     0.00001822    -0.00011041    -0.00045399
N        -0.04838209    -0.03728893     1.31653760    -0.00015072     0.00014073     0.00052354
H         0.88578430     0.04704220    -0.60794380     0.00051338     0.00038133    -0.00151770
H         0.83488556    -0.20156894     1.85566614     0.00090388    -0.00081529     0.00109352
H        -0.90748682    -0.16418033     1.80551438     0.00102401    -0.00062761    -0.00064339
H        -1.03507783     0.04384722    -0.55628783    -0.00056392     0.00042146    -0.00079811
     6
  Step:    17            Position(A)                                  Velocity(au)
C        -0.02666509     0.00973708     0.00582646     0.00001174    -0.00011017    -0.00047808
N        -0.04916847    -0.03651040     1.31945996    -0.00013327     0.00014268     0.00053722
H         0.88864543     0.04915473    -0.61636646     0.00051914     0.00038688    -0.00153960
H         0.83966982    -0.20605322     1.86161507     0.00082480    -0.00081364     0.00106230
H        -0.90227968    -0.16771694     1.80232053     0.00085258    -0.00066249    -0.00050834
H        -1.03796800     0.04615809    -0.56064151    -0.00048448     0.00041919    -0.00078298
     6
  Step:    18            Position(A)                                  Velocity(au)
C        -0.02661699     0.00913176     0.00313664     0.00000620    -0.00010982    -0.00049723
N        -0.04984749    -0.03572008     1.32244475    -0.00011166     0.00014461     0.00054481
H         0.89149260     0.05129617    -0.62487285     0.00050741     0.00039071    -0.00154405
H         0.84395488    -0.21051553     1.86734688     0.00072189    -0.00080526     0.00101281
H        -0.89811208    -0.17146489     1.79992477     0.00064702    -0.00070228    -0.00035400
H        -1.04040499     0.04845655    -0.56489723    -0.00039847     0.00041577    -0.00076066
     6
  Step:    19            Position(A)                                  Velocity(au)
C        -0.02659683     0.00852782     0.00035129     0.00000156    -0.00010936    -0.00051141
N        -0.05039803    -0.03491807     1.32545904    -0.00008675     0.00014650     0.00054659
H         0.89423270     0.05345698    -0.63336841     0.00047961     0.00039281    -0.00153181
H         0.84761874    -0.21492011     1.87276735     0.00059924    -0.00079077     0.00094779
H        -0.89515522    -0.17544988     1.79842249     0.00041559    -0.00074609    -0.00018574
H        -1.04235567     0.05073629    -0.56901730    -0.00030749     0.00041126    -0.00073203
     6
  Step:    20            Position(A)                                  Velocity(au)
C        -0.02659983     0.00792589    -0.00250235    -0.00000224    -0.00010879    -0.00052067
N        -0.05080402    -0.03410470     1.32847175    -0.00005952     0.00014831     0.00054302
H         0.89678100     0.05562742    -0.64176328     0.00043748     0.00039316    -0.00150400
H         0.85056240    -0.21923491     1.87779760     0.00046121    -0.00077096     0.00087016
H        -0.89352965    -0.17969156     1.79787677     0.00016831    -0.00079263    -0.00000982
H        -1.04379556     0.05299131    -0.57296888    -0.00021313     0.00040574    -0.00069802
     6
  Step:    21            Position(A)                                  Velocity(au)
C        -0.02662159     0.00732665    -0.00539749    -0.00000528    -0.00010811    -0.00052519
N        -0.05105521    -0.03328061     1.33145454    -0.00003106     0.00014997     0.00053466
H         0.89906291     0.05779790    -0.64997424     0.00038302     0.00039183    -0.00146203
H         0.85271096    -0.22343236     1.88237490     0.00031219    -0.00074671     0.00078293
H        -0.89329692    -0.18420141     1.79831410    -0.00008375    -0.00084029     0.00016697
H        -1.04470882     0.05521611    -0.57672417    -0.00011691     0.00039931    -0.00065958
     6
  Step:    22            Position(A)                                  Velocity(au)
C        -0.02665819     0.00673072    -0.00830832    -0.00000764    -0.00010733    -0.00052518
N        -0.05114741    -0.03244682     1.33438243    -0.00000247     0.00015140     0.00052217
H         0.90101529     0.05995918    -0.65792613     0.00031841     0.00038892    -0.00140749
H         0.85401374    -0.22748987     1.88645294     0.00015655    -0.00071897     0.00068905
H        -0.89445546    -0.18898103     1.79972269    -0.00032926    -0.00088719     0.00033785
H        -1.04508805     0.05740572    -0.58026057    -0.00002034     0.00039208    -0.00061766
     6
  Step:    23            Position(A)                                  Velocity(au)
C        -0.02670620     0.00613870    -0.01121032    -0.00000943    -0.00010645    -0.00052094
N        -0.05108250    -0.03160482     1.33723408     0.00002522     0.00015254     0.00050624
H         0.90258713     0.06210261    -0.66555280     0.00024587     0.00038455    -0.00134211
H         0.85444371    -0.23139017     1.89000147    -0.00000156    -0.00068873     0.00059137
H        -0.89694129    -0.19402108     1.80205355    -0.00055754    -0.00093137     0.00049650
H        -1.04493395     0.05955579    -0.58356064     0.00007519     0.00038418    -0.00057320
     6
  Step:    24            Position(A)                                  Velocity(au)
C        -0.02676273     0.00555114    -0.01408066    -0.00001353    -0.00010183    -0.00057036
N        -0.05086796    -0.03075656     1.33999193     0.00005197     0.00015215     0.00053258
H         0.90373972     0.06422028    -0.67279766     0.00015494     0.00039171    -0.00121573
H         0.85399643    -0.23512149     1.89300571    -0.00018159    -0.00068534     0.00047176
H        -0.90063339    -0.19930124     1.80522425    -0.00074472    -0.00094255     0.00062351
H        -1.04425492     0.06166265    -0.58661204     0.00021033     0.00033516    -0.00048411
     6
  Step:    25            Position(A)                                  Velocity(au)
C        -0.02685628     0.00500910    -0.01753731    -0.00002008    -0.00009344    -0.00067184
N        -0.05050595    -0.02991702     1.34314199     0.00007698     0.00014998     0.00060034
H         0.90430585     0.06644778    -0.67903883     0.00004888     0.00039968    -0.00103194
H         0.85242938    -0.23899265     1.89523471    -0.00037808    -0.00069680     0.00033467
H        -0.90520248    -0.20447682     1.80897011    -0.00088322    -0.00093004     0.00071245
H        -1.04260072     0.06327367    -0.58893082     0.00038193     0.00025624    -0.00035210
     6
  Step:    26            Position(A)                                  Velocity(au)
C        -0.02698577     0.00451334    -0.02154280    -0.00002622    -0.00008498    -0.00076445
N        -0.05001291    -0.02909072     1.34665993     0.00009860     0.00014705     0.00066203
H         0.90428268     0.06865959    -0.68425950    -0.00005596     0.00039057    -0.00084721
H         0.84979705    -0.24286089     1.89672294    -0.00056116    -0.00068929     0.00020529
H        -0.91044339    -0.20963120     1.81313744    -0.00098359    -0.00092571     0.00077465
H        -1.04001277     0.06450876    -0.59052281     0.00054302     0.00019356    -0.00022339
     6
  Step:    27            Position(A)                                  Velocity(au)
C        -0.02714799     0.00406377    -0.02604097    -0.00003168    -0.00007659    -0.00084570
N        -0.04940915    -0.02828130     1.35050636     0.00011624     0.00014346     0.00071569
H         0.90368341     0.07079246    -0.68846302    -0.00015665     0.00037228    -0.00066507
H         0.84618708    -0.24666021     1.89751828    -0.00072527    -0.00067272     0.00008622
H        -0.91614384    -0.21477425     1.81758725    -0.00104508    -0.00092023     0.00081209
H        -1.03656022     0.06542675    -0.59141573     0.00068914     0.00013960    -0.00010146
     6
  Step:    28            Position(A)                                  Velocity(au)
C        -0.02733876     0.00365990    -0.03096632    -0.00003631    -0.00006834    -0.00091439
N        -0.04871764    -0.02749213     1.35463484     0.00012955     0.00013931     0.00076044
H         0.90253712     0.07280788    -0.69167034    -0.00025043     0.00034836    -0.00048882
H         0.84171545    -0.25035696     1.89768373    -0.00086575    -0.00065190    -0.00001981
H        -0.92208859    -0.21988524     1.82218647    -0.00106824    -0.00090963     0.00082621
H        -1.03233373     0.06606436    -0.59165334     0.00081679     0.00009152     0.00001094
     6
  Step:    29            Position(A)                                  Velocity(au)
C        -0.02755328     0.00330092    -0.03624826    -0.00004003    -0.00006031    -0.00097020
N        -0.04796299    -0.02672622     1.35899513     0.00013838     0.00013471     0.00079606
H         0.90088782     0.07468113    -0.69391974    -0.00033484     0.00032102    -0.00032160
H         0.83652278    -0.25393727     1.89729719    -0.00097891    -0.00063014    -0.00011035
H        -0.92806855    -0.22492836     1.82681019    -0.00105543    -0.00089232     0.00081914
H        -1.02744249     0.06644836    -0.59129359     0.00092320     0.00004798     0.00011147
     6
  Step:    30            Position(A)                                  Velocity(au)
C        -0.02778635     0.00298556    -0.04181511    -0.00004280    -0.00005259    -0.00101362
N        -0.04717030    -0.02598581     1.36353633     0.00014279     0.00012987     0.00082294
H         0.89879295     0.07639757    -0.69526647    -0.00040790     0.00029192    -0.00016614
H         0.83076933    -0.25740322     1.89644980    -0.00106227    -0.00061017    -0.00018347
H        -0.93389039    -0.22986312     1.83134612    -0.00101058    -0.00086822     0.00079377
H        -1.02201053     0.06660087    -0.59040685     0.00100654     0.00000834     0.00019831
     6
  Step:    31            Position(A)                                  Velocity(au)
C        -0.02803257     0.00271207    -0.04759840    -0.00004463    -0.00004527    -0.00104582
N        -0.04636409    -0.02527202     1.36821008     0.00014303     0.00012502     0.00084200
H         0.89632030     0.07794994    -0.69578013    -0.00046822     0.00026230    -0.00002455
H         0.82462778    -0.26076978     1.89524273    -0.00111470    -0.00059429    -0.00023790
H        -0.93938466    -0.23465042     1.83569856    -0.00093871    -0.00083817     0.00075351
H        -1.01617155     0.06654177    -0.58907303     0.00106589    -0.00002777     0.00027019
     6
  Step:    32            Position(A)                                  Velocity(au)
C        -0.02828655     0.00247818    -0.05353650    -0.00004553    -0.00003842    -0.00106847
N        -0.04556729    -0.02458464     1.37297335     0.00013945     0.00012041     0.00085453
H         0.89354518     0.07933735    -0.69554158    -0.00051491     0.00023317     0.00010179
H         0.81827600    -0.26406387     1.89378341    -0.00113615    -0.00058451    -0.00027308
H        -0.94441132    -0.23925716     1.83979136    -0.00084530    -0.00080350     0.00070197
H        -1.01006421     0.06628959    -0.58737861     0.00110100    -0.00006066     0.00032641
     6
  Step:    33            Position(A)                                  Velocity(au)
C        -0.02854303     0.00228129    -0.05957712    -0.00004555    -0.00003209    -0.00108331
N        -0.04480065    -0.02392208     1.37779028     0.00013248     0.00011627     0.00086184
H         0.89054758     0.08056405    -0.69463896    -0.00054738     0.00020528     0.00021215
H         0.81189030    -0.26732274     1.89218123    -0.00112738    -0.00058246    -0.00028904
H        -0.94886142    -0.24365853     1.84356840    -0.00073556    -0.00076564     0.00064247
H        -1.00382816     0.06586168    -0.58541358     0.00111198    -0.00009062     0.00036670
     6
  Step:    34            Position(A)                                  Velocity(au)
C        -0.02879700     0.00211855    -0.06567779    -0.00004471    -0.00002627    -0.00109181
N        -0.04408245    -0.02328154     1.38263252     0.00012252     0.00011276     0.00086506
H         0.88741036     0.08163808    -0.69316385    -0.00056515     0.00017912     0.00030631
H         0.80564075    -0.27059182     1.89054399    -0.00108951    -0.00058928    -0.00028626
H        -0.95265516    -0.24783814     1.84699196    -0.00061404    -0.00072580     0.00057784
H        -0.99760159     0.06527397    -0.58326881     0.00109890    -0.00011794     0.00039100
     6
  Step:    35            Position(A)                                  Velocity(au)
C        -0.02904370     0.00198704    -0.07180424    -0.00004304    -0.00002097    -0.00109498
N        -0.04342861    -0.02265933     1.38747801     0.00010991     0.00010997     0.00086494
H         0.88421857     0.08257000    -0.69120859    -0.00056764     0.00015497     0.00038425
H         0.79968902    -0.27392201     1.88897539    -0.00102381    -0.00060558    -0.00026558
H        -0.95573795    -0.25178670     1.85003962    -0.00048456    -0.00068486     0.00051030
H        -0.99152164     0.06454084    -0.58103486     0.00106156    -0.00014290     0.00039932
     6
  Step:    36            Position(A)                                  Velocity(au)
C        -0.02927855     0.00188396    -0.07792778    -0.00004058    -0.00001614    -0.00109326
N        -0.04285283    -0.02205128     1.39230895     0.00009502     0.00010793     0.00086183
H         0.88105994     0.08337178    -0.68886513    -0.00055413     0.00013297     0.00044591
H         0.79418691    -0.27736667     1.88757286    -0.00093190    -0.00063139    -0.00022817
H        -0.95807615    -0.25549996     1.85270096    -0.00035040    -0.00064338     0.00044160
H        -0.98572540     0.06367524    -0.57880141     0.00099962    -0.00016571     0.00039176
     6
  Step:    37            Position(A)                                  Velocity(au)
C        -0.02949727     0.00180664    -0.08402237    -0.00003738    -0.00001177    -0.00108678
N        -0.04236669    -0.02145316     1.39710964     0.00007821     0.00010660     0.00085583
H         0.87802568     0.08405607    -0.68622513    -0.00052390     0.00011320     0.00049125
H         0.78927430    -0.28097827     1.88642537    -0.00081598    -0.00066620    -0.00017571
H        -0.95965394    -0.25897701     1.85497491    -0.00021453    -0.00060177     0.00037320
H        -0.98035008     0.06268890    -0.57665665     0.00091289    -0.00018651     0.00036852
     6
  Step:    38            Position(A)                                  Velocity(au)
C        -0.02969589     0.00175259    -0.09006273    -0.00003349    -0.00000781    -0.00107549
N        -0.04197950    -0.02086094     1.40186505     0.00005993     0.00010594     0.00084692
H         0.87521014     0.08463578    -0.68337982    -0.00047644     0.00009569     0.00052028
H         0.78507571    -0.28480541     1.88561094    -0.00067919    -0.00070902    -0.00011038
H        -0.96047157    -0.26221926     1.85686809    -0.00007985    -0.00056039     0.00030641
H        -0.97553210     0.06159263    -0.57468650     0.00080178    -0.00020545     0.00033014
     6
  Step:    39            Position(A)                                  Velocity(au)
C        -0.02987099     0.00171951    -0.09602343    -0.00002905    -0.00000424    -0.00105935
N        -0.04169797    -0.02027103     1.40656018     0.00004067     0.00010583     0.00083511
H         0.87270927     0.08512387    -0.68041951    -0.00041167     0.00008045     0.00053320
H         0.78169536    -0.28889004     1.88519365    -0.00052573    -0.00075841    -0.00003499
H        -0.96054493    -0.26523026     1.85839401     0.00005074    -0.00051968     0.00024248
H        -0.97140325     0.06039637    -0.57297269     0.00066763    -0.00022263     0.00027760
     6
  Step:    40            Position(A)                                  Velocity(au)
C        -0.03001992     0.00170530    -0.10187908    -0.00002421    -0.00000103    -0.00103848
N        -0.04152584    -0.01968042     1.41118013     0.00002102     0.00010619     0.00082049
H         0.87061822     0.08553318    -0.67743237    -0.00033007     0.00006747     0.00053054
H         0.77921149    -0.29326493     1.88522067    -0.00036085    -0.00081254     0.00004717
H        -0.95990555    -0.26801597     1.85957284     0.00017436    -0.00048017     0.00018267
H        -0.96808509     0.05910932    -0.57159010     0.00051292    -0.00023824     0.00021240
     6
  Step:    41            Position(A)                                  Velocity(au)
C        -0.03014104     0.00170801    -0.10760508    -0.00001919     0.00000185    -0.00101317
N        -0.04146349    -0.01908671     1.41571067     0.00000162     0.00010690     0.00080327
H         0.86902822     0.08587633    -0.67450270    -0.00023273     0.00005669     0.00051323
H         0.77767102    -0.29795186     1.88571971    -0.00019056    -0.00086934     0.00013244
H        -0.95860036    -0.27058538     1.86043118     0.00028822    -0.00044250     0.00012812
H        -0.96568291     0.05773942    -0.57060387     0.00034122    -0.00025250     0.00013660
     6
  Step:    42            Position(A)                                  Velocity(au)
C        -0.03023397     0.00172593    -0.11317848    -0.00001422     0.00000444    -0.00098385
N        -0.04150773    -0.01848821     1.42013865    -0.00001688     0.00010784     0.00078375
H         0.86802266     0.08616543    -0.67170855    -0.00012148     0.00004800     0.00048265
H         0.77708630    -0.30296021     1.88669771    -0.00002126    -0.00092653     0.00021706
H        -0.95669119    -0.27295090     1.86100173     0.00038969    -0.00040732     0.00007994
H        -0.96427961     0.05629330    -0.57006669     0.00015713    -0.00026568     0.00005266
     6
  Step:    43            Position(A)                                  Velocity(au)
C        -0.03029965     0.00175757    -0.11857891    -0.00000954     0.00000679    -0.00095112
N        -0.04165182    -0.01788392     1.42445259    -0.00003387     0.00010888     0.00076229
H         0.86767320     0.08641175    -0.66911930     0.00000122     0.00004123     0.00044057
H         0.77743387    -0.30828632     1.88814075     0.00014068    -0.00098183     0.00029738
H        -0.95425374    -0.27512861     1.86132281     0.00047645    -0.00037535     0.00003907
H        -0.96393032     0.05477602    -0.57001649    -0.00003398    -0.00027809    -0.00003660
     6
  Step:    44            Position(A)                                  Velocity(au)
C        -0.03034038     0.00180170    -0.12378931    -0.00000539     0.00000894    -0.00091562
N        -0.04188563    -0.01727352     1.42864295    -0.00004877     0.00010992     0.00073928
H         0.86803626     0.08662539    -0.66679351     0.00013237     0.00003612     0.00038910
H         0.77865579    -0.31391364     1.89001529     0.00028938    -0.00103299     0.00037011
H        -0.95137588    -0.27713832     1.86143760     0.00054649    -0.00034724     0.00000630
H        -0.96465873     0.05319091    -0.57047496    -0.00022626    -0.00029002    -0.00012818
     6