|===============================================================================
|
|  DFTB+ release 20.1
|
|  Copyright (C) 2006 - 2020  DFTB+ developers group
|
|===============================================================================
|
|  When publishing results obtained with DFTB+, please cite the following
|  reference:
|
|  * DFTB+, a software package for efficient approximate density functional
|    theory based atomistic simulations, J. Chem. Phys. 152, 124101 (2020).
|    [doi: 10.1063/1.5143190]
|
|  You should also cite additional publications crediting the parametrization
|  data you use. Please consult the documentation of the SK-files for the
|  references.
|
|===============================================================================

Reading input file 'dftb_in.hsd'
Parser version: 8

--------------------------------------------------------------------------------
Reading SK-files:
Done.


Processed input in HSD format written to 'dftb_pin.hsd'

Starting initialization...
--------------------------------------------------------------------------------
OpenMP threads:              1
Chosen random seed:          451503399
Mode:                        Static calculation
Self consistent charges:     Yes
SCC-tolerance:                 0.100000E-05
Max. scc iterations:                   1000
Shell resolved Hubbard:      No
Spin polarisation:           No
Nr. of up electrons:             6.000000
Nr. of down electrons:           6.000000
Periodic boundaries:         No
Electronic solver:           Relatively robust
Maximal SCC-cycles:                    1000
Initial charges:             Set automatically (system chrg:   0.100E+01)
Included shells:             C:  s, p
                             N:  s, p
                             H:  s
Spin coupling constants:     C   1(s)-1(s):  -0.455900E-01
                             C   1(s)-2(p):  -0.293000E-01
                             C   2(p)-1(s):  -0.293000E-01
                             C   2(p)-2(p):  -0.275500E-01
                             N   1(s)-1(s):  -0.468700E-01
                             N   1(s)-2(p):  -0.317000E-01
                             N   2(p)-1(s):  -0.317000E-01
                             N   2(p)-2(p):  -0.307200E-01
                             H   1(s)-1(s):  -0.792500E-01
Range separated hybrid:      Yes
  Screening parameter omega:   0.300000E+00
  Range separated algorithm:   MatrixBased
Extra options:
                             Mulliken analysis
                             Force calculation
Force type                   original
                             Eigenvector printing


REKS Calcuation:             Yes
SSR(2,2) Calcuation:         Yes
Energy Functional:           (PPS+OSS)/2
Number of Core Orbitals:                  5
Number of Active Orbitals:                2
Number of Basis:                         12
Number of States:                         2
State-Averaging Weight:          0.500000
                                 0.500000
State of Interest:                        1
Initial Guess:               Diagonalize H0 matrix
Newton-Raphson for FON opt:  Yes
NR max. Iterations:                      50
Level Shifting:              Yes
Shift Value:                     0.300000
W Scale Factor:              C  =    3.200000
                             N  =    3.200000
                             H  =    3.200000
Transition Dipole:           No
Gradient of Microstate:      No
CP-REKS Solver:              Preconditioned Conjugate-Gradient
CG max. Iterations:                     100
CG Tolerance:                  0.100000E-07
Memory for A and Hxc:        Direct Updating Without Saving
Non-Adiabatic Coupling:      Yes

--------------------------------------------------------------------------------

***  Geometry step: 0

  iSCC       reks energy        Diff energy         x_a       SCC error   
    1       -6.1013415898       0.0000000000     0.999438    0.79089417
    2       -6.1157900832      -0.0144484933     1.000000    0.10779559
    3       -6.1202430187      -0.0044529356     1.000000    0.04777250
    4       -6.1218148566      -0.0015718378     1.000000    0.02425147
    5       -6.1224576725      -0.0006428159     1.000000    0.01575454
    6       -6.1227283016      -0.0002706291     1.000000    0.01006157
    7       -6.1228458196      -0.0001175179     1.000000    0.00638913
    8       -6.1228987907      -0.0000529711     1.000000    0.00404495
    9       -6.1229237654      -0.0000249748     1.000000    0.00255545
   10       -6.1229361806      -0.0000124152     1.000000    0.00167691
   11       -6.1229427296      -0.0000065490     1.000000    0.00113145
   12       -6.1229464046      -0.0000036750     1.000000    0.00092822
   13       -6.1229485925      -0.0000021879     1.000000    0.00076484
   14       -6.1229499642      -0.0000013717     1.000000    0.00063248
   15       -6.1229508610      -0.0000008968     1.000000    0.00052458
   16       -6.1229514661      -0.0000006052     1.000000    0.00043619
   17       -6.1229518840      -0.0000004179     1.000000    0.00036348
   18       -6.1229521773      -0.0000002933     1.000000    0.00030347
   19       -6.1229523855      -0.0000002082     1.000000    0.00025380
   20       -6.1229525344      -0.0000001489     1.000000    0.00021258
   21       -6.1229526415      -0.0000001071     1.000000    0.00017830
   22       -6.1229527187      -0.0000000773     1.000000    0.00014973
   23       -6.1229527747      -0.0000000559     1.000000    0.00012588
   24       -6.1229528152      -0.0000000405     1.000000    0.00010595
   25       -6.1229528446      -0.0000000294     1.000000    0.00008925
   26       -6.1229528660      -0.0000000214     1.000000    0.00007677
   27       -6.1229528815      -0.0000000155     1.000000    0.00006604
   28       -6.1229528929      -0.0000000113     1.000000    0.00005677
   29       -6.1229529011      -0.0000000082     1.000000    0.00004877
   30       -6.1229529071      -0.0000000060     1.000000    0.00004188
   31       -6.1229529115      -0.0000000044     1.000000    0.00003594
   32       -6.1229529146      -0.0000000032     1.000000    0.00003084
   33       -6.1229529170      -0.0000000023     1.000000    0.00002645
   34       -6.1229529187      -0.0000000017     1.000000    0.00002267
   35       -6.1229529199      -0.0000000012     1.000000    0.00001943
   36       -6.1229529208      -0.0000000009     1.000000    0.00001665
   37       -6.1229529214      -0.0000000007     1.000000    0.00001427
   38       -6.1229529219      -0.0000000005     1.000000    0.00001222
   39       -6.1229529223      -0.0000000003     1.000000    0.00001046
   40       -6.1229529225      -0.0000000003     1.000000    0.00000896
   41       -6.1229529227      -0.0000000002     1.000000    0.00000767
   42       -6.1229529228      -0.0000000001     1.000000    0.00000656
   43       -6.1229529229      -0.0000000001     1.000000    0.00000561
   44       -6.1229529230      -0.0000000001     1.000000    0.00000480
   45       -6.1229529231      -0.0000000001     1.000000    0.00000411
   46       -6.1229529231      -0.0000000000     1.000000    0.00000352
   47       -6.1229529231      -0.0000000000     1.000000    0.00000301
   48       -6.1229529231      -0.0000000000     1.000000    0.00000257
   49       -6.1229529232      -0.0000000000     1.000000    0.00000220
   50       -6.1229529232      -0.0000000000     1.000000    0.00000188
   51       -6.1229529232      -0.0000000000     1.000000    0.00000161
   52       -6.1229529232      -0.0000000000     1.000000    0.00000137
   53       -6.1229529232      -0.0000000000     1.000000    0.00000117
   54       -6.1229529232      -0.0000000000     1.000000    0.00000100
   55       -6.1229529232      -0.0000000000     1.000000    0.00000086
  
--------------------------------------------------
 Final SA-REKS(2,2) energy:      -6.12295292
  
 State     Energy      FON(1)    FON(2)   Spin
  PPS   -6.10056732   2.000000  0.000000  0.00
  OSS   -6.14533853   1.000000  1.000000  0.00
 Trip   -6.15082198   1.000000  1.000000  1.00
--------------------------------------------------

 Lagrangian Wab:  -0.02035522 -0.02035520

--------------------------------------------------
 SSR: 2SI-2SA-REKS(2,2) Hamiltonian matrix
               PPS           OSS
   PPS    -6.10056732   -0.02878660
   OSS    -0.02878660   -6.14533853
--------------------------------------------------

----------------------------------------------------------------
 SSR: 2SI-2SA-REKS(2,2) states
                    E_n       C_{PPS}    C_{OSS}
 SSR state  1   -6.15941912   0.439390   0.898296
 SSR state  2   -6.08648673  -0.898296   0.439390
----------------------------------------------------------------

 unrelaxed SSR FONs for S0:  1.193064  0.806936

Total Energy:                       -6.1594191193 H         -167.6063 eV
Extrapolated to 0:                  -6.1594191193 H         -167.6063 eV

----------------------------------------------------------------------------------
 Solving CP-REKS equation for  1 state vector...
----------------------------------------------------------------------------------
  CG solver: Constructing Y initial guess
  CG solver: Iteration    1    eps =    0.000499082570
  CG solver: Iteration    2    eps =    0.000013822154
  CG solver: Iteration    3    eps =    0.000004707844
  CG solver: Iteration    4    eps =    0.000000342845
  CG solver: Iteration    5    eps =    0.000000038215
  CG solver: Iteration    6    eps =    0.000000001933
  Convergence reached in CG solver after    6 iterations
  CG solver: Calculating converged R, Z, Q2 matrix
----------------------------------------------------------------------------------

----------------------------------------------------------------------------------
 Solving CP-REKS equation for SI between  1 and  2 state vectors...
----------------------------------------------------------------------------------
  CG solver: Constructing Y initial guess
  CG solver: Iteration    1    eps =    0.001609852768
  CG solver: Iteration    2    eps =    0.000046307169
  CG solver: Iteration    3    eps =    0.000002884370
  CG solver: Iteration    4    eps =    0.000000586758
  CG solver: Iteration    5    eps =    0.000000062954
  CG solver: Iteration    6    eps =    0.000000006127
  Convergence reached in CG solver after    6 iterations
  CG solver: Calculating converged R, Z, Q2 matrix
----------------------------------------------------------------------------------

--------------------------------------------------
 Gradient Information
--------------------------------------------------
           1 st state (SSR)
     0.07447875     0.02587533    -0.06429216
     0.06045396     0.01982444     0.14263135
    -0.06149025    -0.03164524    -0.05561193
    -0.04230747    -0.01041949    -0.02246320
     0.00504261     0.00097248    -0.00085978
    -0.03617760    -0.00460753     0.00059572

           2 st state (SSR)
     0.07036951     0.03199956    -0.05259416
     0.06727613     0.01779925     0.09472790
    -0.06194250    -0.03506932    -0.04581623
    -0.04854213    -0.00907372    -0.01843686
     0.00511688    -0.00265588     0.01044274
    -0.03227790    -0.00299988     0.01167661
--------------------------------------------------
 Coupling Information
--------------------------------------------------
 between  1 and  2 states
--------------------------------------------------
 g vector - difference gradient
    -0.00527374     0.00292721    -0.03135029
     0.00618320     0.00596339     0.00705079
    -0.00035457    -0.00147219     0.00644691
    -0.00348027    -0.00272784     0.00252744
     0.00044464    -0.00335626     0.00730108
     0.00248075    -0.00133431     0.00802407

 h vector - derivative coupling
    -0.00149833    -0.00160270    -0.03178861
     0.00048722     0.00592010     0.03582447
     0.00001072     0.00102394    -0.00119111
     0.00124256    -0.00297367    -0.00058480
     0.00029873    -0.00031180    -0.00148128
    -0.00054090    -0.00205588    -0.00077867

 G vector - GDV
     0.00205462    -0.00306211    -0.00584900
    -0.00341108     0.00101260     0.02395172
     0.00022612     0.00171204    -0.00489785
     0.00311733    -0.00067288    -0.00201317
    -0.00003714     0.00181418    -0.00565126
    -0.00194985    -0.00080383    -0.00554044

 H vector - DCV - non-adiabatic coupling
     0.06969330    -0.01819357     0.60689408
    -0.07102656    -0.11437605    -0.37785125
     0.00374762     0.00731609    -0.05975440
     0.02721111     0.05455504    -0.02243423
    -0.00732715     0.03895188    -0.06655736
    -0.02229832     0.03174661    -0.08029684
--------------------------------------------------


--------------------------------------------------------------------------------
DFTB+ running times                          cpu [s]             wall clock [s]
--------------------------------------------------------------------------------
SCC                                    +     0.02  ( 66.9%)      0.02  ( 59.0%)
Post-SCC processing                    +     0.01  ( 30.1%)      0.01  ( 28.2%)
  Force calculation                          0.01  ( 29.6%)      0.01  ( 25.6%)
--------------------------------------------------------------------------------
Missing                                +     0.00  (  3.0%)      0.01  ( 12.8%)
Total                                  =     0.03  (100.0%)      0.04  (100.0%)
--------------------------------------------------------------------------------
