 Fermi distribution function

Calculation with static geometry


********************************************************************************
 iSCC Total electronic   Diff electronic      SCC error    
   10   -0.53999022E+01   -0.19628743E-12    0.30680372E-06
********************************************************************************

 Total charge:     1.00000000

 Atomic gross charges (e)
 Atom           Charge
    1       0.21983094
    2      -0.11334506
    3       0.14356371
    4       0.27379384
    5       0.29164929
    6       0.18450727

Nr. of electrons (up):     12.00000000
Atom populations (up)
 Atom       Population
    1       3.78016906
    2       5.11334506
    3       0.85643629
    4       0.72620616
    5       0.70835071
    6       0.81549273

l-shell populations (up)
 Atom Sh.   l       Population
    1   1   0       1.31712804
    1   2   1       2.46304102
    2   1   0       1.42703781
    2   2   1       3.68630725
    3   1   0       0.85643629
    4   1   0       0.72620616
    5   1   0       0.70835071
    6   1   0       0.81549273

Orbital populations (up)
 Atom Sh.   l   m       Population  Label
    1   1   0   0       1.31712804  s
    1   2   1  -1       0.56667141  p_y
    1   2   1   0       0.88747896  p_z
    1   2   1   1       1.00889065  p_x
    2   1   0   0       1.42703781  s
    2   2   1  -1       1.33567457  p_y
    2   2   1   0       1.09129542  p_z
    2   2   1   1       1.25933725  p_x
    3   1   0   0       0.85643629  s
    4   1   0   0       0.72620616  s
    5   1   0   0       0.70835071  s
    6   1   0   0       0.81549273  s

Fermi level:                        -0.4901966692 H          -13.3389 eV
Band energy:                        -8.8893166387 H         -241.8906 eV
TS:                                  0.0000000000 H            0.0000 eV
Band free energy (E-TS):            -8.8893166387 H         -241.8906 eV
Extrapolated E(0K):                 -8.8893166387 H         -241.8906 eV
Input / Output electrons (q):     12.0000000000     12.0000000000

Energy H0:                          -5.5323907180 H         -150.5440 eV
Energy SCC:                          0.1324885602 H            3.6052 eV
Total Electronic energy:            -5.3999021578 H         -146.9388 eV
Repulsive energy:                    0.1873019876 H            5.0967 eV
Total energy:                       -5.2126001702 H         -141.8421 eV
Extrapolated to 0:                  -5.2126001702 H         -141.8421 eV
Total Mermin free energy:           -5.2126001702 H         -141.8421 eV
Force related energy:               -5.2126001702 H         -141.8421 eV

SCC converged

Excitation Energy:                   0.1204171425 H            3.2767 eV

Total Forces
    1     -0.006643419348     -0.013738358895      0.028319859235
    2     -0.000184520242      0.014428911888     -0.042069459071
    3     -0.005679280939      0.008333504336      0.004260650570
    4     -0.009052246643     -0.008943186034      0.001674371192
    5      0.010614950075      0.004282631253      0.006067640765
    6      0.010944517097     -0.004363502547      0.001746937311

Maximal derivative component:        0.420695E-01 au


