 Fermi distribution function

Calculation with static geometry


********************************************************************************
 iSCC Total electronic   Diff electronic      SCC error    
   12   -0.53190048E+01   -0.13402612E-11    0.17175559E-08
********************************************************************************

 Total charge:     1.00000000

 Atomic gross charges (e)
 Atom           Charge
    1       0.29668609
    2      -0.18123776
    3       0.16295343
    4       0.26320133
    5       0.27925077
    6       0.17914614

Nr. of electrons (up):     12.00000000
Atom populations (up)
 Atom       Population
    1       3.70331391
    2       5.18123776
    3       0.83704657
    4       0.73679867
    5       0.72074923
    6       0.82085386

l-shell populations (up)
 Atom Sh.   l       Population
    1   1   0       1.36315824
    1   2   1       2.34015567
    2   1   0       1.48330364
    2   2   1       3.69793412
    3   1   0       0.83704657
    4   1   0       0.73679867
    5   1   0       0.72074923
    6   1   0       0.82085386

Orbital populations (up)
 Atom Sh.   l   m       Population  Label
    1   1   0   0       1.36315824  s
    1   2   1  -1       0.47130163  p_y
    1   2   1   0       0.87294198  p_z
    1   2   1   1       0.99591206  p_x
    2   1   0   0       1.48330364  s
    2   2   1  -1       1.34062500  p_y
    2   2   1   0       1.09584103  p_z
    2   2   1   1       1.26146808  p_x
    3   1   0   0       0.83704657  s
    4   1   0   0       0.73679867  s
    5   1   0   0       0.72074923  s
    6   1   0   0       0.82085386  s

Fermi level:                        -0.5084106165 H          -13.8346 eV
Band energy:                        -8.7652814316 H         -238.5154 eV
TS:                                  0.0000000000 H            0.0000 eV
Band free energy (E-TS):            -8.7652814316 H         -238.5154 eV
Extrapolated E(0K):                 -8.7652814316 H         -238.5154 eV
Input / Output electrons (q):     12.0000000000     12.0000000000

Energy H0:                          -5.4548801809 H         -148.4348 eV
Energy SCC:                          0.1358753645 H            3.6974 eV
Total Electronic energy:            -5.3190048165 H         -144.7375 eV
Repulsive energy:                    0.1517858193 H            4.1303 eV
Total energy:                       -5.1672189971 H         -140.6072 eV
Extrapolated to 0:                  -5.1672189971 H         -140.6072 eV
Total Mermin free energy:           -5.1672189971 H         -140.6072 eV
Force related energy:               -5.1672189971 H         -140.6072 eV

SCC converged

Excitation Energy:                   0.1082259729 H            2.9450 eV

Total Forces
    1      0.007231390432     -0.003021799624      0.069407998360
    2     -0.001384156538      0.013232794942     -0.076908517723
    3     -0.006287206053      0.008310189258      0.001463124783
    4     -0.006371551967     -0.015670034555     -0.003659984887
    5      0.003397959006      0.010533209490      0.006061590515
    6      0.003413565121     -0.013384359510      0.003635788953

Maximal derivative component:        0.769085E-01 au


