     6
  Step:     0            Position(A)                                  Velocity(au)
C        -0.02929949     0.01236559     0.04636062     0.00000100     0.00011838    -0.00018750
N        -0.04810408    -0.06967748     1.27654597    -0.00013477    -0.00001661     0.00022043
H         0.91704870     0.00890621    -0.51782337    -0.00020713    -0.00052857    -0.00011883
H         0.81953581    -0.00192101     1.75808475     0.00081723     0.00003183     0.00037619
H        -0.92863697     0.02483132     1.89887435     0.00107579    -0.00029050    -0.00140805
H        -1.00327970     0.11932005    -0.53886196     0.00017511    -0.00039256     0.00032175
     6
  Step:     1            Position(A)                                  Velocity(au)
C        -0.02931761     0.01303855     0.04503187    -0.00000733     0.00012756    -0.00029619
N        -0.04890309    -0.06979501     1.27802114    -0.00015542    -0.00002630     0.00031699
H         0.91599620     0.00600357    -0.51868100    -0.00017635    -0.00053306    -0.00019556
H         0.82446457    -0.00165504     1.76057296     0.00097168     0.00006436     0.00052561
H        -0.92230467     0.02322664     1.89088091     0.00122432    -0.00029468    -0.00150198
H        -1.00216849     0.11717565    -0.53716520     0.00022762    -0.00039117     0.00029629
     6
  Step:     2            Position(A)                                  Velocity(au)
C        -0.02937971     0.01376117     0.04312022    -0.00001500     0.00013634    -0.00039947
N        -0.04980445    -0.06996523     1.28001394    -0.00017165    -0.00003580     0.00040855
H         0.91511939     0.00307432    -0.51996282    -0.00014292    -0.00053772    -0.00027343
H         0.83016638    -0.00121690     1.76383511     0.00109694     0.00009454     0.00065740
H        -0.91524250     0.02160743     1.88244214     0.00133797    -0.00029519    -0.00156687
H        -1.00078942     0.11504054    -0.53562042     0.00027215    -0.00038871     0.00026558
     6
  Step:     3            Position(A)                                  Velocity(au)
C        -0.02948180     0.01453096     0.04065913    -0.00002184     0.00014447    -0.00049540
N        -0.05078203    -0.07018693     1.28249330    -0.00018261    -0.00004501     0.00049320
H         0.91443174     0.00011748    -0.52167406    -0.00010725    -0.00054211    -0.00035158
H         0.83647211    -0.00062019     1.76776913     0.00118901     0.00012199     0.00076905
H        -0.90765873     0.01999537     1.87372934     0.00140898    -0.00029120    -0.00159685
H        -0.99918946     0.11292074    -0.53425803     0.00030721    -0.00038480     0.00022893
     6
  Step:     4            Position(A)                                  Velocity(au)
C        -0.02961898     0.01534413     0.03769216    -0.00002768     0.00015173    -0.00058207
N        -0.05180530    -0.07045834     1.28541786    -0.00018757    -0.00005379     0.00056898
H         0.91394429    -0.00286546    -0.52381507    -0.00006991    -0.00054576    -0.00042892
H         0.84319416     0.00011968     1.77226143     0.00124511     0.00014637     0.00085869
H        -0.89980447     0.01841682     1.86494564     0.00142982    -0.00028189    -0.00158651
H        -0.99742336     0.11082430    -0.53311202     0.00033145    -0.00037913     0.00018589
     6
  Step:     5            Position(A)                                  Velocity(au)
C        -0.02978554     0.01619566     0.03427280    -0.00003240     0.00015788    -0.00065771
N        -0.05283995    -0.07077715     1.28873605    -0.00018595    -0.00006206     0.00063409
H         0.91366469    -0.00587051    -0.52638006    -0.00003167    -0.00054826    -0.00050417
H         0.85013317     0.00098570     1.77719051     0.00126396     0.00016742     0.00092532
H        -0.89197105     0.01690251     1.85632257     0.00139413    -0.00026660    -0.00153160
H        -0.99555288     0.10876100    -0.53221854     0.00034375    -0.00037144     0.00013628
     6
  Step:     6            Position(A)                                  Velocity(au)
C        -0.02997504     0.01707934     0.03046343    -0.00003586     0.00016276    -0.00072091
N        -0.05384902    -0.07114043     1.29238691    -0.00017748    -0.00006971     0.00068702
H         0.91359624    -0.00889123    -0.52935620     0.00000658    -0.00054924    -0.00057598
H         0.85708596     0.00195973     1.78243130     0.00124588     0.00018499     0.00096880
H        -0.88448200     0.01548665     1.84811234     0.00129781    -0.00024491    -0.00142987
H        -0.99364527     0.10674196    -0.53161424     0.00034342    -0.00036158     0.00008030
     6
  Step:     7            Position(A)                                  Velocity(au)
C        -0.03018046     0.01798806     0.02633352    -0.00003800     0.00016623    -0.00077071
N        -0.05479447    -0.07154481     1.29630213    -0.00016220    -0.00007665     0.00072682
H         0.91373710    -0.01191923    -0.53272322     0.00004382    -0.00054847    -0.00064305
H         0.86385392     0.00302301     1.78785981     0.00119279     0.00019907     0.00098997
H        -0.87767849     0.01420535     1.84057558     0.00114002    -0.00021674    -0.00128175
H        -0.99177087     0.10477897    -0.53133423     0.00033026    -0.00034956     0.00001850
     6
  Step:     8            Position(A)                                  Velocity(au)
C        -0.03039445     0.01891409     0.02195695    -0.00003880     0.00016827    -0.00080675
N        -0.05563924    -0.07198642     1.30040895    -0.00014056    -0.00008283     0.00075314
H         0.91407988    -0.01494478    -0.53645368     0.00007904    -0.00054585    -0.00070425
H         0.87025106     0.00415685     1.79335776     0.00110804     0.00020976     0.00099050
H        -0.87189938     0.01309445     1.83396545     0.00092398    -0.00018245    -0.00109071
H        -0.99000018     0.10288379    -0.53141006     0.00030467    -0.00033552    -0.00004824
     6
  Step:     9            Position(A)                                  Velocity(au)
C        -0.03060969     0.01984950     0.01740894    -0.00003830     0.00016889    -0.00082927
N        -0.05634942    -0.07246109     1.30463370    -0.00011340    -0.00008821     0.00076636
H         0.91461152    -0.01795768    -0.54051392     0.00011129    -0.00054147    -0.00075872
H         0.87611152     0.00534342     1.79881711     0.00099616     0.00021733     0.00097286
H        -0.86745704     0.01218699     1.82850975     0.00065722    -0.00014286    -0.00086334
H        -0.98840048     0.10106732    -0.53186789     0.00026766    -0.00031973    -0.00011879
     6
  Step:    10            Position(A)                                  Velocity(au)
C        -0.03081913     0.02078662     0.01276277    -0.00003661     0.00016822    -0.00083910
N        -0.05689649    -0.07296443     1.30890562    -0.00008188    -0.00009279     0.00076750
H         0.91531378    -0.02094806    -0.54486563     0.00013974    -0.00053553    -0.00080595
H         0.88129554     0.00656646     1.80414387     0.00086244     0.00022220     0.00094004
H        -0.86461272     0.01151057     1.82439356     0.00035124    -0.00009918    -0.00060888
H        -0.98703263     0.09933895    -0.53272713     0.00022074    -0.00030256    -0.00019188
     6
  Step:    11            Position(A)                                  Velocity(au)
C        -0.03101637     0.02171839     0.00808667    -0.00003386     0.00016642    -0.00083756
N        -0.05725910    -0.07349196     1.31316045    -0.00004743    -0.00009658     0.00075814
H         0.91616396    -0.02390731    -0.54946779     0.00016374    -0.00052839    -0.00084579
H         0.88569299     0.00781200     1.80926077     0.00071246     0.00022485     0.00089537
H        -0.86355489     0.01108509     1.82174518     0.00002057    -0.00005297    -0.00033841
H        -0.98594814     0.09770596    -0.53399964     0.00016583    -0.00028445    -0.00026618
     6
  Step:    12            Position(A)                                  Velocity(au)
C        -0.03119593     0.02263873     0.00344136    -0.00003024     0.00016370    -0.00082626
N        -0.05742432    -0.07403926     1.31734316    -0.00001156    -0.00009961     0.00074020
H         0.91713607    -0.02682870    -0.55427871     0.00018287    -0.00052048    -0.00087848
H         0.88922467     0.00906890     1.81410870     0.00055169     0.00022587     0.00084222
H        -0.86438380     0.01092109     1.82062730    -0.00031856    -0.00000593    -0.00006372
H        -0.98518702     0.09617319    -0.53568953     0.00010514    -0.00026587    -0.00034042
     6
  Step:    13            Position(A)                                  Velocity(au)
C        -0.03135340     0.02354272    -0.00112162    -0.00002597     0.00016029    -0.00080700
N        -0.05738798    -0.07460206     1.32140969     0.00002420    -0.00010194     0.00071576
H         0.91820192    -0.02970789    -0.55925803     0.00019688    -0.00051227    -0.00090448
H         0.89184140     0.01032920     1.81864693     0.00038519     0.00022585     0.00078382
H        -0.86710512     0.01101905     1.82103503    -0.00064987     0.00004022     0.00020379
H        -0.98477637     0.09474298    -0.53779352     0.00004096    -0.00024724    -0.00041348
     6
  Step:    14            Position(A)                                  Velocity(au)
C        -0.03148557     0.02442674    -0.00556068    -0.00002124     0.00015642    -0.00078154
N        -0.05715434    -0.07517637     1.32532752     0.00005851    -0.00010362     0.00068683
H         0.91933231    -0.03254310    -0.56436817     0.00020573    -0.00050421    -0.00092446
H         0.89352147     0.01158827     1.82285227     0.00021733     0.00022540     0.00072313
H        -0.87163314     0.01136973     1.82290058    -0.00095849     0.00008389     0.00045412
H        -0.98473014     0.09341526    -0.54030186    -0.00002449    -0.00022894    -0.00048438
     6
  Step:    15            Position(A)                                  Velocity(au)
C        -0.03159044     0.02528837    -0.00984391    -0.00001627     0.00015228    -0.00075152
N        -0.05673498    -0.07575854     1.32907499     0.00009023    -0.00010474     0.00065519
H         0.92049795    -0.03533508    -0.56957536     0.00020947    -0.00049671    -0.00093916
H         0.89426686     0.01284479     1.82671732     0.00005176     0.00022510     0.00066268
H        -0.87780223     0.01195528     1.82610315    -0.00123205     0.00012376     0.00067929
H        -0.98504963     0.09218793    -0.54319933    -0.00008910    -0.00021127    -0.00055234
     6
  Step:    16            Position(A)                                  Velocity(au)
C        -0.03166714     0.02612634    -0.01394826    -0.00001124     0.00014806    -0.00071832
N        -0.05614732    -0.07634534     1.33263990     0.00011849    -0.00010535     0.00062227
H         0.92167014    -0.03808682    -0.57484995     0.00020823    -0.00049010    -0.00094927
H         0.89409914     0.01410058     1.83024835    -0.00010856     0.00022547     0.00060461
H        -0.88538380     0.01275102     1.83048196    -0.00146130     0.00015884     0.00087363
H        -0.98572454     0.09105728    -0.54646640    -0.00015101    -0.00019445    -0.00061673
     6
  Step:    17            Position(A)                                  Velocity(au)
C        -0.03171584     0.02694026    -0.01785815    -0.00000632     0.00014387    -0.00068303
N        -0.05541296    -0.07693397     1.33601759     0.00014271    -0.00010554     0.00058914
H         0.92282120    -0.04080310    -0.58016628     0.00020220    -0.00048460    -0.00095536
H         0.89305569     0.01536032     1.83346299    -0.00026122     0.00022697     0.00055066
H        -0.89410589     0.01372745     1.83585026    -0.00164026     0.00018846     0.00103377
H        -0.98673441     0.09001850    -0.55008012    -0.00020858    -0.00017857    -0.00067700
     6
  Step:    18            Position(A)                                  Velocity(au)
C        -0.03173757     0.02773043    -0.02156389     0.00000012     0.00013963    -0.00065736
N        -0.05455610    -0.07752205     1.33920871     0.00016221    -0.00010799     0.00056124
H         0.92392462    -0.04349000    -0.58550205     0.00016781    -0.00058431    -0.00094318
H         0.89118658     0.01663127     1.83638810    -0.00040463     0.00036158     0.00050671
H        -0.90367247     0.01485229     1.84200835    -0.00177719     0.00010619     0.00117787
H        -0.98805015     0.08906622    -0.55401480    -0.00024160    -0.00004673    -0.00070756
     6
  Step:    19            Position(A)                                  Velocity(au)
C        -0.03171447     0.02849589    -0.02518156     0.00000579     0.00013730    -0.00067822
N        -0.05360578    -0.07813701     1.34227022     0.00017794    -0.00011304     0.00057112
H         0.92469075    -0.04731274    -0.59067395     0.00010089    -0.00071611    -0.00089037
H         0.88854787     0.01938854     1.83910814    -0.00056236     0.00054238     0.00045696
H        -0.91390500     0.01491048     1.84897258    -0.00184774    -0.00002195     0.00127151
H        -0.98942598     0.08949794    -0.55796286    -0.00023253     0.00013045    -0.00069287
     6
  Step:    20            Position(A)                                  Velocity(au)
C        -0.03167309     0.02925880    -0.02911381     0.00000879     0.00013693    -0.00073457
N        -0.05257524    -0.07878037     1.34556637     0.00019007    -0.00011789     0.00061402
H         0.92504767    -0.05146171    -0.59541354     0.00002720    -0.00076812    -0.00081213
H         0.88492644     0.02266903     1.84147493    -0.00073161     0.00062878     0.00039682
H        -0.92424136     0.01460799     1.85616274    -0.00184045    -0.00008260     0.00129482
H        -0.99063862     0.09051838    -0.56172779    -0.00020116     0.00022853    -0.00065893
     6
  Step:    21            Position(A)                                  Velocity(au)
C        -0.03161665     0.03001929    -0.03335415     0.00001128     0.00013642    -0.00078808
N        -0.05149111    -0.07944859     1.34910155     0.00019736    -0.00012205     0.00065612
H         0.92499341    -0.05585863    -0.59970940    -0.00004596    -0.00080846    -0.00073270
H         0.88040824     0.02638416     1.84352300    -0.00088278     0.00070245     0.00034399
H        -0.93438129     0.01399152     1.86337835    -0.00178177    -0.00013719     0.00128448
H        -0.99166401     0.09204049    -0.56529390    -0.00016644     0.00031377    -0.00062265
     6
  Step:    22            Position(A)                                  Velocity(au)
C        -0.03154761     0.03077610    -0.03787933     0.00001334     0.00013557    -0.00083649
N        -0.05038009    -0.08013793     1.35286413     0.00019985    -0.00012552     0.00069519
H         0.92453649    -0.06045391    -0.60356311    -0.00011676    -0.00084073    -0.00065404
H         0.87510756     0.03048213     1.84530100    -0.00101124     0.00076813     0.00030071
H        -0.94405943     0.01308210     1.87044962    -0.00167798    -0.00018875     0.00124550
H        -0.99248983     0.09400833    -0.56865334    -0.00013014     0.00039013    -0.00058518
     6
  Step:    23            Position(A)                                  Velocity(au)
C        -0.03146826     0.03152721    -0.04265821     0.00001499     0.00013428    -0.00087864
N        -0.04926821    -0.08084470     1.35683401     0.00019771    -0.00012830     0.00072995
H         0.92369467    -0.06520987    -0.60698411    -0.00018352    -0.00086660    -0.00057753
H         0.86916044     0.03492794     1.84686772    -0.00111325     0.00082829     0.00026873
H        -0.95304513     0.01189206     1.87723176    -0.00153560    -0.00023833     0.00118232
H        -0.99311152     0.09637981    -0.57180278    -0.00009361     0.00045950    -0.00054732
     6
  Step:    24            Position(A)                                  Velocity(au)
C        -0.03138085     0.03227007    -0.04765474     0.00001622     0.00013248    -0.00091382
N        -0.04818047    -0.08156540     1.36098531     0.00019117    -0.00013045     0.00075951
H         0.92249476    -0.07009542    -0.60998847    -0.00024462    -0.00088709    -0.00050438
H         0.86272190     0.03969742     1.84829078    -0.00118580     0.00088457     0.00024947
H        -0.96114395     0.01043054     1.88360370    -0.00136141    -0.00028624     0.00109929
H        -0.99353128     0.09912053    -0.57474261    -0.00005801     0.00052297    -0.00050975
     6
  Step:    25            Position(A)                                  Velocity(au)
C        -0.03128767     0.03300182    -0.05282976     0.00001704     0.00013013    -0.00094163
N        -0.04714034    -0.08229676     1.36528802     0.00018056    -0.00013204     0.00078328
H         0.92097186    -0.07508391    -0.61259832    -0.00029863    -0.00090295    -0.00043573
H         0.85596151     0.04477396     1.84964451    -0.00122674     0.00093827     0.00024396
H        -0.96819879     0.00870598     1.88946775    -0.00116241    -0.00033241     0.00100070
H        -0.99375722     0.10220085    -0.57747669    -0.00002441     0.00058134    -0.00047314
     6
  Step:    26            Position(A)                                  Velocity(au)
C        -0.03119102     0.03371938    -0.05814239     0.00001745     0.00012722    -0.00096194
N        -0.04616943    -0.08303598     1.36970928     0.00016628    -0.00013314     0.00080091
H         0.91916873    -0.08015232    -0.61484148    -0.00034428    -0.00091486    -0.00037256
H         0.84905875     0.05014762     1.85100791    -0.00123502     0.00099040     0.00025274
H        -0.97409061     0.00672822     1.89474926    -0.00094551    -0.00037659     0.00089072
H        -0.99380319     0.10559540    -0.58001237     0.00000624     0.00063521    -0.00043814
     6
  Step:    27            Position(A)                                  Velocity(au)
C        -0.03109321     0.03441977    -0.06355143     0.00001743     0.00012379    -0.00097485
N        -0.04528698    -0.08378067     1.37421489     0.00014881    -0.00013384     0.00081232
H         0.91713453    -0.08528077    -0.61675080    -0.00038058    -0.00092341    -0.00031575
H         0.84219616     0.05581289     1.85246153    -0.00121080     0.00104180     0.00027581
H        -0.97873733     0.00450856     1.89939557    -0.00071739    -0.00041851     0.00077329
H        -0.99368766     0.10928085    -0.58236016     0.00003318     0.00068499    -0.00040532
     6
  Step:    28            Position(A)                                  Velocity(au)
C        -0.03099660     0.03510020    -0.06901645     0.00001699     0.00011989    -0.00098066
N        -0.04450949    -0.08452895     1.37877040     0.00012870    -0.00013425     0.00081763
H         0.91492355    -0.09045262    -0.61836354    -0.00040676    -0.00092926    -0.00026601
H         0.83555276     0.06176844     1.85408441    -0.00115556     0.00109316     0.00031253
H        -0.98209279     0.00205991     1.90337499    -0.00048439    -0.00045792     0.00065213
H        -0.99343306     0.11323614    -0.58453352     0.00005578     0.00073110    -0.00037518
     6
  Step:    29            Position(A)                                  Velocity(au)
C        -0.03090350     0.03575811    -0.07449887     0.00001615     0.00011557    -0.00097984
N        -0.04385025    -0.08527941     1.38334240     0.00010657    -0.00013446     0.00081716
H         0.91259368    -0.09565446    -0.61972036    -0.00042239    -0.00093304    -0.00022385
H         0.82929621     0.06801623     1.85595037    -0.00107213     0.00114503     0.00036162
H        -0.98414479    -0.00060339     1.90667549    -0.00025241    -0.00049462     0.00053064
H        -0.99306495     0.11744242    -0.58654842     0.00007359     0.00077399    -0.00034814
     6
  Step:    30            Position(A)                                  Velocity(au)
C        -0.03081618     0.03639134    -0.07996291     0.00001491     0.00011092    -0.00097298
N        -0.04331892    -0.08603111     1.38789946     0.00008310    -0.00013455     0.00081137
H         0.91020469    -0.10087623    -0.62086432    -0.00042733    -0.00093536    -0.00018957
H         0.82357529     0.07456036     1.85812435    -0.00096455     0.00119772     0.00042120
H        -0.98491268    -0.00346587     1.90930310    -0.00002682    -0.00052847     0.00041189
H        -0.99261097     0.12188295    -0.58842286     0.00008633     0.00081408    -0.00032451
     6
  Step:    31            Position(A)                                  Velocity(au)
C        -0.03073681     0.03699812    -0.08537608     0.00001330     0.00010601    -0.00096075
N        -0.04292131    -0.08678353     1.39241290     0.00005899    -0.00013457     0.00080083
H         0.90781644    -0.10611112    -0.62183960    -0.00042174    -0.00093683    -0.00016325
H         0.81851325     0.08140581     1.86065906    -0.00083793     0.00125130     0.00048883
H        -0.98444459    -0.00651128     1.91128016     0.00018756    -0.00055938     0.00029864
H        -0.99209982     0.12654323    -0.59017624     0.00009393     0.00085180    -0.00030448
     6
  Step:    32            Position(A)                                  Velocity(au)
C        -0.03066741     0.03757709    -0.09070967     0.00001134     0.00010090    -0.00094385
N        -0.04265909    -0.08753639     1.39685737     0.00003499    -0.00013458     0.00078617
H         0.90548718    -0.11135541    -0.62269035    -0.00040608    -0.00093798    -0.00014474
H         0.81420244     0.08855705     1.86359227    -0.00069812     0.00130556     0.00056166
H        -0.98281464    -0.00972294     1.91264360     0.00038641    -0.00058732     0.00019329
H        -0.99156026     0.13141096    -0.59182875     0.00009647     0.00088756    -0.00028813
     6
  Step:    33            Position(A)                                  Velocity(au)
C        -0.03060986     0.03812730    -0.09593883     0.00000908     0.00009567    -0.00092296
N        -0.04252977    -0.08828959     1.40121101     0.00001182    -0.00013458     0.00076801
H         0.90327190    -0.11660815    -0.62345943    -0.00038108    -0.00093924    -0.00013371
H         0.81070052     0.09601645     1.86694471    -0.00055144     0.00136001     0.00063659
H        -0.98012019    -0.01308410     1.91344324     0.00056589    -0.00061232     0.00009796
H        -0.99102017     0.13647599    -0.59340071     0.00009420     0.00092174    -0.00027541
     6
  Step:    34            Position(A)                                  Velocity(au)
C        -0.03056579     0.03864813    -0.10104248     0.00000654     0.00009037    -0.00089873
N        -0.04252672    -0.08904305     1.40545551    -0.00000979    -0.00013457     0.00074698
H         0.90122090    -0.12187054    -0.62418733    -0.00034767    -0.00094099    -0.00012965
H         0.80802892     0.10378275     1.87071910    -0.00040429     0.00141392     0.00071041
H        -0.97647934    -0.01657807     1.91374025     0.00072260    -0.00063443     0.00001449
H        -0.99050567     0.14173007    -0.59491201     0.00008750     0.00095468    -0.00026618
     6
  Step:    35            Position(A)                                  Velocity(au)
C        -0.03053662     0.03913930    -0.10600319     0.00000378     0.00008505    -0.00087178
N        -0.04263940    -0.08979656     1.40957596    -0.00002919    -0.00013452     0.00072363
H         0.89937857    -0.12714571    -0.62491133    -0.00030700    -0.00094349    -0.00013190
H         0.80617313     0.11185009     1.87490011    -0.00026282     0.00146639     0.00078001
H        -0.97202829    -0.02018863     1.91360550     0.00085358    -0.00065373    -0.00005554
H        -0.99004032     0.14716682    -0.59638145     0.00007689     0.00098669    -0.00026020
     6
  Step:    36            Position(A)                                  Velocity(au)
C        -0.03052346     0.03960073    -0.11080679     0.00000085     0.00007974    -0.00084264
N        -0.04285367    -0.09054972     1.41356046    -0.00004579    -0.00013438     0.00069846
H         0.89778234    -0.13243802    -0.62566466    -0.00026039    -0.00094690    -0.00013967
H         0.80508522     0.12020700     1.87945552    -0.00013258     0.00151637     0.00084257
H        -0.96691890    -0.02390008     1.91311815     0.00095631    -0.00067030    -0.00011083
H        -0.98964452     0.15278138    -0.59782635     0.00006297     0.00101799    -0.00025716
     6
  Step:    37            Position(A)                                  Velocity(au)
C        -0.03052714     0.04003255    -0.11544212    -0.00000220     0.00007448    -0.00081181
N        -0.04315235    -0.09130183     1.41739982    -0.00005910    -0.00013410     0.00067190
H         0.89646175    -0.13775251    -0.62647587    -0.00020930    -0.00095128    -0.00015209
H         0.80468799     0.12883596     1.88433822    -0.00001831     0.00156281     0.00089566
H        -0.96131601    -0.02769705     1.91236405     0.00102874    -0.00068429    -0.00015031
H        -0.98933493     0.15856996    -0.59926206     0.00004645     0.00104879    -0.00025670
     6
  Step:    38            Position(A)                                  Velocity(au)
C        -0.03054815     0.04043501    -0.11990073    -0.00000531     0.00006927    -0.00077974
N        -0.04351572    -0.09205189     1.42108715    -0.00006873    -0.00013361     0.00064434
H         0.89543775    -0.14309435    -0.62736836    -0.00015528    -0.00095663    -0.00016822
H         0.80488012     0.13771368     1.88948874     0.00007628     0.00160473     0.00093739
H        -0.95539486    -0.03156558     1.91143440     0.00106937    -0.00069595    -0.00017323
H        -0.98912421     0.16452993    -0.60070187     0.00002805     0.00107924    -0.00025841
     6
  Step:    39            Position(A)                                  Velocity(au)
C        -0.03058660     0.04080845    -0.12417660    -0.00000840     0.00006412    -0.00074684
N        -0.04392228    -0.09279855     1.42461750    -0.00007444    -0.00013288     0.00061607
H         0.89472232    -0.14846845    -0.62836018    -0.00009994    -0.00096287    -0.00018709
H         0.80554242     0.14681166     1.89483860     0.00014858     0.00164129     0.00096645
H        -0.94933723    -0.03549292     1.91042362     0.00107742    -0.00070552    -0.00017921
H        -0.98902068     0.17065936    -0.60215671     0.00000858     0.00110949    -0.00026187
     6
  Step:    40            Position(A)                                  Velocity(au)
C        -0.03064229     0.04115325    -0.12826586    -0.00001143     0.00005906    -0.00071346
N        -0.04434951    -0.09354019     1.42798754    -0.00007612    -0.00013184     0.00058736
H         0.89431832    -0.15387917    -0.62946393    -0.00004488    -0.00096987    -0.00020776
H         0.80654435     0.15609730     1.90031369     0.00019715     0.00167190     0.00098215
H        -0.94332705    -0.03946787     1.90942709     0.00105291    -0.00071329    -0.00016831
H        -0.98902812     0.17695695    -0.60363504    -0.00001117     0.00113961    -0.00026664
     6
  Step:    41            Position(A)                                  Velocity(au)
C        -0.03071465     0.04146981    -0.13216661    -0.00001434     0.00005406    -0.00067993
N        -0.04477470    -0.09427498     1.43119534    -0.00007379    -0.00013046     0.00055844
H         0.89421969    -0.15933005    -0.63068687     0.00000835    -0.00097749    -0.00022930
H         0.80775034     0.16553522     1.90583766     0.00022159     0.00169619     0.00098435
H        -0.93754575    -0.04348109     1.90853869     0.00099677    -0.00071964    -0.00014104
H        -0.98914579     0.18342186    -0.60514285    -0.00003040     0.00116971    -0.00027228
     6
  Step:    42            Position(A)                                  Velocity(au)
C        -0.03080281     0.04175854    -0.13587868    -0.00001706     0.00004914    -0.00064652
N        -0.04517573    -0.09500091     1.43424015    -0.00006765    -0.00012873     0.00052950
H         0.89441187    -0.16482372    -0.63203130     0.00005832    -0.00098556    -0.00025086
H         0.80902545     0.17508879     1.91133499     0.00022244     0.00171407     0.00097342
H        -0.93216667    -0.04752541     1.90784798     0.00091095    -0.00072498    -0.00009842
H        -0.98936850     0.19005361    -0.60668368    -0.00004834     0.00119983    -0.00027837
     6
  Step:    43            Position(A)                                  Velocity(au)
C        -0.03090563     0.04201982    -0.13940334    -0.00001956     0.00004428    -0.00061347
N        -0.04553188    -0.09571590     1.43712228    -0.00005798    -0.00012663     0.00050072
H         0.89487252    -0.17036178    -0.63349488     0.00010372    -0.00099388    -0.00027168
H         0.81024015     0.18472150     1.91673351     0.00020097     0.00172567     0.00095012
H        -0.92734912    -0.05159609     1.90743707     0.00079842    -0.00072975    -0.00004203
H        -0.98968684     0.19685202    -0.60825875    -0.00006425     0.00123003    -0.00028450
     6
  Step:    44            Position(A)                                  Velocity(au)
C        -0.03102173     0.04225398    -0.14274313    -0.00002181     0.00003948    -0.00058096
N        -0.04582450    -0.09641783     1.43984301    -0.00004521    -0.00012416     0.00047225
H         0.89557246    -0.17594481    -0.63507127     0.00014342    -0.00100226    -0.00029108
H         0.81127423     0.19439835     1.92196644     0.00015909     0.00173134     0.00091553
H        -0.92323263    -0.05569104     1.90737768     0.00066314    -0.00073443     0.00002604
H        -0.99008747     0.20381712    -0.60986712    -0.00007749     0.00126032    -0.00029030
     6