     6
  Step:   300            Position(A)                                  Velocity(au)
C        -0.03119619     0.01400259     0.02131472     0.00001812     0.00005519     0.00019925
N        -0.04895183    -0.06824358     1.29422928    -0.00000773    -0.00012536    -0.00012852
H         0.89175593     0.03419910    -0.54905360    -0.00033980    -0.00101487    -0.00062503
H         0.78080388    -0.08728585     1.90963664    -0.00004663     0.00166049     0.00025597
H        -0.88873781     0.10282839     1.85002362     0.00002369    -0.00047512     0.00003114
H        -0.94477222     0.06196169    -0.55763855     0.00025416     0.00091392    -0.00025044
