 Fermi distribution function

Calculation with static geometry


********************************************************************************
 iSCC Total electronic   Diff electronic      SCC error    
   11   -0.53846647E+01   -0.11759482E-11    0.48266351E-08
********************************************************************************

 Total charge:     1.00000000

 Atomic gross charges (e)
 Atom           Charge
    1       0.21553313
    2      -0.12054784
    3       0.13801551
    4       0.29475002
    5       0.27569991
    6       0.19654926

Nr. of electrons (up):     12.00000000
Atom populations (up)
 Atom       Population
    1       3.78446687
    2       5.12054784
    3       0.86198449
    4       0.70524998
    5       0.72430009
    6       0.80345074

l-shell populations (up)
 Atom Sh.   l       Population
    1   1   0       1.31124413
    1   2   1       2.47322274
    2   1   0       1.41825447
    2   2   1       3.70229338
    3   1   0       0.86198449
    4   1   0       0.70524998
    5   1   0       0.72430009
    6   1   0       0.80345074

Orbital populations (up)
 Atom Sh.   l   m       Population  Label
    1   1   0   0       1.31124413  s
    1   2   1  -1       0.56537758  p_y
    1   2   1   0       0.89174613  p_z
    1   2   1   1       1.01609903  p_x
    2   1   0   0       1.41825447  s
    2   2   1  -1       1.29877710  p_y
    2   2   1   0       1.11201706  p_z
    2   2   1   1       1.29149921  p_x
    3   1   0   0       0.86198449  s
    4   1   0   0       0.70524998  s
    5   1   0   0       0.72430009  s
    6   1   0   0       0.80345074  s

Fermi level:                        -0.4914618744 H          -13.3734 eV
Band energy:                        -8.8746401620 H         -241.4912 eV
TS:                                  0.0000000000 H            0.0000 eV
Band free energy (E-TS):            -8.8746401620 H         -241.4912 eV
Extrapolated E(0K):                 -8.8746401620 H         -241.4912 eV
Input / Output electrons (q):     12.0000000000     12.0000000000

Energy H0:                          -5.5175598094 H         -150.1404 eV
Energy SCC:                          0.1328951079 H            3.6163 eV
Total Electronic energy:            -5.3846647014 H         -146.5242 eV
Repulsive energy:                    0.1892239180 H            5.1490 eV
Total energy:                       -5.1954407835 H         -141.3751 eV
Extrapolated to 0:                  -5.1954407835 H         -141.3751 eV
Total Mermin free energy:           -5.1954407835 H         -141.3751 eV
Force related energy:               -5.1954407835 H         -141.3751 eV

SCC converged

Excitation Energy:                   0.0997135199 H            2.7133 eV

Total Forces
    1     -0.005554535071     -0.019869673536      0.033229051137
    2     -0.018506694073      0.015558340304     -0.031800835495
    3     -0.001906957282      0.012283437119      0.000113463537
    4     -0.003143827748     -0.010823960788      0.003669272331
    5      0.020761810213      0.003963863233     -0.003608126579
    6      0.008350203961     -0.001112006331     -0.001602824931

Maximal derivative component:        0.332291E-01 au


