 Fermi distribution function

Calculation with static geometry


********************************************************************************
 iSCC Total electronic   Diff electronic      SCC error    
    9   -0.53911370E+01   -0.34648462E-09    0.52862465E-06
********************************************************************************

 Total charge:     1.00000000

 Atomic gross charges (e)
 Atom           Charge
    1       0.27771125
    2      -0.17068678
    3       0.16450687
    4       0.27916405
    5       0.30049329
    6       0.14881131

Nr. of electrons (up):     12.00000000
Atom populations (up)
 Atom       Population
    1       3.72228875
    2       5.17068678
    3       0.83549313
    4       0.72083595
    5       0.69950671
    6       0.85118869

l-shell populations (up)
 Atom Sh.   l       Population
    1   1   0       1.30143579
    1   2   1       2.42085296
    2   1   0       1.41350223
    2   2   1       3.75718455
    3   1   0       0.83549313
    4   1   0       0.72083595
    5   1   0       0.69950671
    6   1   0       0.85118869

Orbital populations (up)
 Atom Sh.   l   m       Population  Label
    1   1   0   0       1.30143579  s
    1   2   1  -1       0.53515312  p_y
    1   2   1   0       0.89030440  p_z
    1   2   1   1       0.99539544  p_x
    2   1   0   0       1.41350223  s
    2   2   1  -1       1.32377372  p_y
    2   2   1   0       1.08110528  p_z
    2   2   1   1       1.35230555  p_x
    3   1   0   0       0.83549313  s
    4   1   0   0       0.72083595  s
    5   1   0   0       0.69950671  s
    6   1   0   0       0.85118869  s

Fermi level:                        -0.4868272566 H          -13.2472 eV
Band energy:                        -8.8639481902 H         -241.2003 eV
TS:                                  0.0000000000 H            0.0000 eV
Band free energy (E-TS):            -8.8639481902 H         -241.2003 eV
Extrapolated E(0K):                 -8.8639481902 H         -241.2003 eV
Input / Output electrons (q):     12.0000000000     12.0000000000

Energy H0:                          -5.5241391455 H         -150.3195 eV
Energy SCC:                          0.1330021362 H            3.6192 eV
Total Electronic energy:            -5.3911370093 H         -146.7003 eV
Repulsive energy:                    0.1946467543 H            5.2966 eV
Total energy:                       -5.1964902550 H         -141.4037 eV
Extrapolated to 0:                  -5.1964902550 H         -141.4037 eV
Total Mermin free energy:           -5.1964902550 H         -141.4037 eV
Force related energy:               -5.1964902550 H         -141.4037 eV

SCC converged

Excitation Energy:                   0.0965267729 H            2.6266 eV

Total Forces
    1      0.009721722659      0.005168629493      0.019406783750
    2     -0.003362486289      0.002084888683     -0.023225248568
    3     -0.005936139658      0.009473800383      0.000094924227
    4     -0.011306919053     -0.011445178526     -0.005285367595
    5      0.008175319874      0.010202236419      0.004137247855
    6      0.002708502467     -0.015484376452      0.004871660331

Maximal derivative component:        0.232252E-01 au


