|===============================================================================
|
|  DFTB+ release 20.1
|
|  Copyright (C) 2006 - 2020  DFTB+ developers group
|
|===============================================================================
|
|  When publishing results obtained with DFTB+, please cite the following
|  reference:
|
|  * DFTB+, a software package for efficient approximate density functional
|    theory based atomistic simulations, J. Chem. Phys. 152, 124101 (2020).
|    [doi: 10.1063/1.5143190]
|
|  You should also cite additional publications crediting the parametrization
|  data you use. Please consult the documentation of the SK-files for the
|  references.
|
|===============================================================================

Reading input file 'dftb_in.hsd'
Parser version: 8

--------------------------------------------------------------------------------
Reading SK-files:
Done.


Processed input in HSD format written to 'dftb_pin.hsd'

Starting initialization...
--------------------------------------------------------------------------------
WARNING!
-> Excited state forces are not implemented yet for fractional occupations, kT=  0.3158E-02K
OpenMP threads:              1
Chosen random seed:          505834723
Mode:                        Static calculation
Self consistent charges:     Yes
SCC-tolerance:                 0.100000E-05
Max. scc iterations:                    100
Shell resolved Hubbard:      No
Spin polarisation:           No
Nr. of up electrons:             6.000000
Nr. of down electrons:           6.000000
Periodic boundaries:         No
Electronic solver:           Relatively robust
Mixer:                       Broyden mixer
Mixing parameter:                  0.200000
Maximal SCC-cycles:                     100
Nr. of chrg. vec. in memory:              0
Electronic temperature:        0.100000E-07 H      0.272114E-06 eV
Initial charges:             Set automatically (system chrg:   0.100E+01)
Included shells:             C:  s, p
                             N:  s, p
                             H:  s
Extra options:
                             Mulliken analysis
                             Force calculation
Force type                   original
                             Eigenvector printing

--------------------------------------------------------------------------------

***  Geometry step: 0

 iSCC Total electronic   Diff electronic      SCC error    
    1   -0.52210294E+01    0.00000000E+00    0.11474057E+01
    2   -0.52551651E+01   -0.34135762E-01    0.66007704E+00
    3   -0.52633701E+01   -0.82049284E-02    0.31107121E+00
    4   -0.51344545E+01    0.12891556E+00    0.14804138E+01
    5   -0.52626193E+01   -0.12816475E+00    0.24170276E+00
    6   -0.52661902E+01   -0.35709615E-02    0.13343605E+00
    7   -0.52668627E+01   -0.67246754E-03    0.11255841E+00
    8   -0.52680592E+01   -0.11964932E-02    0.14109973E-01
    9   -0.52679901E+01    0.69122400E-04    0.30058352E-01
   10   -0.52680677E+01   -0.77588211E-04    0.89613083E-02
   11   -0.52680759E+01   -0.81985833E-05    0.10000042E-02
   12   -0.52680756E+01    0.27074584E-06    0.18684967E-02
   13   -0.52680759E+01   -0.35892361E-06    0.11066643E-03
   14   -0.52680759E+01   -0.12528512E-08    0.44923881E-05
   15   -0.52680759E+01    0.13518076E-11    0.67219082E-05
   16   -0.52680759E+01   -0.40492054E-11    0.26727076E-06
>> Charges saved for restart in charges.bin

Total Energy:                       -5.0169114952 H         -136.5171 eV
Extrapolated to 0:                  -5.1399087102 H         -139.8640 eV
Total Mermin free energy:           -5.0169114952 H         -136.5171 eV
Force related energy:               -5.1399087102 H         -139.8640 eV

--------------------------------------------------------------------------------
DFTB+ running times                          cpu [s]             wall clock [s]
--------------------------------------------------------------------------------
SCC                                    +     0.02  ( 69.7%)      0.46  ( 93.4%)
Post-SCC processing                    +     0.01  ( 25.2%)      0.03  (  5.7%)
--------------------------------------------------------------------------------
Missing                                +     0.00  (  5.0%)      0.00  (  0.8%)
Total                                  =     0.02  (100.0%)      0.49  (100.0%)
--------------------------------------------------------------------------------
