     6
  Step:   120            Position(A)                                  Velocity(au)
C        -0.04021362    -0.03304775    -0.01676575     0.00012711     0.00001657     0.00043900
N        -0.05145636    -0.10798795     1.33497601    -0.00007535     0.00012139    -0.00041395
H         0.70490748     0.74901730    -0.37811705    -0.00090379     0.00077645     0.00015346
H         0.81598531    -0.22832744     1.91571349    -0.00058152    -0.00174551    -0.00053088
H        -0.61526067     0.70354292     1.71567257     0.00081728     0.00071064     0.00043300
H        -0.92433201     0.00042126    -0.71275130     0.00020047    -0.00162590     0.00046571
