|===============================================================================
|
|  DFTB+ release 20.1
|
|  Copyright (C) 2006 - 2020  DFTB+ developers group
|
|===============================================================================
|
|  When publishing results obtained with DFTB+, please cite the following
|  reference:
|
|  * DFTB+, a software package for efficient approximate density functional
|    theory based atomistic simulations, J. Chem. Phys. 152, 124101 (2020).
|    [doi: 10.1063/1.5143190]
|
|  You should also cite additional publications crediting the parametrization
|  data you use. Please consult the documentation of the SK-files for the
|  references.
|
|===============================================================================

Reading input file 'dftb_in.hsd'
Parser version: 8

--------------------------------------------------------------------------------
Reading SK-files:
Done.


Processed input in HSD format written to 'dftb_pin.hsd'

Starting initialization...
--------------------------------------------------------------------------------
OpenMP threads:              1
Chosen random seed:          511005896
Mode:                        Static calculation
Self consistent charges:     Yes
SCC-tolerance:                 0.100000E-05
Max. scc iterations:                   1000
Shell resolved Hubbard:      No
Spin polarisation:           No
Nr. of up electrons:             6.000000
Nr. of down electrons:           6.000000
Periodic boundaries:         No
Electronic solver:           Relatively robust
Maximal SCC-cycles:                    1000
Initial charges:             Set automatically (system chrg:   0.100E+01)
Included shells:             C:  s, p
                             N:  s, p
                             H:  s
Spin coupling constants:     C   1(s)-1(s):  -0.455900E-01
                             C   1(s)-2(p):  -0.293000E-01
                             C   2(p)-1(s):  -0.293000E-01
                             C   2(p)-2(p):  -0.275500E-01
                             N   1(s)-1(s):  -0.468700E-01
                             N   1(s)-2(p):  -0.317000E-01
                             N   2(p)-1(s):  -0.317000E-01
                             N   2(p)-2(p):  -0.307200E-01
                             H   1(s)-1(s):  -0.792500E-01
Range separated hybrid:      Yes
  Screening parameter omega:   0.300000E+00
  Range separated algorithm:   MatrixBased
Extra options:
                             Mulliken analysis
                             Force calculation
Force type                   original
                             Eigenvector printing


REKS Calcuation:             Yes
SSR(2,2) Calcuation:         Yes
Energy Functional:           (PPS+OSS)/2
Number of Core Orbitals:                  5
Number of Active Orbitals:                2
Number of Basis:                         12
Number of States:                         2
State-Averaging Weight:          0.500000
                                 0.500000
State of Interest:                        1
Initial Guess:               Diagonalize H0 matrix
Newton-Raphson for FON opt:  Yes
NR max. Iterations:                      50
Level Shifting:              Yes
Shift Value:                     0.300000
W Scale Factor:              C  =    3.000000
                             N  =    3.000000
                             H  =    3.000000
Transition Dipole:           No
Gradient of Microstate:      No
CP-REKS Solver:              Preconditioned Conjugate-Gradient
CG max. Iterations:                     100
CG Tolerance:                  0.100000E-07
Memory for A and Hxc:        Direct Updating Without Saving
Non-Adiabatic Coupling:      Yes

--------------------------------------------------------------------------------

***  Geometry step: 0

  iSCC       reks energy        Diff energy         x_a       SCC error   
    1       -6.2626956284       0.0000000000     0.999240    1.18707016
    2       -6.2761277998      -0.0134321714     0.999691    0.10497610
    3       -6.2804878797      -0.0043600800     0.999830    0.04738644
    4       -6.2828262355      -0.0023383557     0.999891    0.02401056
    5       -6.2842865665      -0.0014603311     0.999921    0.01276692
    6       -6.2852548857      -0.0009683191     0.999937    0.00821213
    7       -6.2859057657      -0.0006508801     0.999946    0.00751267
    8       -6.2863399091      -0.0004341434     0.999952    0.00655724
    9       -6.2866253534      -0.0002854442     0.999956    0.00554412
   10       -6.2868103981      -0.0001850447     0.999958    0.00458137
   11       -6.2869290192      -0.0001186211     0.999960    0.00372218
   12       -6.2870044776      -0.0000754583     0.999961    0.00298618
   13       -6.2870522664      -0.0000477889     0.999961    0.00237344
   14       -6.2870824783      -0.0000302119     0.999962    0.00187364
   15       -6.2871015825      -0.0000191042     0.999962    0.00150586
   16       -6.2871136825      -0.0000121000     0.999962    0.00125193
   17       -6.2871213654      -0.0000076829     0.999962    0.00103761
   18       -6.2871262581      -0.0000048926     0.999962    0.00085764
   19       -6.2871293835      -0.0000031254     0.999962    0.00070716
   20       -6.2871313861      -0.0000020026     0.999962    0.00058181
   21       -6.2871326730      -0.0000012869     0.999962    0.00047775
   22       -6.2871335020      -0.0000008290     0.999962    0.00039161
   23       -6.2871340374      -0.0000005353     0.999962    0.00032049
   24       -6.2871343837      -0.0000003463     0.999962    0.00026366
   25       -6.2871346082      -0.0000002245     0.999962    0.00021705
   26       -6.2871347538      -0.0000001457     0.999962    0.00017826
   27       -6.2871348485      -0.0000000946     0.999962    0.00014611
   28       -6.2871349100      -0.0000000616     0.999962    0.00011955
   29       -6.2871349501      -0.0000000401     0.999962    0.00009767
   30       -6.2871349762      -0.0000000261     0.999962    0.00007969
   31       -6.2871349932      -0.0000000170     0.999962    0.00006495
   32       -6.2871350043      -0.0000000111     0.999962    0.00005288
   33       -6.2871350115      -0.0000000072     0.999962    0.00004301
   34       -6.2871350163      -0.0000000047     0.999962    0.00003496
   35       -6.2871350193      -0.0000000031     0.999962    0.00002840
   36       -6.2871350213      -0.0000000020     0.999962    0.00002305
   37       -6.2871350227      -0.0000000013     0.999962    0.00001871
   38       -6.2871350235      -0.0000000009     0.999962    0.00001517
   39       -6.2871350241      -0.0000000006     0.999962    0.00001230
   40       -6.2871350244      -0.0000000004     0.999962    0.00000997
   41       -6.2871350247      -0.0000000002     0.999962    0.00000807
   42       -6.2871350248      -0.0000000002     0.999962    0.00000654
   43       -6.2871350249      -0.0000000001     0.999962    0.00000529
   44       -6.2871350250      -0.0000000001     0.999962    0.00000429
   45       -6.2871350250      -0.0000000000     0.999962    0.00000347
   46       -6.2871350251      -0.0000000000     0.999962    0.00000281
   47       -6.2871350251      -0.0000000000     0.999962    0.00000227
   48       -6.2871350251      -0.0000000000     0.999962    0.00000184
   49       -6.2871350251      -0.0000000000     0.999962    0.00000149
   50       -6.2871350251      -0.0000000000     0.999962    0.00000120
   51       -6.2871350251      -0.0000000000     0.999962    0.00000097
  
--------------------------------------------------
 Final SA-REKS(2,2) energy:      -6.28713503
  
 State     Energy      FON(1)    FON(2)   Spin
  PPS   -6.41538618   1.999924  0.000076  0.00
  OSS   -6.15888387   1.000000  1.000000  0.00
 Trip   -6.23873439   1.000000  1.000000  1.00
--------------------------------------------------

 Lagrangian Wab:   0.00362259  0.00362244

--------------------------------------------------
 SSR: 2SI-2SA-REKS(2,2) Hamiltonian matrix
               PPS           OSS
   PPS    -6.41538618    0.00509150
   OSS     0.00509150   -6.15888387
--------------------------------------------------

----------------------------------------------------------------
 SSR: 2SI-2SA-REKS(2,2) states
                    E_n       C_{PPS}    C_{OSS}
 SSR state  1   -6.41548721  -0.999803   0.019838
 SSR state  2   -6.15878284  -0.019838  -0.999803
----------------------------------------------------------------

 unrelaxed SSR FONs for S0:  1.999531  0.000469

Total Energy:                       -6.4154872085 H         -174.5743 eV
Extrapolated to 0:                  -6.4154872085 H         -174.5743 eV

----------------------------------------------------------------------------------
 Solving CP-REKS equation for  1 state vector...
----------------------------------------------------------------------------------
  CG solver: Constructing Y initial guess
  CG solver: Iteration    1    eps =    0.000069376239
  CG solver: Iteration    2    eps =    0.000016372162
  CG solver: Iteration    3    eps =    0.000000622343
  CG solver: Iteration    4    eps =    0.000000220254
  CG solver: Iteration    5    eps =    0.000000007710
  Convergence reached in CG solver after    5 iterations
  CG solver: Calculating converged R, Z, Q2 matrix
----------------------------------------------------------------------------------

----------------------------------------------------------------------------------
 Solving CP-REKS equation for SI between  1 and  2 state vectors...
----------------------------------------------------------------------------------
  CG solver: Constructing Y initial guess
  CG solver: Iteration    1    eps =    0.001112115283
  CG solver: Iteration    2    eps =    0.001124235083
  CG solver: Iteration    3    eps =    0.000237457203
  CG solver: Iteration    4    eps =    0.000003087346
  CG solver: Iteration    5    eps =    0.000000416211
  CG solver: Iteration    6    eps =    0.000000012141
  CG solver: Iteration    7    eps =    0.000000000425
  Convergence reached in CG solver after    7 iterations
  CG solver: Calculating converged R, Z, Q2 matrix
----------------------------------------------------------------------------------

--------------------------------------------------
 Gradient Information
--------------------------------------------------
           1 st state (SSR)
     0.00021068     0.00629709     0.00497209
     0.00934926    -0.00562354     0.00090739
     0.00697648    -0.00163649    -0.00367313
     0.00508034    -0.00126172     0.00118443
    -0.01254644     0.00177520    -0.00237130
    -0.00907031     0.00044946    -0.00101948

           2 st state (SSR)
     0.00715658    -0.00381568     0.10376808
    -0.01234137     0.00388054    -0.11847061
    -0.00881056    -0.01185588     0.01558951
    -0.00404657     0.00670601    -0.00764786
     0.00860639    -0.00590764    -0.01069215
     0.00943553     0.01099265     0.01745304
--------------------------------------------------
 Coupling Information
--------------------------------------------------
 between  1 and  2 states
--------------------------------------------------
 g vector - difference gradient
    -0.00345910     0.00506174    -0.04966485
     0.01093078    -0.00467128     0.05987222
     0.00821550     0.00506906    -0.00962972
     0.00489285    -0.00402399     0.00445702
    -0.01097320     0.00379549     0.00417873
    -0.00960682    -0.00523104    -0.00921340

 h vector - derivative coupling
     0.00041782     0.00003469    -0.00574184
     0.00193760     0.00212870     0.00343083
     0.00795389    -0.00112490     0.00023136
     0.00820664    -0.00093169     0.00094188
    -0.00978506    -0.00123301     0.00037868
    -0.00873089     0.00112622     0.00075910

 G vector - GDV
    -0.00347295     0.00505638    -0.04939799
     0.01084531    -0.00475204     0.05968900
     0.00789352     0.00510970    -0.00963132
     0.00456345    -0.00398387     0.00441615
    -0.01057641     0.00384142     0.00416042
    -0.00925292    -0.00527159    -0.00923626

 H vector - DCV - non-adiabatic coupling
     0.00109181     0.00091722    -0.03002458
     0.00923116     0.00756405     0.02260638
     0.03222977    -0.00359534    -0.00058752
     0.03270015    -0.00424839     0.00435496
    -0.03978367    -0.00421295     0.00211973
    -0.03546921     0.00357541     0.00153102
--------------------------------------------------


--------------------------------------------------------------------------------
DFTB+ running times                          cpu [s]             wall clock [s]
--------------------------------------------------------------------------------
SCC                                    +     0.02  ( 67.1%)      0.03  ( 62.5%)
Post-SCC processing                    +     0.01  ( 29.1%)      0.01  ( 27.5%)
  Force calculation                          0.01  ( 28.5%)      0.01  ( 25.0%)
--------------------------------------------------------------------------------
Missing                                +     0.00  (  3.8%)      0.00  ( 10.0%)
Total                                  =     0.03  (100.0%)      0.04  (100.0%)
--------------------------------------------------------------------------------
