     6
  Step:   300            Position(A)                                  Velocity(au)
C        -0.05671062     0.00239515     0.02885329     0.00004562    -0.00004713     0.00001504
N        -0.04778422    -0.05438182     1.28758710    -0.00019085     0.00006475    -0.00002044
H         0.13562373     0.99398535    -0.38005968    -0.00153723     0.00013956    -0.00027766
H         0.09816848    -0.89858600     1.84289523    -0.00045262     0.00024078     0.00044276
H         0.18421972     0.78984708     1.83462317     0.00262663    -0.00077805     0.00041788
H        -0.29114840    -0.82787008    -0.64199950     0.00147170     0.00005955    -0.00047816
