     6
  Step:     0            Position(A)                                  Velocity(au)
C        -0.04454144     0.01935510     0.02687334    -0.00003452    -0.00008939     0.00034330
N        -0.03639339    -0.06744239     1.29471253    -0.00016965    -0.00006482    -0.00032637
H         0.95465725     0.02421592    -0.52306567     0.00037320     0.00045195    -0.00016685
H         0.82000559    -0.08312647     1.81588465     0.00147491     0.00057885     0.00077082
H        -0.97651583     0.03309449     1.83710214     0.00071106     0.00050103     0.00016905
H        -0.97459112     0.06260533    -0.54988499     0.00020973     0.00043405    -0.00032845
     6
  Step:     1            Position(A)                                  Velocity(au)
C        -0.04471429     0.01888188     0.02857529    -0.00002842    -0.00008350     0.00027693
N        -0.03737825    -0.06780970     1.29308995    -0.00018842    -0.00006971    -0.00026437
H         0.95656734     0.02670086    -0.52405250     0.00032163     0.00045663    -0.00019156
H         0.82835696    -0.07995477     1.82042459     0.00155401     0.00058176     0.00087282
H        -0.97208591     0.03581988     1.83783369     0.00090425     0.00049596     0.00010032
H        -0.97353657     0.06496626    -0.55190226     0.00017715     0.00042923    -0.00040779
     6
  Step:     2            Position(A)                                  Velocity(au)
C        -0.04485230     0.01844169     0.02990293    -0.00002180    -0.00007730     0.00020673
N        -0.03845468    -0.06820500     1.29182042    -0.00020299    -0.00007499    -0.00019764
H         0.95817574     0.02921138    -0.52516126     0.00026322     0.00046109    -0.00021158
H         0.83700604    -0.07676214     1.82543303     0.00158389     0.00058601     0.00094207
H        -0.96662362     0.03852020     1.83819957     0.00108621     0.00049188     0.00003654
H        -0.97265320     0.06730094    -0.55434611     0.00014727     0.00042424    -0.00048395
     6
  Step:     3            Position(A)                                  Velocity(au)
C        -0.04495278     0.01803603     0.03083733    -0.00001472    -0.00007087     0.00013356
N        -0.03959940    -0.06863030     1.29092737    -0.00021330    -0.00008063    -0.00012721
H         0.95944747     0.03174614    -0.52636767     0.00019895     0.00046530    -0.00022743
H         0.84568812    -0.07354254     1.83073287     0.00156707     0.00059114     0.00097986
H        -0.96020047     0.04120215     1.83823348     0.00125308     0.00048931    -0.00001977
H        -0.97192508     0.06960836    -0.55719769     0.00012049     0.00041905    -0.00055639
     6
  Step:     4            Position(A)                                  Velocity(au)
C        -0.04501345     0.01766607     0.03136463    -0.00000727    -0.00006426     0.00005838
N        -0.04078913    -0.06908739     1.29042819    -0.00021938    -0.00008655    -0.00005424
H         0.96035317     0.03430384    -0.52765038     0.00012990     0.00046928    -0.00023966
H         0.85415671    -0.07029242     1.83615695     0.00150740     0.00059671     0.00098835
H        -0.95290939     0.04387543     1.83798319     0.00140094     0.00048881    -0.00006602
H        -0.97133450     0.07188723    -0.56043548     0.00009706     0.00041362    -0.00062466
     6
  Step:     5            Position(A)                                  Velocity(au)
C        -0.04503240     0.01733263     0.03147643     0.00000048    -0.00005754    -0.00001778
N        -0.04200086    -0.06957777     1.29033364    -0.00022130    -0.00009273     0.00002003
H         0.96086940     0.03688311    -0.52899114     0.00005716     0.00047299    -0.00024884
H         0.86218896    -0.06701058     1.84155188     0.00140954     0.00060230     0.00097032
H        -0.94486503     0.04655298     1.83751081     0.00152579     0.00049099    -0.00009958
H        -0.97086261     0.07413604    -0.56403562     0.00007714     0.00040787    -0.00068837
     6
  Step:     6            Position(A)                                  Velocity(au)
C        -0.04500819     0.01703612     0.03116996     0.00000845    -0.00005077    -0.00009389
N        -0.04321213    -0.07010268     1.29064749    -0.00021917    -0.00009911     0.00009430
H         0.96097900     0.03948255    -0.53037493    -0.00001809     0.00047643    -0.00025558
H         0.86958944    -0.06369798     1.84678080     0.00127861     0.00060751     0.00092890
H        -0.93620376     0.04925121     1.83689287     0.00162373     0.00049648    -0.00011788
H        -0.97048994     0.07635293    -0.56797232     0.00006079     0.00040174    -0.00074717
     6
  Step:     7            Position(A)                                  Velocity(au)
C        -0.04493986     0.01677663     0.03044826     0.00001654    -0.00004403    -0.00016887
N        -0.04440107    -0.07066313     1.29136638    -0.00021310    -0.00010564     0.00016728
H         0.96067133     0.04210065    -0.53179010    -0.00009462     0.00047956    -0.00026049
H         0.87619142    -0.06035759     1.85172455     0.00111989     0.00061199     0.00086734
H        -0.92708314     0.05199012     1.83621986     0.00169093     0.00050595    -0.00011843
H        -0.97019693     0.07853566    -0.57221809     0.00004798     0.00039515    -0.00080076
     6
  Step:     8            Position(A)                                  Velocity(au)
C        -0.04482698     0.01655385     0.02932016     0.00002465    -0.00003737    -0.00024167
N        -0.04554644    -0.07125993     1.29247989    -0.00020320    -0.00011230     0.00023768
H         0.95994254     0.04473574    -0.53322834    -0.00017115     0.00048233    -0.00026416
H         0.88185698    -0.05699415     1.85628188     0.00093861     0.00061541     0.00078892
H        -0.91768096     0.05479344     1.83559552     0.00172395     0.00052003    -0.00009902
H        -0.96996435     0.08068151    -0.57674399     0.00003863     0.00038799    -0.00084886
     6
  Step:     9            Position(A)                                  Velocity(au)
C        -0.04466973     0.01636713     0.02780013     0.00003266    -0.00003086    -0.00031125
N        -0.04662769    -0.07189365     1.29397078    -0.00018963    -0.00011902     0.00030428
H         0.95879589     0.04738592    -0.53468470    -0.00024635     0.00048469    -0.00026721
H         0.88647653    -0.05361401     1.86036936     0.00073988     0.00061750     0.00069683
H        -0.90819253     0.05768845     1.83513482     0.00171995     0.00053932    -0.00005788
H        -0.96977368     0.08278722    -0.58151973     0.00003256     0.00038016    -0.00089123
     6
  Step:    10            Position(A)                                  Velocity(au)
C        -0.04446897     0.01621552     0.02590813     0.00004043    -0.00002456    -0.00037664
N        -0.04762519    -0.07256467     1.29581547    -0.00017258    -0.00012578     0.00036597
H         0.95724206     0.05004905    -0.53615755    -0.00031880     0.00048659    -0.00027023
H         0.88996765    -0.05022495     1.86392068     0.00052861     0.00061800     0.00059417
H        -0.89882653     0.06070561     1.83496099     0.00167704     0.00056433     0.00000608
H        -0.96960738     0.08484893    -0.58651382     0.00002959     0.00037154    -0.00092762
     6
  Step:    11            Position(A)                                  Velocity(au)
C        -0.04422629     0.01609773     0.02366923     0.00004783    -0.00001852    -0.00043692
N        -0.04852045    -0.07327312     1.29798465    -0.00015230    -0.00013251     0.00042176
H         0.95529938     0.05272271    -0.53764851    -0.00038708     0.00048797    -0.00027380
H         0.89227411    -0.04683601     1.86688601     0.00030959     0.00061669     0.00048393
H        -0.88979938     0.06387787     1.83520153     0.00159458     0.00059538     0.00009308
H        -0.96944913     0.08686214    -0.59169358     0.00002947     0.00036201    -0.00095782
     6
  Step:    12            Position(A)                                  Velocity(au)
C        -0.04394406     0.01601223     0.02111323     0.00005470    -0.00001279    -0.00049125
N        -0.04929663    -0.07401884     1.30044402    -0.00012918    -0.00013915     0.00047081
H         0.95299413     0.05540413    -0.53916231    -0.00044971     0.00048875    -0.00027846
H         0.89336520    -0.04345723     1.86923152     0.00008753     0.00061340     0.00036905
H        -0.88132718     0.06723949     1.83598253     0.00147356     0.00063252     0.00020219
H        -0.96928394     0.08882171    -0.59702525     0.00003194     0.00035145    -0.00098163
     6
  Step:    13            Position(A)                                  Velocity(au)
C        -0.04362551     0.01595721     0.01827416     0.00006090    -0.00000742    -0.00053891
N        -0.04993916    -0.07480133     1.30315528    -0.00010370    -0.00014563     0.00051248
H         0.95036056     0.05809025    -0.54070662    -0.00050522     0.00048887    -0.00028471
H         0.89323541    -0.04009951     1.87093905    -0.00013290     0.00060800     0.00025242
H        -0.87361633     0.07082440     1.83742208     0.00131680     0.00067548     0.00033120
H        -0.96909830     0.09072188    -0.60247407     0.00003673     0.00033976    -0.00099884
     6
  Step:    14            Position(A)                                  Velocity(au)
C        -0.04327472     0.01593070     0.01518966     0.00006625    -0.00000243    -0.00057929
N        -0.05043644    -0.07561962     1.30607708    -0.00007648    -0.00015186     0.00054631
H         0.94744089     0.06077768    -0.54229173    -0.00055219     0.00048828    -0.00029297
H         0.89190440    -0.03677428     1.87200602    -0.00034701     0.00060042     0.00013691
H        -0.86685319     0.07466424     1.83962299     0.00112908     0.00072359     0.00047652
H        -0.96888022     0.09255631    -0.60800432     0.00004353     0.00032685    -0.00100933
     6
  Step:    15            Position(A)                                  Velocity(au)
C        -0.04289662     0.01593052     0.01190033     0.00007061     0.00000215    -0.00061192
N        -0.05078064    -0.07647221     1.30916622    -0.00004829    -0.00015771     0.00057206
H         0.94428492     0.06346270    -0.54393017    -0.00058929     0.00048691    -0.00030362
H         0.88941734    -0.03349316     1.87244548    -0.00055005     0.00059068     0.00002544
H        -0.86119327     0.07878597     1.84266516     0.00091706     0.00077572     0.00063324
H        -0.96861929     0.09431815    -0.61357952     0.00005206     0.00031264    -0.00101296
     6
  Step:    16            Position(A)                                  Velocity(au)
C        -0.04249696     0.01595438     0.00844899     0.00007383     0.00000629    -0.00063648
N        -0.05096841    -0.07735690     1.31237867    -0.00002002    -0.00016306     0.00058970
H         0.94094948     0.06614130    -0.54563623    -0.00061535     0.00048473    -0.00031688
H         0.88584528    -0.03026765     1.87228630    -0.00073725     0.00057884    -0.00007908
H        -0.85675121     0.08320926     1.84659853     0.00068906     0.00083030     0.00079532
H        -0.96830673     0.09600018    -0.61916261     0.00006200     0.00029708    -0.00100968
     6
  Step:    17            Position(A)                                  Velocity(au)
C        -0.04208222     0.01599986     0.00487994     0.00007582     0.00000997    -0.00065280
N        -0.05100150    -0.07827073     1.31567059     0.00000736    -0.00016775     0.00059937
H         0.93749757     0.06880925    -0.54742536    -0.00062942     0.00048169    -0.00033290
H         0.88128548    -0.02710858     1.87157328    -0.00090386     0.00056509    -0.00017375
H        -0.85359296     0.08794419     1.85143751     0.00045449     0.00088538     0.00095592
H        -0.96793538     0.09759493    -0.62471630     0.00007306     0.00028016    -0.00099953
     6
  Step:    18            Position(A)                                  Velocity(au)
C        -0.04165947     0.01606450     0.00123809     0.00007647     0.00001319    -0.00066091
N        -0.05088709    -0.07920993     1.31899936     0.00003287    -0.00017166     0.00060142
H         0.93399686     0.07146212    -0.54931344    -0.00063088     0.00047781    -0.00035166
H         0.87586112    -0.02402565     1.87036702    -0.00104536     0.00054972    -0.00025579
H        -0.85173085     0.09298928     1.85715772     0.00022328     0.00093878     0.00110798
H        -0.96749970     0.09909491    -0.63020350     0.00008493     0.00026193    -0.00098266
     6
  Step:    19            Position(A)                                  Velocity(au)
C        -0.04123616     0.01614582    -0.00243211     0.00007576     0.00001596    -0.00066107
N        -0.05063783    -0.08016993     1.32232447     0.00005555    -0.00017466     0.00059638
H         0.93051779     0.07409550    -0.55131594    -0.00061955     0.00047312    -0.00037301
H         0.86972016    -0.02102674     1.86874337    -0.00115758     0.00053316    -0.00032257
H        -0.85112264     0.09833046     1.86369565     0.00000507     0.00098827     0.00124472
H        -0.96699575     0.10049282    -0.63558801     0.00009733     0.00024246    -0.00095940
     6
  Step:    20            Position(A)                                  Velocity(au)
C        -0.04081992     0.01624134    -0.00608775     0.00007369     0.00001827    -0.00065373
N        -0.05027145    -0.08114554     1.32560838     0.00007457    -0.00017668     0.00058492
H         0.92713112     0.07670519    -0.55344708    -0.00059571     0.00046774    -0.00039667
H         0.86303301    -0.01811729     1.86679229    -0.00123708     0.00051595    -0.00037187
H        -0.85167467     0.10394116     1.87095157    -0.00019156     0.00103180     0.00136033
H        -0.96642112     0.10178186    -0.64083543     0.00010999     0.00022190    -0.00093026
     6
  Step:    21            Position(A)                                  Velocity(au)
C        -0.04041820     0.01634867    -0.00968866     0.00007033     0.00002017    -0.00063960
N        -0.04981004    -0.08213112     1.32881729     0.00008928    -0.00017768     0.00056788
H         0.92390527     0.07928754    -0.55571913    -0.00056016     0.00046183    -0.00042229
H         0.85598820    -0.01529952     1.86461555    -0.00128150     0.00049876    -0.00040198
H        -0.85324903     0.10978371     1.87879571    -0.00035967     0.00106775     0.00145041
H        -0.96577479     0.10295600    -0.64591422     0.00012269     0.00020044    -0.00089601
     6
  Step:    22            Position(A)                                  Velocity(au)
C        -0.04003801     0.01646556    -0.01319867     0.00006580     0.00002167    -0.00061962
N        -0.04927891    -0.08312097     1.33192187     0.00009924    -0.00017773     0.00054618
H         0.92090346     0.08183970    -0.55814193    -0.00051417     0.00045567    -0.00044943
H         0.84878564    -0.01257223     1.86232318    -0.00128967     0.00048235    -0.00041187
H        -0.85567333     0.11581213     1.88707679    -0.00049455     0.00109513     0.00151240
H        -0.96505709     0.10401033    -0.65079704     0.00013524     0.00017831    -0.00085759
     6
  Step:    23            Position(A)                                  Velocity(au)
C        -0.03968562     0.01658996    -0.01658684     0.00006027     0.00002284    -0.00059489
N        -0.04870523    -0.08410973     1.33489786     0.00010430    -0.00017694     0.00052085
H         0.91818111     0.08436046    -0.56072254    -0.00045940     0.00044962    -0.00047768
H         0.84163049    -0.00992963     1.86003022    -0.00126172     0.00046756    -0.00040120
H        -0.85875483     0.12197565     1.89563308    -0.00059401     0.00111368     0.00154573
H        -0.96426919     0.10494106    -0.65546167     0.00014755     0.00015571    -0.00081610
     6
  Step:    24            Position(A)                                  Velocity(au)
C        -0.03936630     0.01672008    -0.01982831     0.00005394     0.00002372    -0.00056657
N        -0.04811658    -0.08509280     1.33772643     0.00010453    -0.00017549     0.00049290
H         0.91578378     0.08685046    -0.56346533    -0.00039774     0.00044408    -0.00050665
H         0.83472464    -0.00736157     1.85785204    -0.00119923     0.00045521    -0.00037045
H        -0.86229315     0.12822329     1.90430291    -0.00065791     0.00112380     0.00155148
H        -0.96341273     0.10574565    -0.65989187     0.00015957     0.00013288    -0.00077269
     6
  Step:    25            Position(A)                                  Velocity(au)
C        -0.03908418     0.01685448    -0.02290456     0.00004700     0.00002439    -0.00053579
N        -0.04753960    -0.08606660     1.34039415     0.00010022    -0.00017360     0.00046327
H         0.91374590     0.08931238    -0.56637215    -0.00033119     0.00043944    -0.00053600
H         0.82825801    -0.00485365     1.85589935    -0.00110496     0.00044600    -0.00032080
H        -0.86609114     0.13450697     1.91293349    -0.00068789     0.00112642     0.00153202
H        -0.96248982     0.10642276    -0.66407785     0.00017129     0.00010996    -0.00072850
     6
  Step:    26            Position(A)                                  Velocity(au)
C        -0.03884218     0.01699202    -0.02580328     0.00003966     0.00002489    -0.00050357
N        -0.04699893    -0.08702877     1.34289269     0.00009179    -0.00017149     0.00043277
H         0.91209048     0.09175103    -0.56944263    -0.00026163     0.00043607    -0.00056538
H         0.82240238    -0.00238793     1.85427453    -0.00098251     0.00044046    -0.00025399
H        -0.86996432     0.14078481     1.92138765    -0.00068680     0.00112282     0.00149047
H        -0.96150252     0.10697193    -0.66801596     0.00018275     0.00008705    -0.00068449
     6
  Step:    27            Position(A)                                  Velocity(au)
C        -0.03864209     0.01713195    -0.02851774     0.00003145     0.00002830    -0.00051577
N        -0.04651638    -0.08797815     1.34521816     0.00008058    -0.00017285     0.00043695
H         0.91082961     0.09417313    -0.57267436    -0.00021728     0.00048414    -0.00054846
H         0.81730613     0.00005612     1.85306822    -0.00085457     0.00039114    -0.00018078
H        -0.87374676     0.14702285     1.92954747    -0.00063942     0.00116982     0.00140641
H        -0.96045279     0.10739314    -0.67170775     0.00021673     0.00001965    -0.00060321
     6
  Step:    28            Position(A)                                  Velocity(au)
C        -0.03849192     0.01730726    -0.03154762     0.00002287     0.00003459    -0.00057387
N        -0.04610144    -0.08895392     1.34775915     0.00006700    -0.00017751     0.00047737
H         0.90967055     0.09714305    -0.57555110    -0.00019973     0.00057497    -0.00048560
H         0.81288468     0.00196832     1.85226109    -0.00072586     0.00030614    -0.00010724
H        -0.87708583     0.15381362     1.93705145    -0.00055001     0.00125685     0.00128160
H        -0.95908875     0.10719073    -0.67473417     0.00027204    -0.00008334    -0.00048417
     6
  Step:    29            Position(A)                                  Velocity(au)
C        -0.03838764     0.01751678    -0.03490276     0.00001492     0.00004061    -0.00063194
N        -0.04577093    -0.08995321     1.35052948     0.00005062    -0.00018171     0.00051866
H         0.90860734     0.10057036    -0.57807726    -0.00018210     0.00065329    -0.00042435
H         0.80923008     0.00346232     1.85187509    -0.00058071     0.00023787    -0.00002849
H        -0.87986625     0.16100678     1.94380672    -0.00044191     0.00132204     0.00114252
H        -0.95742599     0.10646588    -0.67709473     0.00032349    -0.00017193    -0.00036692
     6
  Step:    30            Position(A)                                  Velocity(au)
C        -0.03832603     0.01775860    -0.03857162     0.00000755     0.00004626    -0.00068724
N        -0.04553883    -0.09097368     1.35352402     0.00003196    -0.00018549     0.00055843
H         0.90764655     0.10440435    -0.58026773    -0.00016276     0.00072404    -0.00036595
H         0.80643013     0.00461223     1.85194442    -0.00042092     0.00018106     0.00005616
H        -0.88199765     0.16850807     1.94975059    -0.00031925     0.00137242     0.00099352
H        -0.95549321     0.10527974    -0.67881249     0.00036893    -0.00025113    -0.00025462
     6
  Step:    31            Position(A)                                  Velocity(au)
C        -0.03830384     0.01803049    -0.04253459     0.00000077     0.00005149    -0.00073855
N        -0.04541604    -0.09201309     1.35673080     0.00001159    -0.00018883     0.00059566
H         0.90679989     0.10861085    -0.58214115    -0.00014098     0.00078943    -0.00031093
H         0.80455574     0.00547295     1.85249879    -0.00025005     0.00013281     0.00014537
H        -0.88341152     0.17624754     1.95483980    -0.00018580     0.00141138     0.00083773
H        -0.95332898     0.10367712    -0.67992230     0.00040660    -0.00032316    -0.00014917
     6
  Step:    32            Position(A)                                  Velocity(au)
C        -0.03831751     0.01832996    -0.04676722    -0.00000534     0.00005624    -0.00078499
N        -0.04541019    -0.09306909     1.36013407    -0.00000987    -0.00019168     0.00062973
H         0.90608212     0.11316460    -0.58371809    -0.00011634     0.00085064    -0.00025957
H         0.80365538     0.00608605     1.85355758    -0.00007258     0.00009103     0.00023689
H        -0.88405947     0.18417007     1.95904680    -0.00004513     0.00144102     0.00067785
H        -0.95098115     0.10169362    -0.68046783     0.00043480    -0.00038930    -0.00005212
     6
  Step:    33            Position(A)                                  Velocity(au)
C        -0.03836307     0.01865430    -0.05124125    -0.00001068     0.00006048    -0.00082586
N        -0.04552547    -0.09413907     1.36371540    -0.00003177    -0.00019397     0.00066014
H         0.90550955     0.11804575    -0.58502021    -0.00008863     0.00090831    -0.00021210
H         0.80375070     0.00648258     1.85512620     0.00010628     0.00005396     0.00032796
H        -0.88391203     0.19223054     1.96235813     0.00009926     0.00146284     0.00051648
H        -0.94850637     0.09935924    -0.68050038     0.00045191    -0.00045027     0.00003511
     6
  Step:    34            Position(A)                                  Velocity(au)
C        -0.03843600     0.01900059    -0.05592511    -0.00001516     0.00006415    -0.00086057
N        -0.04576248    -0.09522004     1.36745430    -0.00005345    -0.00019564     0.00068653
H         0.90509931     0.12323677    -0.58607003    -0.00005786     0.00096265    -0.00016865
H         0.80483393     0.00668445     1.85719428     0.00028094     0.00002011     0.00041557
H        -0.88295875     0.20039132     1.96477397     0.00024387     0.00147800     0.00035619
H        -0.94596994     0.09670060    -0.68007849     0.00045643    -0.00050650     0.00011119
     6
  Step:    35            Position(A)                                  Velocity(au)
C        -0.03853116     0.01936571    -0.06078439    -0.00001865     0.00006723    -0.00088863
N        -0.04611817    -0.09630862     1.37132858    -0.00007423    -0.00019663     0.00070861
H         0.90486787     0.12872091    -0.58689043    -0.00002425     0.00101372    -0.00012933
H         0.80686614     0.00670558     1.85973454     0.00044569    -0.00001179     0.00049664
H        -0.88120769     0.20862057     1.96630804     0.00038523     0.00148753     0.00019957
H        -0.94344493     0.09374253    -0.67926741     0.00044704    -0.00055820     0.00017489
     6
  Step:    36            Position(A)                                  Velocity(au)
C        -0.03864285     0.01974635    -0.06578233    -0.00002105     0.00006969    -0.00090966
N        -0.04658586    -0.09740116     1.37531470    -0.00009346    -0.00019689     0.00072617
H         0.90483031     0.13448157    -0.58750469     0.00001182     0.00106143    -0.00009421
H         0.80977785     0.00655367     1.86270331     0.00059512    -0.00004275     0.00056831
H        -0.87868557     0.21689197     1.96698773     0.00051992     0.00149243     0.00004921
H        -0.94101104     0.09050874    -0.67813847     0.00042279    -0.00060549     0.00022522
     6
  Step:    37            Position(A)                                  Velocity(au)
C        -0.03876481     0.02013913    -0.07088042    -0.00002229     0.00007151    -0.00092348
N        -0.04715547    -0.09849382     1.37938804    -0.00011056    -0.00019641     0.00073906
H         0.90499908     0.14050135    -0.58793601     0.00004976     0.00110563    -0.00006326
H         0.81347118     0.00623112     1.86604201     0.00072442    -0.00007360     0.00062812
H        -0.87543731     0.22518450     1.96685416     0.00064466     0.00149374    -0.00009236
H        -0.93875249     0.08702245    -0.67676777     0.00038316    -0.00064844     0.00026147
     6
  Step:    38            Position(A)                                  Velocity(au)
C        -0.03889037     0.02054058    -0.07603934    -0.00002230     0.00007270    -0.00093006
N        -0.04781387    -0.09958272     1.38352338    -0.00012503    -0.00019523     0.00074726
H         0.90538303     0.14676171    -0.58820728     0.00008885     0.00114618    -0.00003641
H         0.81782389     0.00573618     1.86967977     0.00082973    -0.00010498     0.00067420
H        -0.87152537     0.23348285     1.96596193     0.00075639     0.00149264    -0.00022271
H        -0.93675530     0.08330658    -0.67523431     0.00032818    -0.00068714     0.00028335
     6
  Step:    39            Position(A)                                  Velocity(au)
C        -0.03901267     0.02094732    -0.08121990    -0.00002106     0.00007328    -0.00092960
N        -0.04854541    -0.10066420     1.38769534    -0.00013647    -0.00019340     0.00075084
H         0.90598685     0.15324338    -0.58834077     0.00012824     0.00118296    -0.00001350
H         0.82269524     0.00506405     1.87353710     0.00090838    -0.00013729     0.00070540
H        -0.86702851     0.24177818     1.96437834     0.00085244     0.00149042    -0.00033968
H        -0.93510417     0.07938349    -0.67361782     0.00025846    -0.00072175     0.00029099
     6
  Step:    40            Position(A)                                  Velocity(au)
C        -0.03912478     0.02135608    -0.08638414    -0.00001861     0.00007330    -0.00092251
N        -0.04933258    -0.10173495     1.39187891    -0.00014464    -0.00019103     0.00074999
H         0.90681006     0.15992594    -0.58835751     0.00016697     0.00121595     0.00000572
H         0.82793246     0.00420845     1.87752963     0.00095899    -0.00017070     0.00072132
H        -0.86203923     0.25006846     1.96218191     0.00093065     0.00148846    -0.00044148
H        -0.93387913     0.07527478    -0.67199617     0.00017525    -0.00075251     0.00028503
     6
  Step:    41            Position(A)                                  Velocity(au)
C        -0.03922003     0.02176385    -0.09149651    -0.00001502     0.00007281    -0.00090939
N        -0.05015672    -0.10279225     1.39605007    -0.00014942    -0.00018825     0.00074499
H         0.90784691     0.16678882    -0.58827707     0.00020414     0.00124526     0.00002155
H         0.83337815     0.00316244     1.88157240     0.00098149    -0.00020529     0.00072227
H        -0.85666122     0.25835931     1.95946030     0.00098945     0.00148827    -0.00052678
H        -0.93315192     0.07100066    -0.67044259     0.00008041    -0.00077978     0.00026663
     6
  Step:    42            Position(A)                                  Velocity(au)
C        -0.03929230     0.02216795    -0.09652486    -0.00001041     0.00007188    -0.00089099
N        -0.05099883    -0.10383418     1.40018639    -0.00015083    -0.00018523     0.00073623
H         0.90908644     0.17381200    -0.58811717     0.00023885     0.00127115     0.00003437
H         0.83887717     0.00191922     1.88558371     0.00097701    -0.00024098     0.00070923
H        -0.85100576     0.26666429     1.95630775     0.00102796     0.00149134    -0.00059477
H        -0.93298246     0.06657932    -0.66902299    -0.00002366    -0.00080403     0.00023734
     6
  Step:    43            Position(A)                                  Velocity(au)
C        -0.03933626     0.02256609    -0.10144126    -0.00000495     0.00007059    -0.00086817
N        -0.05184025    -0.10485965     1.40426747    -0.00014902    -0.00018212     0.00072415
H         0.91051279     0.18097671    -0.58789342     0.00027030     0.00129398     0.00004458
H         0.84428300     0.00047275     1.88948842     0.00094765    -0.00027762     0.00068366
H        -0.84518770     0.27500487     1.95282181     0.00104604     0.00149910    -0.00064526
H        -0.93341603     0.06202643    -0.66779350    -0.00013416    -0.00082581     0.00019911
     6
  Step:    44            Position(A)                                  Velocity(au)
C        -0.03934760     0.02295642    -0.10622263     0.00000117     0.00006902    -0.00084185
N        -0.05266341    -0.10586849     1.40827542    -0.00014423    -0.00017909     0.00070925
H         0.91210576     0.18826613    -0.58761918     0.00029781     0.00131419     0.00005260
H         0.84946273    -0.00118186     1.89322047     0.00089625    -0.00031501     0.00064739
H        -0.83932117     0.28340972     1.94910001     0.00104430     0.00151277    -0.00067863
H        -0.93448112     0.05735471    -0.66679883    -0.00024803    -0.00084570     0.00015410
     6