|===============================================================================
|
|  DFTB+ release 20.1
|
|  Copyright (C) 2006 - 2020  DFTB+ developers group
|
|===============================================================================
|
|  When publishing results obtained with DFTB+, please cite the following
|  reference:
|
|  * DFTB+, a software package for efficient approximate density functional
|    theory based atomistic simulations, J. Chem. Phys. 152, 124101 (2020).
|    [doi: 10.1063/1.5143190]
|
|  You should also cite additional publications crediting the parametrization
|  data you use. Please consult the documentation of the SK-files for the
|  references.
|
|===============================================================================

Reading input file 'dftb_in.hsd'
Parser version: 8

--------------------------------------------------------------------------------
Reading SK-files:
Done.


Processed input in HSD format written to 'dftb_pin.hsd'

Starting initialization...
--------------------------------------------------------------------------------
OpenMP threads:              1
Chosen random seed:          449654045
Mode:                        Static calculation
Self consistent charges:     Yes
SCC-tolerance:                 0.100000E-05
Max. scc iterations:                   1000
Shell resolved Hubbard:      No
Spin polarisation:           No
Nr. of up electrons:             6.000000
Nr. of down electrons:           6.000000
Periodic boundaries:         No
Electronic solver:           Relatively robust
Maximal SCC-cycles:                    1000
Initial charges:             Set automatically (system chrg:   0.100E+01)
Included shells:             C:  s, p
                             N:  s, p
                             H:  s
Spin coupling constants:     C   1(s)-1(s):  -0.455900E-01
                             C   1(s)-2(p):  -0.293000E-01
                             C   2(p)-1(s):  -0.293000E-01
                             C   2(p)-2(p):  -0.275500E-01
                             N   1(s)-1(s):  -0.468700E-01
                             N   1(s)-2(p):  -0.317000E-01
                             N   2(p)-1(s):  -0.317000E-01
                             N   2(p)-2(p):  -0.307200E-01
                             H   1(s)-1(s):  -0.792500E-01
Range separated hybrid:      Yes
  Screening parameter omega:   0.300000E+00
  Range separated algorithm:   MatrixBased
Extra options:
                             Mulliken analysis
                             Force calculation
Force type                   original
                             Eigenvector printing


REKS Calcuation:             Yes
SSR(2,2) Calcuation:         Yes
Energy Functional:           (PPS+OSS)/2
Number of Core Orbitals:                  5
Number of Active Orbitals:                2
Number of Basis:                         12
Number of States:                         2
State-Averaging Weight:          0.500000
                                 0.500000
State of Interest:                        1
Initial Guess:               Diagonalize H0 matrix
Newton-Raphson for FON opt:  Yes
NR max. Iterations:                      50
Level Shifting:              Yes
Shift Value:                     0.300000
W Scale Factor:              C  =    3.200000
                             N  =    3.200000
                             H  =    3.200000
Transition Dipole:           No
Gradient of Microstate:      No
CP-REKS Solver:              Preconditioned Conjugate-Gradient
CG max. Iterations:                     100
CG Tolerance:                  0.100000E-07
Memory for A and Hxc:        Direct Updating Without Saving
Non-Adiabatic Coupling:      Yes

--------------------------------------------------------------------------------

***  Geometry step: 0

  iSCC       reks energy        Diff energy         x_a       SCC error   
    1       -6.1691091745       0.0000000000     0.919473    0.88114901
    2       -6.1760042378      -0.0068950633     0.943998    0.05304716
    3       -6.1792897838      -0.0032855460     0.977476    0.02529582
    4       -6.1820481359      -0.0027583521     0.996584    0.01905510
    5       -6.1841859810      -0.0021378451     0.999503    0.01999794
    6       -6.1855138014      -0.0013278204     0.999898    0.01836386
    7       -6.1863260992      -0.0008122978     0.999971    0.01468990
    8       -6.1868444714      -0.0005183722     0.999989    0.01145770
    9       -6.1871871027      -0.0003426314     0.999994    0.00904678
   10       -6.1874176466      -0.0002305439     0.999997    0.00725114
   11       -6.1875739504      -0.0001563038     0.999998    0.00586414
   12       -6.1876802956      -0.0001063452     0.999998    0.00476205
   13       -6.1877528351      -0.0000725395     0.999999    0.00387400
   14       -6.1878024526      -0.0000496176     0.999999    0.00315471
   15       -6.1878365041      -0.0000340515     0.999999    0.00257135
   16       -6.1878599621      -0.0000234580     0.999999    0.00209819
   17       -6.1878761892      -0.0000162271     0.999999    0.00171437
   18       -6.1878874622      -0.0000112730     0.999999    0.00140290
   19       -6.1878953266      -0.0000078644     0.999999    0.00114993
   20       -6.1879008351      -0.0000055085     0.999999    0.00094424
   21       -6.1879047078      -0.0000038728     0.999999    0.00077675
   22       -6.1879074399      -0.0000027320     0.999999    0.00064013
   23       -6.1879093730      -0.0000019331     0.999999    0.00053015
   24       -6.1879107445      -0.0000013715     0.999999    0.00044201
   25       -6.1879117199      -0.0000009754     0.999999    0.00036925
   26       -6.1879124149      -0.0000006950     1.000000    0.00030900
   27       -6.1879129110      -0.0000004961     1.000000    0.00025898
   28       -6.1879132656      -0.0000003546     1.000000    0.00021737
   29       -6.1879135194      -0.0000002538     1.000000    0.00018267
   30       -6.1879137012      -0.0000001818     1.000000    0.00015368
   31       -6.1879138316      -0.0000001304     1.000000    0.00012942
   32       -6.1879139252      -0.0000000936     1.000000    0.00010908
   33       -6.1879139924      -0.0000000672     1.000000    0.00009201
   34       -6.1879140407      -0.0000000483     1.000000    0.00007767
   35       -6.1879140753      -0.0000000347     1.000000    0.00006560
   36       -6.1879141003      -0.0000000249     1.000000    0.00005543
   37       -6.1879141182      -0.0000000179     1.000000    0.00004686
   38       -6.1879141311      -0.0000000129     1.000000    0.00003994
   39       -6.1879141404      -0.0000000093     1.000000    0.00003405
   40       -6.1879141471      -0.0000000067     1.000000    0.00002901
   41       -6.1879141519      -0.0000000048     1.000000    0.00002471
   42       -6.1879141553      -0.0000000035     1.000000    0.00002104
   43       -6.1879141578      -0.0000000025     1.000000    0.00001793
   44       -6.1879141596      -0.0000000018     1.000000    0.00001528
   45       -6.1879141609      -0.0000000013     1.000000    0.00001301
   46       -6.1879141618      -0.0000000009     1.000000    0.00001108
   47       -6.1879141625      -0.0000000007     1.000000    0.00000943
   48       -6.1879141630      -0.0000000005     1.000000    0.00000802
   49       -6.1879141633      -0.0000000003     1.000000    0.00000682
   50       -6.1879141636      -0.0000000002     1.000000    0.00000580
   51       -6.1879141637      -0.0000000002     1.000000    0.00000493
   52       -6.1879141639      -0.0000000001     1.000000    0.00000419
   53       -6.1879141640      -0.0000000001     1.000000    0.00000356
   54       -6.1879141640      -0.0000000001     1.000000    0.00000303
   55       -6.1879141641      -0.0000000000     1.000000    0.00000257
   56       -6.1879141641      -0.0000000000     1.000000    0.00000219
   57       -6.1879141641      -0.0000000000     1.000000    0.00000186
   58       -6.1879141642      -0.0000000000     1.000000    0.00000158
   59       -6.1879141642      -0.0000000000     1.000000    0.00000134
   60       -6.1879141642      -0.0000000000     1.000000    0.00000114
   61       -6.1879141642      -0.0000000000     1.000000    0.00000097
  
--------------------------------------------------
 Final SA-REKS(2,2) energy:      -6.18791416
  
 State     Energy      FON(1)    FON(2)   Spin
  PPS   -6.20314868   1.999999  0.000001  0.00
  OSS   -6.17267964   1.000000  1.000000  0.00
 Trip   -6.20030493   1.000000  1.000000  1.00
--------------------------------------------------

 Lagrangian Wab:  -0.03263480 -0.03263474

--------------------------------------------------
 SSR: 2SI-2SA-REKS(2,2) Hamiltonian matrix
               PPS           OSS
   PPS    -6.20314868   -0.04612117
   OSS    -0.04612117   -6.17267964
--------------------------------------------------

----------------------------------------------------------------
 SSR: 2SI-2SA-REKS(2,2) states
                    E_n       C_{PPS}    C_{OSS}
 SSR state  1   -6.23648630  -0.810447  -0.585813
 SSR state  2   -6.13934203   0.585813  -0.810447
----------------------------------------------------------------

 unrelaxed SSR FONs for S0:  1.656823  0.343177

Total Energy:                       -6.2364863024 H         -169.7034 eV
Extrapolated to 0:                  -6.2364863024 H         -169.7034 eV

----------------------------------------------------------------------------------
 Solving CP-REKS equation for  1 state vector...
----------------------------------------------------------------------------------
  CG solver: Constructing Y initial guess
  CG solver: Iteration    1    eps =    0.003692655493
  CG solver: Iteration    2    eps =    0.000149111729
  CG solver: Iteration    3    eps =    0.000009321450
  CG solver: Iteration    4    eps =    0.000001528191
  CG solver: Iteration    5    eps =    0.000000354560
  CG solver: Iteration    6    eps =    0.000000053922
  CG solver: Iteration    7    eps =    0.000000003139
  Convergence reached in CG solver after    7 iterations
  CG solver: Calculating converged R, Z, Q2 matrix
----------------------------------------------------------------------------------

----------------------------------------------------------------------------------
 Solving CP-REKS equation for SI between  1 and  2 state vectors...
----------------------------------------------------------------------------------
  CG solver: Constructing Y initial guess
  CG solver: Iteration    1    eps =    0.005234025372
  CG solver: Iteration    2    eps =    0.000702501557
  CG solver: Iteration    3    eps =    0.000030675413
  CG solver: Iteration    4    eps =    0.000003001818
  CG solver: Iteration    5    eps =    0.000000643871
  CG solver: Iteration    6    eps =    0.000000169294
  CG solver: Iteration    7    eps =    0.000000011398
  CG solver: Iteration    8    eps =    0.000000001080
  Convergence reached in CG solver after    8 iterations
  CG solver: Calculating converged R, Z, Q2 matrix
----------------------------------------------------------------------------------

--------------------------------------------------
 Gradient Information
--------------------------------------------------
           1 st state (SSR)
    -0.03468725     0.11260247    -0.02510991
    -0.03523758     0.01205812     0.15162220
     0.02427131    -0.06657103    -0.04826937
     0.05729660     0.00344063     0.00742370
     0.00275695    -0.01316164    -0.01936839
    -0.01440003    -0.04836854    -0.06629822

           2 st state (SSR)
    -0.01402268     0.08183598     0.07012978
    -0.03385680    -0.02234086     0.04861206
     0.03086012    -0.02762164    -0.05506603
     0.05697336    -0.00059209     0.00260598
    -0.01933371     0.02346032    -0.00977585
    -0.02062029    -0.05474172    -0.05650593
--------------------------------------------------
 Coupling Information
--------------------------------------------------
 between  1 and  2 states
--------------------------------------------------
 g vector - difference gradient
    -0.00473027     0.02332644    -0.07149205
     0.00510807    -0.02616483     0.05178867
    -0.00450863    -0.01050923     0.00802944
    -0.00021841     0.01224863     0.00375280
     0.00250004     0.00193624     0.00564897
     0.00184920    -0.00083725     0.00227217

 h vector - derivative coupling
    -0.00931889     0.00849566    -0.02653555
    -0.00241435     0.02675615     0.03713557
    -0.00198021    -0.01703827     0.00092668
     0.00024235    -0.00192240     0.00129726
     0.01080650    -0.01992364    -0.00691709
     0.00266459     0.00363249    -0.00590687

 G vector - GDV
    -0.01033229     0.01538324    -0.04761984
    -0.00069039     0.01719949     0.05150507
    -0.00329441    -0.01947470     0.00339833
     0.00016162     0.00201636     0.00240886
     0.01104533    -0.01831098    -0.00479627
     0.00311013     0.00318659    -0.00489615

 H vector - DCV - non-adiabatic coupling
     0.01614848    -0.20057528     0.61312641
    -0.05772414     0.34213580    -0.38631112
     0.03767633     0.04771178    -0.07549202
     0.00291737    -0.12593142    -0.03249341
     0.01045395    -0.08325275    -0.07754911
    -0.00947199     0.01991187    -0.04128074
--------------------------------------------------


--------------------------------------------------------------------------------
DFTB+ running times                          cpu [s]             wall clock [s]
--------------------------------------------------------------------------------
SCC                                    +     0.03  ( 66.7%)      0.04  ( 64.8%)
Post-SCC processing                    +     0.01  ( 29.3%)      0.01  ( 27.8%)
  Force calculation                          0.01  ( 28.7%)      0.01  ( 25.9%)
--------------------------------------------------------------------------------
Missing                                +     0.00  (  4.0%)      0.00  (  7.4%)
Total                                  =     0.05  (100.0%)      0.05  (100.0%)
--------------------------------------------------------------------------------
