|===============================================================================
|
|  DFTB+ release 20.1
|
|  Copyright (C) 2006 - 2020  DFTB+ developers group
|
|===============================================================================
|
|  When publishing results obtained with DFTB+, please cite the following
|  reference:
|
|  * DFTB+, a software package for efficient approximate density functional
|    theory based atomistic simulations, J. Chem. Phys. 152, 124101 (2020).
|    [doi: 10.1063/1.5143190]
|
|  You should also cite additional publications crediting the parametrization
|  data you use. Please consult the documentation of the SK-files for the
|  references.
|
|===============================================================================

Reading input file 'dftb_in.hsd'
Parser version: 8

--------------------------------------------------------------------------------
Reading SK-files:
Done.


Processed input in HSD format written to 'dftb_pin.hsd'

Starting initialization...
--------------------------------------------------------------------------------
OpenMP threads:              1
Chosen random seed:          452098616
Mode:                        Static calculation
Self consistent charges:     Yes
SCC-tolerance:                 0.100000E-05
Max. scc iterations:                   1000
Shell resolved Hubbard:      No
Spin polarisation:           No
Nr. of up electrons:             6.000000
Nr. of down electrons:           6.000000
Periodic boundaries:         No
Electronic solver:           Relatively robust
Maximal SCC-cycles:                    1000
Initial charges:             Set automatically (system chrg:   0.100E+01)
Included shells:             C:  s, p
                             N:  s, p
                             H:  s
Spin coupling constants:     C   1(s)-1(s):  -0.455900E-01
                             C   1(s)-2(p):  -0.293000E-01
                             C   2(p)-1(s):  -0.293000E-01
                             C   2(p)-2(p):  -0.275500E-01
                             N   1(s)-1(s):  -0.468700E-01
                             N   1(s)-2(p):  -0.317000E-01
                             N   2(p)-1(s):  -0.317000E-01
                             N   2(p)-2(p):  -0.307200E-01
                             H   1(s)-1(s):  -0.792500E-01
Range separated hybrid:      Yes
  Screening parameter omega:   0.300000E+00
  Range separated algorithm:   MatrixBased
Extra options:
                             Mulliken analysis
                             Force calculation
Force type                   original
                             Eigenvector printing


REKS Calcuation:             Yes
SSR(2,2) Calcuation:         Yes
Energy Functional:           (PPS+OSS)/2
Number of Core Orbitals:                  5
Number of Active Orbitals:                2
Number of Basis:                         12
Number of States:                         2
State-Averaging Weight:          0.500000
                                 0.500000
State of Interest:                        1
Initial Guess:               Diagonalize H0 matrix
Newton-Raphson for FON opt:  Yes
NR max. Iterations:                      50
Level Shifting:              Yes
Shift Value:                     0.300000
W Scale Factor:              C  =    3.200000
                             N  =    3.200000
                             H  =    3.200000
Transition Dipole:           No
Gradient of Microstate:      No
CP-REKS Solver:              Preconditioned Conjugate-Gradient
CG max. Iterations:                     100
CG Tolerance:                  0.100000E-07
Memory for A and Hxc:        Direct Updating Without Saving
Non-Adiabatic Coupling:      Yes

--------------------------------------------------------------------------------

***  Geometry step: 0

  iSCC       reks energy        Diff energy         x_a       SCC error   
    1       -6.2221764818       0.0000000000     0.975511    1.00206683
    2       -6.2329427043      -0.0107662226     0.984602    0.07205387
    3       -6.2366323341      -0.0036896298     0.990934    0.03337565
    4       -6.2385867021      -0.0019543680     0.994389    0.01911949
    5       -6.2396831747      -0.0010964726     0.996161    0.01184493
    6       -6.2403015023      -0.0006183276     0.997103    0.00737825
    7       -6.2406537525      -0.0003522502     0.997635    0.00448424
    8       -6.2408583877      -0.0002046352     0.997954    0.00368182
    9       -6.2409803733      -0.0001219855     0.998154    0.00318549
   10       -6.2410552330      -0.0000748597     0.998285    0.00272448
   11       -6.2411025733      -0.0000473403     0.998373    0.00231971
   12       -6.2411333951      -0.0000308218     0.998434    0.00197268
   13       -6.2411540034      -0.0000206083     0.998476    0.00167799
   14       -6.2411681037      -0.0000141003     0.998507    0.00142851
   15       -6.2411779363      -0.0000098326     0.998528    0.00121733
   16       -6.2411848966      -0.0000069603     0.998544    0.00103836
   17       -6.2411898806      -0.0000049840     0.998556    0.00088647
   18       -6.2411934800      -0.0000035993     0.998565    0.00075737
   19       -6.2411960954      -0.0000026154     0.998571    0.00064749
   20       -6.2411980042      -0.0000019088     0.998576    0.00055384
   21       -6.2411994015      -0.0000013973     0.998580    0.00047396
   22       -6.2412004265      -0.0000010250     0.998583    0.00040574
   23       -6.2412011794      -0.0000007529     0.998585    0.00034746
   24       -6.2412017330      -0.0000005536     0.998587    0.00029762
   25       -6.2412021402      -0.0000004072     0.998588    0.00025499
   26       -6.2412024398      -0.0000002996     0.998589    0.00021850
   27       -6.2412026603      -0.0000002205     0.998590    0.00018726
   28       -6.2412028226      -0.0000001623     0.998591    0.00016050
   29       -6.2412029421      -0.0000001195     0.998591    0.00013758
   30       -6.2412030300      -0.0000000879     0.998592    0.00011795
   31       -6.2412030947      -0.0000000647     0.998592    0.00010112
   32       -6.2412031423      -0.0000000476     0.998592    0.00008670
   33       -6.2412031773      -0.0000000350     0.998593    0.00007434
   34       -6.2412032031      -0.0000000258     0.998593    0.00006374
   35       -6.2412032220      -0.0000000190     0.998593    0.00005465
   36       -6.2412032360      -0.0000000139     0.998593    0.00004686
   37       -6.2412032463      -0.0000000103     0.998593    0.00004019
   38       -6.2412032538      -0.0000000075     0.998593    0.00003446
   39       -6.2412032594      -0.0000000056     0.998594    0.00002955
   40       -6.2412032634      -0.0000000041     0.998594    0.00002534
   41       -6.2412032664      -0.0000000030     0.998594    0.00002173
   42       -6.2412032686      -0.0000000022     0.998594    0.00001863
   43       -6.2412032703      -0.0000000016     0.998594    0.00001598
   44       -6.2412032715      -0.0000000012     0.998594    0.00001370
   45       -6.2412032723      -0.0000000009     0.998594    0.00001175
   46       -6.2412032730      -0.0000000006     0.998594    0.00001008
   47       -6.2412032735      -0.0000000005     0.998594    0.00000864
   48       -6.2412032738      -0.0000000003     0.998594    0.00000741
   49       -6.2412032741      -0.0000000003     0.998594    0.00000636
   50       -6.2412032743      -0.0000000002     0.998594    0.00000545
   51       -6.2412032744      -0.0000000001     0.998594    0.00000467
   52       -6.2412032745      -0.0000000001     0.998594    0.00000401
   53       -6.2412032746      -0.0000000001     0.998594    0.00000344
   54       -6.2412032746      -0.0000000001     0.998594    0.00000295
   55       -6.2412032747      -0.0000000000     0.998594    0.00000253
   56       -6.2412032747      -0.0000000000     0.998594    0.00000217
   57       -6.2412032747      -0.0000000000     0.998594    0.00000186
   58       -6.2412032747      -0.0000000000     0.998594    0.00000159
   59       -6.2412032747      -0.0000000000     0.998594    0.00000137
   60       -6.2412032748      -0.0000000000     0.998594    0.00000117
   61       -6.2412032748      -0.0000000000     0.998594    0.00000101
   62       -6.2412032748      -0.0000000000     0.998594    0.00000086
  
--------------------------------------------------
 Final SA-REKS(2,2) energy:      -6.24120327
  
 State     Energy      FON(1)    FON(2)   Spin
  PPS   -6.33986714   1.997188  0.002812  0.00
  OSS   -6.14253941   1.000000  1.000000  0.00
 Trip   -6.23688731   1.000000  1.000000  1.00
--------------------------------------------------

 Lagrangian Wab:   0.00838760  0.00838729

--------------------------------------------------
 SSR: 2SI-2SA-REKS(2,2) Hamiltonian matrix
               PPS           OSS
   PPS    -6.33986714    0.01140874
   OSS     0.01140874   -6.14253941
--------------------------------------------------

----------------------------------------------------------------
 SSR: 2SI-2SA-REKS(2,2) states
                    E_n       C_{PPS}    C_{OSS}
 SSR state  1   -6.34052456  -0.998344   0.057529
 SSR state  2   -6.14188199  -0.057529  -0.998344
----------------------------------------------------------------

 unrelaxed SSR FONs for S0:  1.993888  0.006112

Total Energy:                       -6.3405245593 H         -172.5345 eV
Extrapolated to 0:                  -6.3405245593 H         -172.5345 eV

----------------------------------------------------------------------------------
 Solving CP-REKS equation for  1 state vector...
----------------------------------------------------------------------------------
  CG solver: Constructing Y initial guess
  CG solver: Iteration    1    eps =    0.000775431173
  CG solver: Iteration    2    eps =    0.000247708899
  CG solver: Iteration    3    eps =    0.000017600818
  CG solver: Iteration    4    eps =    0.000005398891
  CG solver: Iteration    5    eps =    0.000000971839
  CG solver: Iteration    6    eps =    0.000000174243
  CG solver: Iteration    7    eps =    0.000000023240
  CG solver: Iteration    8    eps =    0.000000000778
  Convergence reached in CG solver after    8 iterations
  CG solver: Calculating converged R, Z, Q2 matrix
----------------------------------------------------------------------------------

----------------------------------------------------------------------------------
 Solving CP-REKS equation for SI between  1 and  2 state vectors...
----------------------------------------------------------------------------------
  CG solver: Constructing Y initial guess
  CG solver: Iteration    1    eps =    0.004925299275
  CG solver: Iteration    2    eps =    0.005408591270
  CG solver: Iteration    3    eps =    0.000845649184
  CG solver: Iteration    4    eps =    0.000026059226
  CG solver: Iteration    5    eps =    0.000001879401
  CG solver: Iteration    6    eps =    0.000000824890
  CG solver: Iteration    7    eps =    0.000000123697
  CG solver: Iteration    8    eps =    0.000000005840
  Convergence reached in CG solver after    8 iterations
  CG solver: Calculating converged R, Z, Q2 matrix
----------------------------------------------------------------------------------

--------------------------------------------------
 Gradient Information
--------------------------------------------------
           1 st state (SSR)
    -0.14185761    -0.01603368     0.00230967
     0.02879842     0.07839622     0.05058144
     0.08534952    -0.01891689    -0.02287528
    -0.00109425    -0.03845828     0.01123802
     0.01490786    -0.03461018    -0.03473816
     0.01389607     0.02962282    -0.00651569

           2 st state (SSR)
    -0.03986491    -0.00293264     0.04008419
    -0.02480912     0.07972010    -0.00754372
     0.04399559    -0.03130519    -0.00875792
     0.01301841    -0.02755240     0.00399821
     0.00611282    -0.04045599    -0.04088228
     0.00154722     0.02252611     0.01310151
--------------------------------------------------
 Coupling Information
--------------------------------------------------
 between  1 and  2 states
--------------------------------------------------
 g vector - difference gradient
    -0.05329956     0.00026050    -0.01690759
     0.02771163    -0.00383286     0.02860991
     0.02338106     0.00450360    -0.00824579
    -0.00759364    -0.00510027     0.00394701
     0.00457169     0.00339233     0.00308389
     0.00522882     0.00077670    -0.01048742

 h vector - derivative coupling
    -0.01697976     0.05927981     0.01820872
     0.00630673    -0.02738431    -0.00558946
     0.02219377    -0.01497700    -0.00985950
    -0.00424012     0.00336420     0.00262024
     0.00125287     0.00389127    -0.00007469
    -0.00853349    -0.02417397    -0.00530531

 G vector - GDV
    -0.05099635    -0.00655052    -0.01888726
     0.02680377    -0.00066194     0.02906258
     0.02067697     0.00619415    -0.00705868
    -0.00705633    -0.00545294     0.00361990
     0.00439752     0.00292290     0.00307206
     0.00617443     0.00354835    -0.00980860

 H vector - DCV - non-adiabatic coupling
    -0.11573415     0.29659984     0.08128203
     0.04756351    -0.13916111    -0.01140809
     0.12450793    -0.07229344    -0.05407403
    -0.02559526     0.01387457     0.01538582
     0.00890902     0.02142128     0.00140976
    -0.03965105    -0.12044114    -0.03259549
--------------------------------------------------


--------------------------------------------------------------------------------
DFTB+ running times                          cpu [s]             wall clock [s]
--------------------------------------------------------------------------------
SCC                                    +     0.03  ( 56.9%)      0.03  ( 52.8%)
Post-SCC processing                    +     0.02  ( 40.2%)      0.02  ( 37.7%)
  Force calculation                          0.02  ( 39.8%)      0.02  ( 35.8%)
--------------------------------------------------------------------------------
Missing                                +     0.00  (  2.9%)      0.00  (  9.4%)
Total                                  =     0.05  (100.0%)      0.05  (100.0%)
--------------------------------------------------------------------------------
