    14
  Step:   600            Position(A)                                  Velocity(au)
C        -5.51804585    -0.12515039    -0.65374217     0.00060728     0.00002869    -0.00007444
C        -4.73712380    -0.71612765     0.27374814     0.00007575    -0.00038033     0.00008598
H        -5.44784619     0.93448106    -1.03836020     0.00243750     0.00150423    -0.00132558
H        -6.43316987    -0.73820372    -1.02407928    -0.00086523     0.00066069     0.00153965
H        -4.59819685    -1.84379215     0.38272713     0.00095733    -0.00152609     0.00304935
C        -3.48035536     0.00707714     0.21723820    -0.00071330     0.00056382     0.00023098
C        -2.36758550     0.34196023     1.03921844    -0.00027578    -0.00005988    -0.00011507
H        -3.36589350     0.44269481    -0.77804781     0.00130116    -0.00084047    -0.00195807
H        -2.38623530     0.01193233     2.10837709     0.00129036    -0.00182366     0.00079464
C        -1.45016228     1.20150393     0.34131755    -0.00023213    -0.00025354    -0.00069867
H        -0.45113868     1.24355205     0.72530589    -0.00036625     0.00080785     0.00058207
N        -1.76078097     2.13057586    -0.56380024     0.00005636    -0.00007890     0.00001967
H        -0.92609229     2.17152363    -1.20087927    -0.00016208     0.00166273     0.00323723
H        -2.72985055     2.36023914    -0.83827051     0.00103723     0.00185774     0.00061408
