    14
  Step:     0            Position(A)                                  Velocity(au)
C        -6.03016992    -0.81427905    -0.18806038    -0.00034280    -0.00020502    -0.00011886
C        -4.71400133    -0.69075067     0.17204842    -0.00014691    -0.00003059     0.00001437
H        -6.68352543     0.07827029    -0.45566466     0.00119516     0.00061554    -0.00020342
H        -6.61573688    -1.70964308     0.04307488    -0.00033307     0.00041741     0.00054637
H        -4.26155112    -1.60861735     0.55450946     0.00047429     0.00053027    -0.00063808
C        -3.90856054     0.46837557    -0.03658265     0.00029617     0.00005361     0.00013632
C        -2.56528031     0.46550936     0.21652702     0.00001324     0.00000898    -0.00002209
H        -4.25694364     1.42520751    -0.46455831     0.00085936    -0.00099567    -0.00079964
H        -1.97469509    -0.35962056     0.64770868    -0.00008874     0.00056962     0.00017101
C        -1.78459851     1.69494092     0.04914337     0.00026979     0.00012004     0.00028830
H        -2.41526862     2.52039394    -0.33141517    -0.00018754    -0.00075443     0.00062356
N        -0.52579520     1.80681425     0.13317065    -0.00003692     0.00002418    -0.00013960
H        -0.03813560     2.70312723     0.05091338    -0.00126239     0.00029345    -0.00098536
H         0.01531631     1.09241854     0.57959864    -0.00121044    -0.00038075    -0.00032577
    14
  Step:     1            Position(A)                                  Velocity(au)
C        -6.03421258    -0.81638464    -0.18933306    -0.00039247    -0.00017849    -0.00011326
C        -4.71552696    -0.69110144     0.17217596    -0.00013263    -0.00003233     0.00000796
H        -6.66923961     0.08381517    -0.45785007     0.00140105     0.00039978    -0.00019910
H        -6.61898889    -1.70521057     0.04859433    -0.00027186     0.00038190     0.00046406
H        -4.25586996    -1.60251407     0.54777294     0.00056568     0.00056876    -0.00058499
C        -3.90567797     0.46894767    -0.03517625     0.00023013     0.00004864     0.00012098
C        -2.56448763     0.46578386     0.21642954     0.00013165     0.00004168     0.00000449
H        -4.24825523     1.41356151    -0.47318954     0.00071805    -0.00110676    -0.00078649
H        -1.97648308    -0.35361819     0.64916750    -0.00022918     0.00051266     0.00010191
C        -1.78258195     1.69608375     0.05218571     0.00009659     0.00008731     0.00026816
H        -2.41641600     2.51223638    -0.32439377    -0.00003011    -0.00071611     0.00065199
N        -0.52557893     1.80719319     0.13169675     0.00007577     0.00004523    -0.00013072
H        -0.05236479     2.70598543     0.04007648    -0.00131895     0.00023853    -0.00099215
H         0.00259954     1.08758046     0.57626851    -0.00109245    -0.00051146    -0.00027403
    14
  Step:     2            Position(A)                                  Velocity(au)
C        -6.03875591    -0.81818386    -0.19053826    -0.00043348    -0.00014965    -0.00010632
C        -4.71690292    -0.69145800     0.17222254    -0.00011978    -0.00003174    -0.00000037
H        -6.65287484     0.08701614    -0.46002046     0.00156967     0.00019468    -0.00020288
H        -6.62168433    -1.70128820     0.05322715    -0.00023210     0.00032413     0.00038481
H        -4.24917569    -1.59617471     0.54171159     0.00065850     0.00057435    -0.00051585
C        -3.90352601     0.46943956    -0.03393604     0.00016323     0.00003869     0.00010620
C        -2.56240024     0.46642112     0.21662517     0.00024854     0.00007532     0.00003116
H        -4.24123491     1.40099510    -0.48176425     0.00055450    -0.00116166    -0.00079100
H        -1.97970884    -0.34840504     0.64993809    -0.00034804     0.00042395     0.00004682
C        -1.78248537     1.69685095     0.05500985    -0.00007711     0.00005157     0.00024879
H        -2.41592732     2.50472761    -0.31715158     0.00010651    -0.00063329     0.00066237
N        -0.52413768     1.80780366     0.13031080     0.00018444     0.00006539    -0.00012332
H        -0.06699007     2.70834555     0.02920831    -0.00133184     0.00020801    -0.00099185
H        -0.00858321     1.08122941     0.57360373    -0.00093547    -0.00065026    -0.00020857
    14
  Step:     3            Position(A)                                  Velocity(au)
C        -6.04369587    -0.81965858    -0.19165894    -0.00046433    -0.00011992    -0.00009760
C        -4.71814736    -0.69179585     0.17216783    -0.00010869    -0.00002911    -0.00001043
H        -6.63490007     0.08807427    -0.46228854     0.00169040     0.00001583    -0.00021913
H        -6.62406643    -1.69811965     0.05701269    -0.00021447     0.00024518     0.00030929
H        -4.24146407    -1.58994900     0.53648764     0.00075001     0.00055033    -0.00043355
C        -3.90210696     0.46979408    -0.03285297     0.00009667     0.00002345     0.00009242
C        -2.55905040     0.46743172     0.21711122     0.00036115     0.00010988     0.00005730
H        -4.23612455     1.38814794    -0.49049414     0.00036990    -0.00115819    -0.00081557
H        -1.98409712    -0.34434343     0.65019169    -0.00043902     0.00030185     0.00000832
C        -1.78426884     1.69721195     0.05762848    -0.00024321     0.00001333     0.00023090
H        -2.41408595     2.49838202    -0.30990310     0.00021301    -0.00050220     0.00065216
N        -0.52154388     1.80862362     0.12899891     0.00028421     0.00008246    -0.00011689
H        -0.08150144     2.71053606     0.01837787    -0.00129694     0.00021107    -0.00098603
H        -0.01786556     1.07335467     0.57170565    -0.00075159    -0.00078149    -0.00013915
    14
  Step:     4            Position(A)                                  Velocity(au)
C        -6.04891401    -0.82080738    -0.19267350    -0.00048397    -0.00009091    -0.00008673
C        -4.71928081    -0.69209476     0.17199446    -0.00009940    -0.00002485    -0.00002186
H        -6.61589406     0.08736235    -0.46481426     0.00175415    -0.00012144    -0.00025198
H        -6.62637622    -1.69592437     0.05999351    -0.00021785     0.00014842     0.00023740
H        -4.23276770    -1.58413512     0.53222676     0.00083625     0.00050268    -0.00034180
C        -3.90141114     0.46995251    -0.03191416     0.00003121     0.00000293     0.00007985
C        -2.55449935     0.46882503     0.21787862     0.00046720     0.00014518     0.00008241
H        -4.23314255     1.37565755    -0.49960648     0.00016749    -0.00109932    -0.00086034
H        -1.98931334    -0.34180148     0.65012018    -0.00049789     0.00014725    -0.00001265
C        -1.78780607     1.69714264     0.06006125    -0.00039440    -0.00002676     0.00021502
H        -2.41126736     2.49374099    -0.30288435     0.00028250    -0.00032221     0.00062022
N        -0.51792006     1.80960767     0.12775363     0.00037099     0.00009456    -0.00011082
H        -0.09536316     2.71296317     0.00763695    -0.00121396     0.00025186    -0.00097612
H        -0.02502557     1.06413282     0.57055955    -0.00055402    -0.00088796    -0.00007635
    14
  Step:     5            Position(A)                                  Velocity(au)
C        -6.05428364    -0.82164733    -0.19355629    -0.00049201    -0.00006431    -0.00007337
C        -4.72032191    -0.69233939     0.17168963    -0.00009144    -0.00001933    -0.00003420
H        -6.59652460     0.08541743    -0.46780106     0.00175414    -0.00020316    -0.00030509
H        -6.62883231    -1.69487278     0.06220634    -0.00023933     0.00003936     0.00016821
H        -4.22316946    -1.57895192     0.52901009     0.00091218     0.00043953    -0.00024486
C        -3.90142409     0.46985822    -0.03110604    -0.00003324    -0.00002255     0.00006837
C        -2.54882960     0.47060786     0.21891403     0.00056529     0.00018094     0.00010624
H        -4.23246047     1.36409827    -0.50931571    -0.00004731    -0.00099380    -0.00092256
H        -1.99498944    -0.34112213     0.64991503    -0.00052300    -0.00003586    -0.00001736
C        -1.79289716     1.69662660     0.06233248    -0.00052486    -0.00006793     0.00020145
H        -2.40790582     2.49133317    -0.29633452     0.00031183    -0.00009699     0.00056743
N        -0.51342781     1.81069236     0.12657457     0.00044183     0.00010045    -0.00010450
H        -0.10805908     2.71604596    -0.00297658    -0.00108674     0.00032802    -0.00096306
H        -0.02998573     1.05392875     0.57003534    -0.00035497    -0.00095394    -0.00002980
    14
  Step:     6            Position(A)                                  Velocity(au)
C        -6.05967757    -0.82221433    -0.19427859    -0.00048884    -0.00004174    -0.00005737
C        -4.72128129    -0.69251773     0.17124637    -0.00008377    -0.00001269    -0.00004685
H        -6.57751881     0.08291794    -0.47148872     0.00168710    -0.00021892    -0.00038099
H        -6.63161209    -1.69506327     0.06367348    -0.00027447    -0.00007463     0.00010018
H        -4.21281194    -1.57451953     0.52686988     0.00097222     0.00037018    -0.00014717
C        -3.90213834     0.46945920    -0.03041835    -0.00009791    -0.00005254     0.00005752
C        -2.54213262     0.47278333     0.22020285     0.00065524     0.00021676     0.00012884
H        -4.23417754     1.35391625    -0.51978931    -0.00026703    -0.00085582    -0.00099647
H        -2.00075487    -0.34258590     0.64974043    -0.00051562    -0.00023993    -0.00000959
C        -1.79928828     1.69565650     0.06446827    -0.00063078    -0.00010929     0.00019019
H        -2.40444553     2.49161904    -0.29047074     0.00030280     0.00016415     0.00049718
N        -0.50825414     1.81180514     0.12546755     0.00049512     0.00009979    -0.00009746
H        -0.11913772     2.72013916    -0.01343183    -0.00092296     0.00043013    -0.00094700
H        -0.03279117     1.04326359     0.56990764    -0.00016400    -0.00096778    -0.00000662
    14
  Step:     7            Position(A)                                  Velocity(au)
C        -6.06497800    -0.82256037    -0.19481127    -0.00047581    -0.00002439    -0.00003882
C        -4.72215454    -0.69261710     0.17066461    -0.00007471    -0.00000470    -0.00005921
H        -6.55961609     0.08062821    -0.47613601     0.00155450    -0.00016470    -0.00048038
H        -6.63483684    -1.69650548     0.06439806    -0.00031784    -0.00018512     0.00003156
H        -4.20190034    -1.57085354     0.52579038     0.00101081     0.00030385    -0.00005281
C        -3.90356601     0.46870891    -0.02984775    -0.00016483    -0.00008650     0.00004656
C        -2.53449489     0.47534988     0.22173269     0.00073779     0.00025207     0.00015053
H        -4.23830226     1.34537549    -0.53111539    -0.00048278    -0.00070337    -0.00107362
H        -2.00626959    -0.34637098     0.64970513    -0.00047979    -0.00045397     0.00000445
C        -1.80669674     1.69423575     0.06649317    -0.00071070    -0.00014966     0.00018094
H        -2.40128155     2.49492433    -0.28545766     0.00026242     0.00044593     0.00041552
N        -0.50259607     1.81287543     0.12444239     0.00053066     0.00009325    -0.00008947
H        -0.12825060     2.72545590    -0.02369404    -0.00073308     0.00054252    -0.00092714
H        -0.03357346     1.03275665     0.56989051     0.00001285    -0.00092373    -0.00001058
    14
  Step:     8            Position(A)                                  Velocity(au)
C        -6.07008685    -0.82274784    -0.19512784    -0.00045504    -0.00001279    -0.00001813
C        -4.72291571    -0.69262065     0.16995104    -0.00006243     0.00000486    -0.00007068
H        -6.54351111     0.07931475    -0.48199792     0.00136348    -0.00004550    -0.00060142
H        -6.63856535    -1.69911317     0.06436390    -0.00036374    -0.00028352    -0.00003912
H        -4.19069854    -1.56787223     0.52571453     0.00102320     0.00024846     0.00003497
C        -3.90574430     0.46756682    -0.02939980    -0.00023547    -0.00012361     0.00003474
C        -2.52599215     0.47829788     0.22349603     0.00081316     0.00028567     0.00017175
H        -4.24473917     1.33852876    -0.54327674    -0.00068523    -0.00055558    -0.00114364
H        -2.01125117    -0.35251741     0.64983768    -0.00042160    -0.00066426     0.00001718
C        -1.81483626     1.69238239     0.06842661    -0.00076515    -0.00018723     0.00017305
H        -2.39870466     2.50137471    -0.28138039     0.00020192     0.00072784     0.00033060
N        -0.49664488     1.81384511     0.12351028     0.00054962     0.00008230    -0.00008052
H        -0.13517528     2.73200786    -0.03371481    -0.00052890     0.00064561    -0.00090176
H        -0.03251007     1.02305530     0.56967621     0.00017302    -0.00082230    -0.00004198
    14
  Step:     9            Position(A)                                  Velocity(au)
C        -6.07493277    -0.82284014    -0.19520799    -0.00042886    -0.00000651     0.00000406
C        -4.72352034    -0.69251071     0.16911826    -0.00004602     0.00001551    -0.00008083
H        -6.52978727     0.07963270    -0.48929314     0.00112683     0.00012324    -0.00073926
H        -6.64279445    -1.70270796     0.06354214    -0.00040693    -0.00036215    -0.00011269
H        -4.17951583    -1.56541798     0.52655532     0.00100610     0.00020959     0.00011396
C        -3.90871737     0.46600475    -0.02908771    -0.00030871    -0.00016213     0.00002154
C        -2.51670539     0.48159938     0.22549008     0.00087933     0.00031511     0.00019281
H        -4.25329291     1.33322117    -0.55613478    -0.00086600    -0.00042981    -0.00119546
H        -2.01549300    -0.36090305     0.65008090    -0.00034827    -0.00085561     0.00002137
C        -1.82343596     1.69013981     0.07027898    -0.00079582    -0.00021894     0.00016556
H        -2.39686414     2.51084716    -0.27822514     0.00013464     0.00098644     0.00025166
N        -0.49057205     1.81467598     0.12268090     0.00055416     0.00006890    -0.00007088
H        -0.13982126     2.73957995    -0.04342182    -0.00032191     0.00071938    -0.00086841
H        -0.02978823     1.01476731     0.56897203     0.00031688    -0.00066958    -0.00009812
    14
  Step:    10            Position(A)                                  Velocity(au)
C        -6.07946899    -0.82289035    -0.19503892    -0.00039921    -0.00000415     0.00002708
C        -4.72392240    -0.69228133     0.16818274    -0.00002615     0.00002574    -0.00008941
H        -6.51885949     0.08201091    -0.49817061     0.00086149     0.00031685    -0.00088605
H        -6.64746775    -1.70703598     0.06189858    -0.00044315    -0.00041531    -0.00018940
H        -4.16868819    -1.56328700     0.52820762     0.00095798     0.00019009     0.00018297
C        -3.91249790     0.46401983    -0.02892868    -0.00038068    -0.00019945     0.00000669
C        -2.50675508     0.48519156     0.22771409     0.00093193     0.00033680     0.00021381
H        -4.26368449     1.32912578    -0.56942973    -0.00101855    -0.00033920    -0.00121910
H        -2.01887024    -0.37123558     0.65030530    -0.00026690    -0.00101308     0.00001131
C        -1.83224642     1.68759255     0.07204845    -0.00080452    -0.00024072     0.00015733
H        -2.39575915     2.52295496    -0.27587493     0.00007326     0.00119892     0.00018747
N        -0.48452166     1.81535251     0.12195959     0.00054672     0.00005508    -0.00006104
H        -0.14221759     2.74774561    -0.05271296    -0.00012185     0.00074684    -0.00082450
H        -0.02557765     1.00840694     0.56752961     0.00044677    -0.00047586    -0.00017396
    14
  Step:    11            Position(A)                                  Velocity(au)
C        -6.08366617    -0.82293089    -0.19461549    -0.00036748    -0.00000354     0.00005016
C        -4.72409243    -0.69194758     0.16716231    -0.00000460     0.00003375    -0.00009633
H        -6.51094062     0.08656433    -0.50867720     0.00058608     0.00050512    -0.00103144
H        -6.65248919    -1.71179374     0.05939862    -0.00046936    -0.00043979    -0.00026916
H        -4.15855812    -1.56125946     0.53055817     0.00087925     0.00019022     0.00024164
C        -3.91704545     0.46164133    -0.02894128    -0.00044699    -0.00023292    -0.00000987
C        -2.49631754     0.48896755     0.23016765     0.00096657     0.00034697     0.00023480
H        -4.27557568     1.32580052    -0.58280484    -0.00113876    -0.00029135    -0.00120771
H        -2.02133188    -0.38306621     0.65032839    -0.00018336    -0.00112408    -0.00001697
C        -1.84103639     1.68487368     0.07372084    -0.00079285    -0.00024850     0.00014739
H        -2.39526133     2.53707593    -0.27412389     0.00002749     0.00134680     0.00014488
N        -0.47861155     1.81588086     0.12134557     0.00052950     0.00004265    -0.00005156
H        -0.14248699     2.75591844    -0.06145926     0.00006427     0.00071695    -0.00076817
H        -0.02001422     1.00435700     0.56516637     0.00056625    -0.00025430    -0.00026287
    14
  Step:    12            Position(A)                                  Velocity(au)
C        -6.08750833    -0.82296782    -0.19394167    -0.00033485    -0.00000233     0.00007240
C        -4.72402308    -0.69154296     0.16607544     0.00001678     0.00003820    -0.00010155
H        -6.50603789     0.09306137    -0.52073530     0.00031817     0.00065795    -0.00116398
H        -6.65773590    -1.71665712     0.05601023    -0.00048371    -0.00043484    -0.00035150
H        -4.14945286    -1.55912555     0.53349391     0.00077214     0.00020811     0.00029035
C        -3.92227657     0.45892425    -0.02914456    -0.00050460    -0.00026068    -0.00002815
C        -2.48560959     0.49278224     0.23285075     0.00098059     0.00034271     0.00025581
H        -4.28859697     1.32275203    -0.59585071    -0.00122489    -0.00028834    -0.00115848
H        -2.02288161    -0.39582691     0.64993407    -0.00010156    -0.00118009    -0.00006556
C        -1.84959159     1.68215606     0.07527289    -0.00076243    -0.00023940     0.00013510
H        -2.39515765     2.55241885    -0.27270534     0.00000274     0.00141862     0.00012782
N        -0.47293780     1.81628560     0.12083169     0.00050433     0.00003310    -0.00004297
H        -0.14081152     2.76343022    -0.06951804     0.00023256     0.00062616    -0.00069900
H        -0.01318979     1.00284370     0.56177881     0.00067956    -0.00001975    -0.00035746
    14
  Step:    13            Position(A)                                  Velocity(au)
C        -6.09099176    -0.82298176    -0.19303169    -0.00030237     0.00000155     0.00009288
C        -4.72372539    -0.69111182     0.16494074     0.00003651     0.00003836    -0.00010507
H        -6.50398012     0.10095826    -0.53414151     0.00007194     0.00075082    -0.00127314
H        -6.66307122    -1.72130675     0.05170892    -0.00048547    -0.00040188    -0.00043544
H        -4.14166616    -1.55670666     0.53691023     0.00064034     0.00024015     0.00033020
C        -3.92808446     0.45593856    -0.02955722    -0.00055196    -0.00028172    -0.00004807
C        -2.47486535     0.49646500     0.23576394     0.00097317     0.00032229     0.00027686
H        -4.30237257     1.31949246    -0.60814873    -0.00127743    -0.00032754    -0.00107218
H        -2.02355374    -0.40888287     0.64889424    -0.00002334    -0.00117752    -0.00013444
C        -1.85771600     1.67963630     0.07667637    -0.00071494    -0.00021198     0.00012018
H        -2.39520128     2.56811088    -0.27132769     0.00000009     0.00141084     0.00013702
N        -0.46757828     1.81660504     0.12040543     0.00047270     0.00002744    -0.00003572
H        -0.13739923     2.76961685    -0.07675112     0.00038186     0.00047838    -0.00061819
H        -0.00514757     1.00392490     0.55734635     0.00079112     0.00021244    -0.00045029
    14
  Step:    14            Position(A)                                  Velocity(au)
C        -6.09412332    -0.82293384    -0.19190968    -0.00027086     0.00000949     0.00011081
C        -4.72322434    -0.69070368     0.16377679     0.00005347     0.00003393    -0.00010692
H        -6.50446408     0.10948696    -0.54858767    -0.00014295     0.00076845    -0.00135091
H        -6.66835653    -1.72544895     0.04648412    -0.00047495    -0.00034400    -0.00051951
H        -4.13544416    -1.55387183     0.54071758     0.00048867     0.00028150     0.00036279
C        -3.93435164     0.45276106    -0.03019619    -0.00058844    -0.00029570    -0.00006939
C        -2.46431955     0.49983305     0.23890750     0.00094480     0.00028521     0.00029785
H        -4.31654309     1.31558647    -0.61930664    -0.00129861    -0.00040260    -0.00095245
H        -2.02339222    -0.42158747     0.64699286     0.00005116    -0.00111764    -0.00022155
C        -1.86523229     1.67751853     0.07790211    -0.00065211    -0.00016622     0.00010270
H        -2.39515561     2.58328371    -0.26970783     0.00001720     0.00132716     0.00017052
N        -0.46259648     1.81688592     0.12005019     0.00043578     0.00002620    -0.00003010
H        -0.13245771     2.77389577    -0.08304204     0.00051306     0.00028381    -0.00052834
H         0.00411753     1.00749124     0.55192777     0.00090512     0.00042765    -0.00053458
    14
  Step:    15            Position(A)                                  Velocity(au)
C        -6.09691726    -0.82277408    -0.19060753    -0.00024083     0.00002213     0.00012559
C        -4.72255572    -0.69036949     0.16260169     0.00006676     0.00002488    -0.00010714
H        -6.50710750     0.11776961    -0.56369530    -0.00032153     0.00070596    -0.00139271
H        -6.67346156    -1.72883250     0.04034356    -0.00045327    -0.00026565    -0.00060192
H        -4.13097562    -1.55054837     0.54484686     0.00032264     0.00032657     0.00039013
C        -3.94095767     0.44946957    -0.03107524    -0.00061401    -0.00030270    -0.00009178
C        -2.45419602     0.50270442     0.24228005     0.00089690     0.00023216     0.00031857
H        -4.33078224     1.31068475    -0.62898541    -0.00129195    -0.00050479    -0.00080497
H        -2.02243463    -0.43333334     0.64404746     0.00012299    -0.00100600    -0.00032306
C        -1.87198211     1.67599994     0.07892312    -0.00057569    -0.00010340     0.00008298
H        -2.39482496     2.59714515    -0.26759714     0.00004952     0.00117700     0.00022439
N        -0.45804469     1.81717820     0.11974688     0.00039444     0.00002944    -0.00002627
H        -0.12617502     2.77582583    -0.08830957     0.00062856     0.00005721    -0.00043310
H         0.01465367     1.01328046     0.54565134     0.00102498     0.00061321    -0.00060472
    14
  Step:    16            Position(A)                                  Velocity(au)
C        -6.09939193    -0.82244980    -0.18916215    -0.00021255     0.00003941     0.00013689
C        -4.72176377    -0.69015930     0.16143289     0.00007572     0.00001139    -0.00010582
H        -6.51149824     0.12493128    -0.57905579    -0.00046265     0.00056747    -0.00139733
H        -6.67827259    -1.73126061     0.03331599    -0.00042220    -0.00017217    -0.00068069
H        -4.12838572    -1.54672749     0.54925235     0.00014820     0.00036944     0.00041446
C        -3.94778420     0.44613898    -0.03220399    -0.00062897    -0.00030312    -0.00011482
C        -2.44469826     0.50491200     0.24587686     0.00083161     0.00016511     0.00033863
H        -4.34480694     1.30454325    -0.63691692    -0.00126170    -0.00062402    -0.00063675
H        -2.02070163    -0.44359575     0.63992535     0.00019394    -0.00085163    -0.00043399
C        -1.87782662     1.67525646     0.07971749    -0.00048754    -0.00002603     0.00006159
H        -2.39407233     2.60903277    -0.26479896     0.00009141     0.00097366     0.00029346
N        -0.45396744     1.81752998     0.11947557     0.00034930     0.00003678    -0.00002421
H        -0.11870674     2.77514729    -0.09251692     0.00073163    -0.00018385    -0.00033679
H         0.02654089     1.02090644     0.53869833     0.00115278     0.00075965    -0.00065685
    14
  Step:    17            Position(A)                                  Velocity(au)
C        -6.10156712    -0.82191201    -0.18761273    -0.00018606     0.00006080     0.00014461
C        -4.72089922    -0.69012027     0.16028679     0.00007982    -0.00000620    -0.00010305
H        -6.51722884     0.13018405    -0.59426455    -0.00056784     0.00036357    -0.00136642
H        -6.68269804    -1.73259914     0.02545208    -0.00038394    -0.00006950    -0.00075385
H        -4.12773350    -1.54246625     0.55391391    -0.00002863     0.00040414     0.00043816
C        -3.95471769     0.44283817    -0.03358714    -0.00063386    -0.00029765    -0.00013803
C        -2.43600299     0.50631649     0.24968813     0.00075161     0.00008713     0.00035749
H        -4.35838430     1.29703322    -0.64291559    -0.00121265    -0.00074952    -0.00045569
H        -2.01819184    -0.45196448     0.63455301     0.00026609    -0.00066598    -0.00054879
C        -1.88264801     1.67543040     0.08027053    -0.00038962     0.00006231     0.00003927
H        -2.39282517     2.61844584    -0.26117721     0.00013696     0.00073284     0.00037202
N        -0.45040318     1.81798285     0.11921724     0.00030086     0.00004742    -0.00002376
H        -0.11016921     2.77180370    -0.09567747     0.00082600    -0.00042048    -0.00024409
H         0.03987300     1.02989915     0.53128155     0.00128860     0.00086164    -0.00068930
    14
  Step:    18            Position(A)                                  Velocity(au)
C        -6.10346225    -0.82111974    -0.18599842    -0.00016127     0.00008548     0.00014883
C        -4.72001753    -0.69029493     0.15917845     0.00007872    -0.00002740    -0.00009899
H        -6.52392086     0.13288501    -0.60894887    -0.00064033     0.00010875    -0.00130370
H        -6.68667204    -1.73278097     0.01682397    -0.00034091     0.00003621    -0.00081951
H        -4.12901201    -1.53788614     0.55883794    -0.00020192     0.00042501     0.00046364
C        -3.96165115     0.43962726    -0.03522370    -0.00062929    -0.00028719    -0.00016086
C        -2.42825526     0.50681821     0.25369760     0.00065991     0.00000228     0.00037451
H        -4.37133600     1.28814601    -0.64688598    -0.00114992    -0.00087029    -0.00027022
H        -2.01488030    -0.45816537     0.62791945     0.00034162    -0.00046211    -0.00066177
C        -1.88635040     1.67661956     0.08057665    -0.00028397     0.00015717     0.00001693
H        -2.39107617     2.62506512    -0.25666039     0.00018025     0.00047165     0.00045412
N        -0.44738548     1.81856733     0.11895583     0.00024960     0.00006016    -0.00002455
H        -0.10063632     2.76594850    -0.09785692     0.00091555    -0.00063388    -0.00015973
H         0.05473147     1.03975646     0.52361863     0.00142980     0.00091892    -0.00070296
    14
  Step:    19            Position(A)                                  Velocity(au)
C        -6.10509528    -0.82004208    -0.18435669    -0.00013803     0.00011247     0.00014976
C        -4.71917712    -0.69071974     0.15812129     0.00007221    -0.00005161    -0.00009378
H        -6.53123724     0.13256318    -0.62278547    -0.00068424    -0.00018072    -0.00121425
H        -6.69015611    -1.73180704     0.00752380    -0.00029560     0.00013881    -0.00087593
H        -4.13215095    -1.53316840     0.56405701    -0.00036615     0.00042695     0.00049322
C        -3.96848463     0.43655532    -0.03710633    -0.00061590    -0.00027284    -0.00018271
C        -2.42156621     0.50636635     0.25788123     0.00055959    -0.00008473     0.00038894
H        -4.38354099     1.27799388    -0.64882724    -0.00107883    -0.00097536    -0.00008909
H        -2.01071821    -0.46207405     0.62007551     0.00042269    -0.00025406    -0.00076745
C        -1.88886039     1.67886889     0.08064082    -0.00017261     0.00025351    -0.00000445
H        -2.38888185     2.62876399    -0.25124240     0.00021553     0.00020795     0.00053384
N        -0.44494277     1.81929898     0.11868012     0.00019603     0.00007353    -0.00002608
H        -0.09013973     2.75793644    -0.09917195     0.00100393    -0.00080678    -0.00008813
H         0.07115270     1.05000218     0.51590288     0.00157065     0.00093636    -0.00070130
    14
  Step:    20            Position(A)                                  Velocity(au)
C        -6.10648198    -0.81865922    -0.18272203    -0.00011612     0.00014075     0.00014773
C        -4.71843782    -0.69142408     0.15712684     0.00006025    -0.00007815    -0.00008761
H        -6.53888990     0.12893146    -0.63551294    -0.00070425    -0.00048796    -0.00110411
H        -6.69313892    -1.72974430    -0.00233862    -0.00025041     0.00023251    -0.00092162
H        -4.13702220    -1.52854588     0.56962797    -0.00051641     0.00040581     0.00052891
C        -3.97512505     0.43365839    -0.03922078    -0.00059429    -0.00025586    -0.00020291
C        -2.41601312     0.50496454     0.26220645     0.00045367    -0.00016887     0.00040001
H        -4.39493741     1.26680825    -0.64883494    -0.00100482    -0.00105404     0.00007895
H        -2.00563316    -0.46372349     0.61113000     0.00051143    -0.00005624    -0.00086084
C        -1.89012655     1.68216561     0.08047939    -0.00005747     0.00034601    -0.00002379
H        -2.38636106     2.62961448    -0.24498165     0.00023713    -0.00003999     0.00060536
N        -0.44309701     1.82017592     0.11838536     0.00014084     0.00008592    -0.00002771