     6
  Step:   300            Position(A)                                  Velocity(au)
C        -0.05448786     0.01995918     0.01426757     0.00004658     0.00007346     0.00001242
N        -0.02789180    -0.05580243     1.30193443    -0.00015366    -0.00000258    -0.00002065
H         0.17396210    -0.89672667    -0.52408685     0.00004846    -0.00025012     0.00065057
H         0.09178574     0.77850646     1.88955620     0.00090829    -0.00029940     0.00007654
H        -0.14530390    -0.98231184     1.72165252     0.00074805    -0.00016089    -0.00019856
H        -0.29650730     0.96838330    -0.45720666    -0.00012453    -0.00012904    -0.00038970
