 Fermi distribution function

Calculation with static geometry


********************************************************************************
 iSCC Total electronic   Diff electronic      SCC error    
   14   -0.52541272E+01   -0.46750159E-09    0.58449140E-06
********************************************************************************

 Total charge:     1.00000000

 Atomic gross charges (e)
 Atom           Charge
    1       0.31866010
    2      -0.20013238
    3       0.18672178
    4       0.26173878
    5       0.25224423
    6       0.18076749

Nr. of electrons (up):     12.00000000
Atom populations (up)
 Atom       Population
    1       3.68133990
    2       5.20013238
    3       0.81327822
    4       0.73826122
    5       0.74775577
    6       0.81923251

l-shell populations (up)
 Atom Sh.   l       Population
    1   1   0       1.42154547
    1   2   1       2.25979443
    2   1   0       1.54316062
    2   2   1       3.65697176
    3   1   0       0.81327822
    4   1   0       0.73826122
    5   1   0       0.74775577
    6   1   0       0.81923251

Orbital populations (up)
 Atom Sh.   l   m       Population  Label
    1   1   0   0       1.42154547  s
    1   2   1  -1       0.37391544  p_y
    1   2   1   0       0.88306142  p_z
    1   2   1   1       1.00281757  p_x
    2   1   0   0       1.54316062  s
    2   2   1  -1       1.33994819  p_y
    2   2   1   0       1.09883935  p_z
    2   2   1   1       1.21818422  p_x
    3   1   0   0       0.81327822  s
    4   1   0   0       0.73826122  s
    5   1   0   0       0.74775577  s
    6   1   0   0       0.81923251  s

Fermi level:                        -0.5205495025 H          -14.1649 eV
Band energy:                        -8.6438819880 H         -235.2120 eV
TS:                                  0.0000000000 H            0.0000 eV
Band free energy (E-TS):            -8.6438819880 H         -235.2120 eV
Extrapolated E(0K):                 -8.6438819880 H         -235.2120 eV
Input / Output electrons (q):     12.0000000000     12.0000000000

Energy H0:                          -5.3920014395 H         -146.7238 eV
Energy SCC:                          0.1378742248 H            3.7517 eV
Total Electronic energy:            -5.2541272147 H         -142.9721 eV
Repulsive energy:                    0.1315500109 H            3.5797 eV
Total energy:                       -5.1225772039 H         -139.3924 eV
Extrapolated to 0:                  -5.1225772039 H         -139.3924 eV
Total Mermin free energy:           -5.1225772039 H         -139.3924 eV
Force related energy:               -5.1225772039 H         -139.3924 eV

SCC converged

Excitation Energy:                   0.0934056706 H            2.5417 eV

Total Forces
    1     -0.002311935762     -0.001587224233      0.028079458857
    2      0.018081607980     -0.021686271121     -0.038649299620
    3      0.000611498624      0.008854069119     -0.003980004726
    4     -0.011300311980      0.009179741290     -0.001197778392
    5     -0.012504759130      0.009526891410      0.012543860371
    6      0.007423900267     -0.004287206464      0.003203763510

Maximal derivative component:        0.386493E-01 au


