    14
  Step:   600            Position(A)                                  Velocity(au)
C        -6.05543589    -0.74354741     0.08606023     0.00022448     0.00005027    -0.00052356
C        -4.69774532    -0.63801059     0.26355593     0.00009313    -0.00028277     0.00071546
H        -6.27266141    -0.18544521    -0.81348925    -0.00002386     0.00117965    -0.00174921
H        -6.73374149    -1.43871210     0.53672918    -0.00026587     0.00174831     0.00032020
H        -3.98723624    -1.23791305     0.95421743    -0.00066809    -0.00200035     0.00231987
C        -3.91551402     0.28187760    -0.50744237     0.00037799    -0.00005139     0.00034855
C        -2.56450129     0.44358445    -0.20052455    -0.00057508     0.00010717    -0.00049291
H        -4.32689438     1.20768631    -0.92267028     0.00056335    -0.00129197    -0.00076141
H        -2.16098177    -0.54935087     0.12131532     0.00068489     0.00135564    -0.00168828
C        -1.84085897     1.55936344     0.27095640     0.00039440     0.00044050     0.00010396
H        -2.33250684     2.36372323     0.72748401    -0.00123198     0.00012155     0.00245245
N        -0.51066106     1.99477871     0.32324309    -0.00051907     0.00006131    -0.00044206
H        -0.07478363     2.53874055     1.11121064     0.00181933    -0.00297273     0.00201967
H         0.30046750     1.45891970    -0.15153477     0.00019992    -0.00213526     0.00142446
