     6
  Step:     0            Position(A)                                  Velocity(au)
C        -0.03637052     0.00529307     0.00004061     0.00008687     0.00004021     0.00012695
N        -0.04776755    -0.06329356     1.31072105     0.00020357    -0.00009186    -0.00009873
H         0.97006923     0.01726942    -0.54627497    -0.00073405    -0.00014783     0.00005969
H         0.85223052    -0.06184272     1.83640808    -0.00137866     0.00045632    -0.00070543
H        -0.94156742     0.00946356     1.91952306    -0.00143601     0.00047662     0.00044744
H        -0.99648203     0.18180948    -0.53233974    -0.00031530     0.00001228     0.00005764
     6
  Step:     1            Position(A)                                  Velocity(au)
C        -0.03588521     0.00550722     0.00043144     0.00008990     0.00003815     0.00001582
N        -0.04667391    -0.06382516     1.31045086     0.00019416    -0.00010250    -0.00000013
H         0.96580372     0.01658805    -0.54576400    -0.00082030    -0.00010089     0.00012501
H         0.84465967    -0.05922523     1.83254054    -0.00137147     0.00050100    -0.00069809
H        -0.94904586     0.01217215     1.92161894    -0.00128617     0.00051265     0.00031151
H        -0.99814783     0.18200040    -0.53198093    -0.00029134     0.00005691     0.00007493
     6
  Step:     2            Position(A)                                  Velocity(au)
C        -0.03538717     0.00571042     0.00021368     0.00009148     0.00003621    -0.00009511
N        -0.04564379    -0.06441470     1.31071963     0.00018045    -0.00011303     0.00009784
H         0.96109646     0.01616580    -0.54490754    -0.00089486    -0.00005318     0.00018529
H         0.83722876    -0.05636251     1.82877201    -0.00132672     0.00054595    -0.00066851
H        -0.95563618     0.01507120     1.92293051    -0.00111352     0.00054629     0.00016251
H        -0.99966887     0.18243196    -0.53152016    -0.00026255     0.00010013     0.00009449
     6
  Step:     3            Position(A)                                  Velocity(au)
C        -0.03488459     0.00590330    -0.00060888     0.00009152     0.00003438    -0.00020486
N        -0.04470008    -0.06506149     1.31152107     0.00016269    -0.00012342     0.00019417
H         0.95601543     0.01600638    -0.54373729    -0.00095621    -0.00000488     0.00023901
H         0.83014760    -0.05325342     1.82522819    -0.00124333     0.00059109    -0.00061555
H        -0.96122590     0.01814761     1.92339655    -0.00092247     0.00057754     0.00000410
H        -1.00101971     0.18309562    -0.53094738    -0.00022934     0.00014166     0.00011546
     6
  Step:     4            Position(A)                                  Velocity(au)
C        -0.03438615     0.00608645    -0.00202714     0.00008992     0.00003264    -0.00031242
N        -0.04386422    -0.06576465     1.31284347     0.00014117    -0.00013361     0.00028787
H         0.95063727     0.01611241    -0.54229318    -0.00100257     0.00004380     0.00028466
H         0.82362907    -0.04989707     1.82203900    -0.00112119     0.00063631    -0.00053880
H        -0.96572629     0.02138843     1.92297538    -0.00071719     0.00060638    -0.00016022
H        -1.00217739     0.18398145    -0.53025723    -0.00019220     0.00018127     0.00013696
     6
  Step:     5            Position(A)                                  Velocity(au)
C        -0.03390102     0.00626035    -0.00402637     0.00008658     0.00003097    -0.00041666
N        -0.04315588    -0.06652301     1.31466998     0.00011624    -0.00014353     0.00037795
H         0.94504851     0.01648547    -0.54062350    -0.00103195     0.00009264     0.00032066
H         0.81788318    -0.04629297     1.81933435    -0.00096153     0.00068145    -0.00043876
H        -0.96907112     0.02478066     1.92164393    -0.00050178     0.00063272    -0.00032704
H        -1.00312214     0.18507844    -0.52944920    -0.00015181     0.00021873     0.00015808
     6
  Step:     6            Position(A)                                  Velocity(au)
C        -0.03343886     0.00642533    -0.00658580     0.00008143     0.00002933    -0.00051635
N        -0.04259240    -0.06733504     1.31697857     0.00008841    -0.00015309     0.00046339
H         0.93934675     0.01712601    -0.53878484    -0.00104216     0.00014141     0.00034549
H         0.81310908    -0.04244141     1.81723858    -0.00076726     0.00072621    -0.00031708
H        -0.97121624     0.02831096     1.91939730    -0.00028042     0.00065642    -0.00049287
H        -1.00383838     0.18637459    -0.52852763    -0.00010906     0.00025386     0.00017791
     6
  Step:     7            Position(A)                                  Velocity(au)
C        -0.03300978     0.00658143    -0.00967802     0.00007438     0.00002767    -0.00061009
N        -0.04218814    -0.06819868     1.31974201     0.00005833    -0.00016216     0.00054314
H         0.93364159     0.01803325    -0.53684191    -0.00103096     0.00018980     0.00035772
H         0.80948519    -0.03834431     1.81586379    -0.00054330     0.00077012    -0.00017674
H        -0.97214043     0.03196544     1.91624923    -0.00005764     0.00067731    -0.00065406
H        -1.00431584     0.18785705    -0.52750191    -0.00006505     0.00028646     0.00019547
     6
  Step:     8            Position(A)                                  Velocity(au)
C        -0.03262417     0.00672843    -0.01326821     0.00006542     0.00002593    -0.00069639
N        -0.04195346    -0.06911119     1.32292759     0.00002685    -0.00017058     0.00061607
H         0.92805454     0.01920495    -0.53486672    -0.00099628     0.00023749     0.00035611
H         0.80715827    -0.03400625     1.81530273    -0.00029668     0.00081247    -0.00002208
H        -0.97184753     0.03572961     1.91223335     0.00016149     0.00069525    -0.00080661
H        -1.00455083     0.18951216    -0.52638669    -0.00002112     0.00031633     0.00020975
     6
  Step:     9            Position(A)                                  Velocity(au)
C        -0.03229250     0.00686572    -0.01731358     0.00005457     0.00002403    -0.00077362
N        -0.04189378    -0.07006904     1.32649691    -0.00000502    -0.00017818     0.00068104
H         0.92271786     0.02063717    -0.53293732    -0.00093645     0.00028405     0.00033978
H         0.80623226    -0.02943589     1.81562171    -0.00003644     0.00085230     0.00014131
H        -0.97036978     0.03958855     1.90740510     0.00037119     0.00071013    -0.00094618
H        -1.00454739     0.19132551    -0.52520206     0.00002119     0.00034331     0.00021977
     6
  Step:    10            Position(A)                                  Velocity(au)
C        -0.03202499     0.00699229    -0.02176298     0.00004194     0.00002191    -0.00084020
N        -0.04200853    -0.07106774     1.33040573    -0.00003606    -0.00018477     0.00073691
H         0.91777185     0.02232397    -0.53113576    -0.00085063     0.00032903     0.00030836
H         0.80675810    -0.02464760     1.81685441     0.00022666     0.00088833     0.00030683
H        -0.96777169     0.04352722     1.90184376     0.00056504     0.00072195    -0.00106816
H        -1.00431817     0.19328186    -0.52397350     0.00006022     0.00036719     0.00022457
     6
  Step:    11            Position(A)                                  Velocity(au)
C        -0.03183109     0.00710679    -0.02655701     0.00002775     0.00001952    -0.00089464
N        -0.04229043    -0.07210175     1.33460398    -0.00006497    -0.00019014     0.00078263
H         0.91335967     0.02425702    -0.52954491    -0.00073917     0.00037192     0.00026218
H         0.80872584    -0.01966296     1.81899731     0.00048085     0.00091913     0.00046731
H        -0.96415353     0.04753104     1.89565386     0.00073619     0.00073085    -0.00116787
H        -1.00388489     0.19536510    -0.52273150     0.00009429     0.00038779     0.00022333
     6
  Step:    12            Position(A)                                  Velocity(au)
C        -0.03171893     0.00720753    -0.03162855     0.00001234     0.00001680    -0.00093571
N        -0.04272499    -0.07316450     1.33903612    -0.00009045    -0.00019413     0.00081731
H         0.90962069     0.02642534    -0.52824460    -0.00060389     0.00041219     0.00020239
H         0.81206064    -0.01451197     1.82200759     0.00071422     0.00094316     0.00061556
H        -0.95965339     0.05158665     1.88896521     0.00087778     0.00073719    -0.00124098
H        -1.00327836     0.19755823    -0.52151078     0.00012182     0.00040499     0.00021544
     6
  Step:    13            Position(A)                                  Velocity(au)
C        -0.03169467     0.00729258    -0.03690432    -0.00000386     0.00001374    -0.00096270
N        -0.04329065    -0.07424848     1.34364201    -0.00011128    -0.00019662     0.00084042
H         0.90668175     0.02881507    -0.52730688    -0.00044833     0.00044933     0.00013104
H         0.81662389    -0.00923334     1.82580428     0.00091590     0.00095903     0.00074512
H        -0.95444683     0.05568299     1.88193086     0.00098339     0.00074159    -0.00128388
H        -1.00253773     0.19984355    -0.52034913     0.00014147     0.00041873     0.00020059
     6
  Step:    14            Position(A)                                  Velocity(au)
C        -0.03176179     0.00735991    -0.04230761    -0.00003431     0.00001745    -0.00164812
N        -0.04395939    -0.07534561     1.34835877    -0.00021366    -0.00033383     0.00143921
H         0.90464749     0.03140966    -0.52679100    -0.00046906     0.00081594     0.00008619
H         0.82222052    -0.00387358     1.83027308     0.00181975     0.00163158     0.00143755
H        -0.94874485     0.05981292     1.87472335     0.00176997     0.00125862    -0.00218637
H        -1.00170905     0.20220311    -0.51928569     0.00025723     0.00072494     0.00030210
     6
  Step:    15            Position(A)                                  Velocity(au)
C        -0.03198260     0.00743718    -0.05118367    -0.00004361     0.00000961    -0.00149706
N        -0.04517960    -0.07716917     1.35615697    -0.00021460    -0.00031300     0.00132386
H         0.90272997     0.03591145    -0.52691960    -0.00020775     0.00078114    -0.00013109
H         0.83271573     0.00512403     1.83853516     0.00187003     0.00155808     0.00147292
H        -0.93887141     0.06663863     1.86271203     0.00169888     0.00116703    -0.00205163
H        -1.00057225     0.20629833    -0.51800612     0.00014067     0.00072882     0.00015214
     6
  Step:    16            Position(A)                                  Velocity(au)
C        -0.03225411     0.00746838    -0.05920792    -0.00002915     0.00000069    -0.00075409
N        -0.04638198    -0.07887903     1.36330381    -0.00011615    -0.00016430     0.00067668
H         0.90230222     0.04022790    -0.52827083     0.00003029     0.00041976    -0.00019278
H         0.84333122     0.01371558     1.84690085     0.00104347     0.00083230     0.00082594
H        -0.92956622     0.07298747     1.85156263     0.00087835     0.00061011    -0.00105360
H        -1.00012098     0.21043072    -0.51756820     0.00000932     0.00041284     0.00000287
     6
  Step:    17            Position(A)                                  Velocity(au)
C        -0.03246355     0.00745995    -0.06339940    -0.00004434    -0.00000366    -0.00072802
N        -0.04701537    -0.07979907     1.36706785    -0.00010595    -0.00016140     0.00065425
H         0.90302118     0.04267230    -0.52960346     0.00021871     0.00044479    -0.00027645
H         0.84921834     0.01834017     1.85159957     0.00102515     0.00080313     0.00082887
H        -0.92489743     0.07647670     1.84591966     0.00075972     0.00062779    -0.00093607
H        -1.00009818     0.21275828    -0.51765156    -0.00000294     0.00041076    -0.00003284
     6
  Step:    18            Position(A)                                  Velocity(au)
C        -0.03275535     0.00742696    -0.06743777    -0.00005853    -0.00000805    -0.00070519
N        -0.04757963    -0.08070352     1.37069972    -0.00009265    -0.00015990     0.00063460
H         0.90477465     0.04525604    -0.53139599     0.00039689     0.00047229    -0.00035685
H         0.85491992     0.02279450     1.85627079     0.00098654     0.00077764     0.00082293
H        -0.92097800     0.08008435     1.84098092     0.00062010     0.00065631    -0.00081177
H        -1.00015427     0.21507417    -0.51793943    -0.00001849     0.00041167    -0.00006978
     6
  Step:    19            Position(A)                                  Velocity(au)
C        -0.03312284     0.00736931    -0.07134230    -0.00007163    -0.00001251    -0.00068619
N        -0.04805896    -0.08160009     1.37421565    -0.00007674    -0.00015985     0.00061817
H         0.90749153     0.04799198    -0.53362288     0.00056329     0.00050270    -0.00043311
H         0.86033020     0.02709905     1.86086861     0.00093090     0.00075607     0.00081016
H        -0.91791293     0.08386903     1.83677632     0.00046294     0.00069573    -0.00068257
H        -1.00030641     0.21739515    -0.51843747    -0.00003709     0.00041591    -0.00010810
     6
  Step:    20            Position(A)                                  Velocity(au)
C        -0.03355893     0.00728663    -0.07513529    -0.00008348    -0.00001708    -0.00067056
N        -0.04844049    -0.08249666     1.37763424    -0.00005858    -0.00016106     0.00060451
H         0.91109345     0.05089525    -0.53625452     0.00071597     0.00053574    -0.00050401
H         0.86536254     0.03127589     1.86535900     0.00085988     0.00073767     0.00079133
H        -0.91578485     0.08788883     1.83332402     0.00029145     0.00074503    -0.00054950
H        -1.00057030     0.21973971    -0.51915211    -0.00005848     0.00042321    -0.00014786
     6
  Step:    21            Position(A)                                  Velocity(au)
C        -0.03405579     0.00717840    -0.07883640    -0.00009384    -0.00002176    -0.00065741
N        -0.04871365    -0.08340003     1.38097160    -0.00003858    -0.00016322     0.00059281
H         0.91549310     0.05397935    -0.53925562     0.00085241     0.00057066    -0.00056802
H         0.86994016     0.03534321     1.86971245     0.00077453     0.00072135     0.00076658
H        -0.91465571     0.09219542     1.83063521     0.00010967     0.00080244    -0.00041381
H        -1.00095999     0.22212495    -0.52008990    -0.00008229     0.00043306    -0.00018884
     6
  Step:    22            Position(A)                                  Velocity(au)
C        -0.03460453     0.00704414    -0.08246030    -0.00010248    -0.00002653    -0.00064583
N        -0.04887032    -0.08431529     1.38423945    -0.00001724    -0.00016601     0.00058228
H         0.92059116     0.05725363    -0.54258356     0.00096982     0.00060650    -0.00062356
H         0.87399246     0.03931336     1.87390036     0.00067601     0.00070610     0.00073597
H        -0.91456293     0.09682976     1.82871330    -0.00007715     0.00086567    -0.00027747
H        -1.00148719     0.22456495    -0.52125624    -0.00010797     0.00044483    -0.00023065
     6
  Step:    23            Position(A)                                  Velocity(au)
C        -0.03519509     0.00688345    -0.08601651    -0.00010917    -0.00003134    -0.00063508
N        -0.04890533    -0.08524568     1.38744513     0.00000480    -0.00016912     0.00057230
H         0.92627521     0.06072218    -0.54618817     0.00106562     0.00064228    -0.00066922
H         0.87745584     0.04319335     1.87789472     0.00056605     0.00069119     0.00069984
H        -0.91551340     0.10181960     1.82755037    -0.00026264     0.00093221    -0.00014319
H        -1.00216041     0.22707039    -0.52265415    -0.00013487     0.00045796    -0.00027269
     6
  Step:    24            Position(A)                                  Velocity(au)
C        -0.03581648     0.00669620    -0.08951038    -0.00011378    -0.00003615    -0.00062461
N        -0.04881698    -0.08619271     1.39059266     0.00002686    -0.00017227     0.00056249
H         0.93242080     0.06438369    -0.55001265     0.00113780     0.00067708    -0.00070393
H         0.88027630     0.04698640     1.88166937     0.00044689     0.00067624     0.00065880
H        -0.91747856     0.10717830     1.82712370    -0.00043989     0.00099943    -0.00001410
H        -1.00298435     0.22964881    -0.52428345    -0.00016219     0.00047196    -0.00031431
     6
  Step:    25            Position(A)                                  Velocity(au)
C        -0.03645706     0.00648252    -0.09294421    -0.00011623    -0.00004089    -0.00061408
N        -0.04860744    -0.08715638     1.39368376     0.00004819    -0.00017523     0.00055259
H         0.93889474     0.06823184    -0.55399557     0.00118512     0.00071009    -0.00072709
H         0.88241232     0.05069368     1.88520163     0.00032119     0.00066113     0.00061376
H        -0.92039227     0.11290448     1.82739398    -0.00060196     0.00106476     0.00010658
H        -1.00395931     0.23230500    -0.52614018    -0.00018911     0.00048643    -0.00035476
     6
  Step:    26            Position(A)                                  Velocity(au)
C        -0.03710498     0.00624286    -0.09631823    -0.00011651    -0.00004552    -0.00060326
N        -0.04828270    -0.08813539     1.39671879     0.00006811    -0.00017781     0.00054250
H         0.94555932     0.07225588    -0.55807326     0.00120718     0.00074059    -0.00073851
H         0.88383706     0.05431579     1.88847367     0.00019192     0.00064594     0.00056581
H        -0.92415199     0.11898242     1.82830532    -0.00074251     0.00112572     0.00021588
H        -1.00508084     0.23504145    -0.52821641    -0.00021474     0.00050101    -0.00039333
     6
  Step:    27            Position(A)                                  Velocity(au)
C        -0.03774858     0.00597797    -0.09963138    -0.00011471    -0.00004996    -0.00059203
N        -0.04785243    -0.08912737     1.39969732     0.00008598    -0.00017983     0.00053215
H         0.95227636     0.07644129    -0.56218196     0.00120434     0.00076801    -0.00073843
H         0.88453972     0.05785388     1.89147358     0.00006215     0.00063092     0.00051615
H        -0.92862295     0.12538307     1.82978705    -0.00085624     0.00118010     0.00031132
H        -1.00633966     0.23785868    -0.53050022    -0.00023821     0.00051541    -0.00042930
     6
  Step:    28            Position(A)                                  Velocity(au)
C        -0.03837670     0.00568892    -0.10288182    -0.00011096    -0.00005419    -0.00058035
N        -0.04732946    -0.09012912     1.40261853     0.00010128    -0.00018120     0.00052156
H         0.95891128     0.08077041    -0.56625992     0.00117769     0.00079188    -0.00072744
H         0.88452613     0.06131050     1.89419596    -0.00006502     0.00061644     0.00046606
H        -0.93364473     0.13206568     1.83175677    -0.00093926     0.00122605     0.00039109
H        -1.00772176     0.24075555    -0.53297586    -0.00025871     0.00052938    -0.00046203
     6
  Step:    29            Position(A)                                  Velocity(au)
C        -0.03897908     0.00537703    -0.10606742    -0.00010544    -0.00005814    -0.00056822
N        -0.04672919    -0.09113688     1.40548143     0.00011362    -0.00018183     0.00051074
H         0.96533696     0.08522323    -0.57024931     0.00112895     0.00081189    -0.00070644
H         0.88381866     0.06469019     1.89664222    -0.00018664     0.00060294     0.00041683
H        -0.93903937     0.13897995     1.83412419    -0.00098926     0.00126212     0.00045414
H        -1.00920876     0.24372948    -0.53562416    -0.00027551     0.00054272    -0.00049097
     6
  Step:    30            Position(A)                                  Velocity(au)
C        -0.03954653     0.00504385    -0.10918601    -0.00009838    -0.00006179    -0.00055570
N        -0.04606888    -0.09214651     1.40828499     0.00012273    -0.00018171     0.00049971
H         0.97143658     0.08977805    -0.57409764     0.00106027     0.00082784    -0.00067654
H         0.88245544     0.06799991     1.89882054    -0.00029996     0.00059092     0.00036969
H        -0.94462027     0.14606855     1.83679532    -0.00100551     0.00128738     0.00050020
H        -1.01077844     0.24677682    -0.53842302    -0.00028799     0.00055529    -0.00051567
     6
  Step:    31            Position(A)                                  Velocity(au)
C        -0.04007110     0.00469113    -0.11223571    -0.00009002    -0.00006512    -0.00054290
N        -0.04536689    -0.09315383     1.41102821     0.00012848    -0.00018084     0.00048852
H         0.97710596     0.09441225    -0.57775887     0.00097420     0.00083969    -0.00063903
H         0.88048915     0.07124936     1.90074573    -0.00040253     0.00058091     0.00032580
H        -0.95020045     0.15326980     1.83967636    -0.00098870     0.00130134     0.00052964
H        -1.01240548     0.24989312    -0.54134809    -0.00029570     0.00056700    -0.00053582
     6
  Step:    32            Position(A)                                  Velocity(au)
C        -0.04054623     0.00432072    -0.11521511    -0.00008061    -0.00006810    -0.00052993
N        -0.04464206    -0.09415477     1.41371020     0.00013086    -0.00017927     0.00047722
H         0.98225534     0.09910300    -0.58119425     0.00087346     0.00084748    -0.00059530
H         0.87798526     0.07445110     1.90243863    -0.00049228     0.00057346     0.00028620
H        -0.95560002     0.16052027     1.84267717    -0.00094077     0.00130398     0.00054345
H        -1.01406227     0.25307350    -0.54437346    -0.00029831     0.00057784    -0.00055123
     6
  Step:    33            Position(A)                                  Velocity(au)
C        -0.04096674     0.00393453    -0.11812338    -0.00007041    -0.00007074    -0.00051693
N        -0.04391299    -0.09514560     1.41633023     0.00012996    -0.00017710     0.00046585
H         0.98681023     0.10382786    -0.58437273     0.00076084     0.00085136    -0.00054676
H         0.87501984     0.07762061     1.90392544    -0.00056757     0.00056910     0.00025175
H        -0.96065257     0.16775723     1.84571420    -0.00086461     0.00129566     0.00054303
H        -1.01571980     0.25631299    -0.54747240    -0.00029568     0.00058784    -0.00056185
     6
  Step:    34            Position(A)                                  Velocity(au)
C        -0.04132876     0.00353449    -0.12096040    -0.00005963    -0.00007305    -0.00050402
N        -0.04319762    -0.09612307     1.41888778     0.00012595    -0.00017441     0.00045445
H         0.99071151     0.10856528    -0.58727103     0.00063909     0.00085156    -0.00049479
H         0.87167716     0.08077624     1.90523670    -0.00062720     0.00056834     0.00022314
H        -0.96520956     0.17492064     1.84871257    -0.00076373     0.00127704     0.00053009
H        -1.01734857     0.25960694    -0.55061803    -0.00028780     0.00059712    -0.00056772
     6
  Step:    35            Position(A)                                  Velocity(au)
C        -0.04162971     0.00312244    -0.12372670    -0.00004850    -0.00007503    -0.00049131
N        -0.04251275    -0.09708453     1.42138250     0.00011906    -0.00017131     0.00044306
H         0.99391513     0.11329488    -0.58987346     0.00051080     0.00084829    -0.00044073
H         0.86804702     0.08393903     1.90640612    -0.00067047     0.00057166     0.00020079
H        -0.96914323     0.18195453     1.85160739    -0.00064203     0.00124897     0.00050652
H        -1.01891941     0.26295138    -0.55378393    -0.00027481     0.00060585    -0.00056897
     6
  Step:    36            Position(A)                                  Velocity(au)
C        -0.04186808     0.00270016    -0.12642339    -0.00003719    -0.00007673    -0.00047889
N        -0.04187378    -0.09802793     1.42381424     0.00010956    -0.00016793     0.00043169
H         0.99639113     0.11799757    -0.59217153     0.00037836     0.00084179    -0.00038582
H         0.86422214     0.08713259     1.90746931    -0.00069709     0.00057950     0.00018493
H        -0.97234842     0.18880806     1.85434466    -0.00050361     0.00121239     0.00047431
H        -1.02040425     0.26634343    -0.55694454    -0.00025696     0.00061426    -0.00056580
     6
  Step:    37            Position(A)                                  Velocity(au)
C        -0.04204327     0.00226926    -0.12905186    -0.00002584    -0.00007815    -0.00046679
N        -0.04129448    -0.09895188     1.42618278     0.00009775    -0.00016437     0.00042032
H         0.99812242     0.12265534    -0.59416363     0.00024392     0.00083220    -0.00033124
H         0.86029562     0.09038288     1.90846243    -0.00070723     0.00059228     0.00017549
H        -0.97474323     0.19543589     1.85688160    -0.00035256     0.00116825     0.00043546
H        -1.02177677     0.26978175    -0.56007545    -0.00023462     0.00062269    -0.00055840
     6
  Step:    38            Position(A)                                  Velocity(au)
C        -0.04215537     0.00183119    -0.13161361    -0.00001857    -0.00010136    -0.00058121
N        -0.04078689    -0.09985557     1.42848785     0.00010723    -0.00020532     0.00052238
H         0.99910333     0.12725083    -0.59585462     0.00013970     0.00104690    -0.00035532
H         0.85635845     0.09371824     1.90942065    -0.00089607     0.00077985     0.00021994
H        -0.97626858     0.20179788     1.85918659    -0.00024636     0.00142738     0.00050070
H        -1.02301302     0.27326716    -0.56315347    -0.00026606     0.00080687    -0.00069875
     6
  Step:    39            Position(A)                                  Velocity(au)
C        -0.04224108     0.00124905    -0.13458207    -0.00001305    -0.00010771    -0.00048776
N        -0.04022366    -0.10096302     1.43119848     0.00009462    -0.00019298     0.00045313
H         0.99979648     0.13304517    -0.59795477     0.00011002     0.00103857    -0.00039671
H         0.85144709     0.09800206     1.91070079    -0.00086104     0.00075986     0.00024477
H        -0.97725689     0.20950663     1.86185789    -0.00010575     0.00134539     0.00045586
H        -1.02461193     0.27780666    -0.56730013    -0.00030254     0.00082133    -0.00078853
     6
  Step:    40            Position(A)                                  Velocity(au)
C        -0.04230058     0.00063272    -0.13704094    -0.00000933    -0.00011357    -0.00039829
N        -0.03973409    -0.10200283     1.43352981     0.00008101    -0.00018101     0.00038618
H         1.00032758     0.13880699    -0.60026884     0.00008134     0.00103594    -0.00043118
H         0.84677766     0.10217316     1.91214422    -0.00081022     0.00073794     0.00027825
H        -0.97744525     0.21676803     1.86425891     0.00003986     0.00126795     0.00040366
H        -1.02637940     0.28240614    -0.57192740    -0.00032549     0.00082688    -0.00087113
     6
  Step:    41            Position(A)                                  Velocity(au)
C        -0.04234495    -0.00001472    -0.13901430    -0.00000778    -0.00011885    -0.00031399
N        -0.03932219    -0.10297736     1.43549592     0.00006700    -0.00016964     0.00032239
H         1.00070167     0.14457318    -0.60275293     0.00005318     0.00104143    -0.00045657
H         0.84243092     0.10621394     1.91379717    -0.00074679     0.00071196     0.00031973
H        -0.97681335     0.22361643     1.86634983     0.00018803     0.00119916     0.00034459
H        -1.02823394     0.28700826    -0.57699411    -0.00033277     0.00082106    -0.00094626
     6
  Step:    42            Position(A)                                  Velocity(au)
C        -0.04238716    -0.00068963    -0.14053439    -0.00000858    -0.00012343    -0.00023636
N        -0.03898862    -0.10389024     1.43711675     0.00005308    -0.00015904     0.00026283
H         1.00091925     0.15039398    -0.60534863     0.00002404     0.00105648    -0.00047024
H         0.83846877     0.11009452     1.91570156    -0.00067399     0.00068037     0.00036805
H        -0.97535326     0.23011003     1.86809279     0.00033688     0.00114226     0.00027908
H        -1.03008178     0.29154133    -0.58245557    -0.00032240     0.00080185    -0.00101266
     6
  Step:    43            Position(A)                                  Velocity(au)
C        -0.04244032    -0.00138755    -0.14164313    -0.00001148    -0.00012720    -0.00016664
N        -0.03873180    -0.10474623     1.43841907     0.00003951    -0.00014935     0.00020836
H         1.00096900     0.15632330    -0.60798289    -0.00000837     0.00108019    -0.00047073
H         0.83493481     0.11378104     1.91789062    -0.00059479     0.00064373     0.00042114
H        -0.97306661     0.23632071     1.86945372     0.00048465     0.00109772     0.00020836
H        -1.03181964     0.29592646    -0.58825694    -0.00029371     0.00076949    -0.00106841
     6
  Step:    44            Position(A)                                  Velocity(au)
C        -0.04251477    -0.00210368    -0.14238689    -0.00001589    -0.00013017    -0.00010466
N        -0.03854944    -0.10555047     1.43943296     0.00002634    -0.00014051     0.00015890
H         1.00082617     0.16240205    -0.61058157    -0.00004561     0.00110952    -0.00045941
H         0.83185670     0.11725062     1.92038317    -0.00051181     0.00060439     0.00047627
H        -0.96996554     0.24231294     1.87040901     0.00062917     0.00106292     0.00013468
H        -1.03334682     0.30009551    -0.59433265    -0.00024838     0.00072694    -0.00111247
     6