     6
  Step:     0            Position(A)                                  Velocity(au)
C        -0.03265176    -0.00232717     0.00532054     0.00005484    -0.00000255    -0.00007352
N        -0.03557539    -0.04459429     1.31327538    -0.00005003     0.00006243    -0.00005335
H         0.91377050     0.06931903    -0.54748644    -0.00057408    -0.00023425     0.00063481
H         0.80902113    -0.13873572     1.83334710     0.00073244    -0.00026727     0.00062208
H        -1.01365007    -0.06133761     1.82307161    -0.00001535    -0.00041968     0.00037653
H        -1.03863129     0.10840492    -0.53002805    -0.00010119     0.00008403    -0.00001591
     6
  Step:     1            Position(A)                                  Velocity(au)
C        -0.03238091    -0.00234275     0.00458609     0.00004356    -0.00000299    -0.00019460
N        -0.03593186    -0.04426815     1.31324802    -0.00007928     0.00005691     0.00004402
H         0.91066687     0.06812738    -0.54401327    -0.00055412    -0.00020227     0.00063046
H         0.81350350    -0.14017546     1.83710533     0.00089209    -0.00025912     0.00074320
H        -1.01308021    -0.06355758     1.82491344     0.00022366    -0.00039318     0.00029641
H        -1.03885334     0.10890982    -0.52996889     0.00002104     0.00009944     0.00003718
     6
  Step:     2            Position(A)                                  Velocity(au)
C        -0.03217541    -0.00235991     0.00319241     0.00003103    -0.00000309    -0.00031425
N        -0.03644236    -0.04397196     1.31375673    -0.00010617     0.00005156     0.00014236
H         0.90771061     0.06710701    -0.54059167    -0.00052026    -0.00017212     0.00061608
H         0.81877710    -0.14156946     1.84147484     0.00102100    -0.00025075     0.00084525
H        -1.01120408    -0.06563744     1.82631313     0.00046052    -0.00036906     0.00021615
H        -1.03840117     0.10949238    -0.52962142     0.00014439     0.00011235     0.00008889
     6
  Step:     3            Position(A)                                  Velocity(au)
C        -0.03204163    -0.00237657     0.00115055     0.00001741    -0.00000282    -0.00043120
N        -0.03709258    -0.04370452     1.31480439    -0.00013020     0.00004641     0.00024072
H         0.90497914     0.06624574    -0.53727797    -0.00047169    -0.00014423     0.00059093
H         0.82466552    -0.14291679     1.84634602     0.00111641    -0.00024198     0.00092632
H        -1.00804556    -0.06759235     1.82727653     0.00069066    -0.00034769     0.00013801
H        -1.03727479     0.11013809    -0.52899712     0.00026649     0.00012260     0.00013781
     6
  Step:     4            Position(A)                                  Velocity(au)
C        -0.03198512    -0.00239074    -0.00152128     0.00000286    -0.00000221    -0.00054387
N        -0.03786561    -0.04346464     1.31638822    -0.00015084     0.00004145     0.00033782
H         0.90255423     0.06553029    -0.53413180    -0.00040774    -0.00011865     0.00055451
H         0.83098134    -0.14421474     1.85160108     0.00117658    -0.00023236     0.00098500
H        -1.00365403    -0.06943822     1.82782180     0.00090880    -0.00032898     0.00006438
H        -1.03548795     0.11083261    -0.52811497     0.00038448     0.00013035     0.00018246
     6
  Step:     5            Position(A)                                  Velocity(au)
C        -0.03201033    -0.00240078    -0.00479644    -0.00001235    -0.00000137    -0.00065047
N        -0.03874198    -0.04325128     1.31849835    -0.00016762     0.00003665     0.00043212
H         0.90052071     0.06494840    -0.53121470    -0.00032815    -0.00009508     0.00050661
H         0.83753091    -0.14545753     1.85711654     0.00120067    -0.00022129     0.00102039
H        -0.99810827    -0.07118962     1.82798050     0.00110889    -0.00031259    -0.00000208
H        -1.03307066     0.11156338    -0.52700198     0.00049506     0.00013598     0.00022127
     6
  Step:     6            Position(A)                                  Velocity(au)
C        -0.03212023    -0.00240568    -0.00863871    -0.00002789    -0.00000039    -0.00074902
N        -0.03969967    -0.04306366     1.32111648    -0.00018004     0.00003195     0.00052184
H         0.89896365     0.06448995    -0.52858846    -0.00023340    -0.00007316     0.00044749
H         0.84411901    -0.14663604     1.86276614     0.00118881    -0.00020822     0.00103222
H        -0.99152056    -0.07285860     1.82779909     0.00128425    -0.00029804    -0.00005845
H        -1.03007103     0.11232047    -0.52569379     0.00059463     0.00013998     0.00025257
     6
  Step:     7            Position(A)                                  Velocity(au)
C        -0.03231585    -0.00240501    -0.01300155    -0.00004334     0.00000061    -0.00083749
N        -0.04071418    -0.04290125     1.32421476    -0.00018765     0.00002735     0.00060504
H         0.89796400     0.06414703    -0.52631269    -0.00012490    -0.00005255     0.00037790
H         0.85055359    -0.14773841     1.86842391     0.00114211    -0.00019276     0.00102086
H        -0.98404010    -0.07445453     1.82734026     0.00142765    -0.00028489    -0.00010161
H        -1.02655688     0.11309679    -0.52423520     0.00067940     0.00014285     0.00027466
     6
  Step:     8            Position(A)                                  Velocity(au)
C        -0.03259582    -0.00239893    -0.01782782    -0.00005821     0.00000154    -0.00091390
N        -0.04175863    -0.04276362     1.32775507    -0.00019008     0.00002282     0.00067975
H         0.89759322     0.06391339    -0.52444204    -0.00000513    -0.00003305     0.00029920
H         0.85665048    -0.14875101     1.87396730     0.00106276    -0.00017474     0.00098740
H        -0.97585603    -0.07598448     1.82668420     0.00153176    -0.00027279    -0.00012839
H        -1.02261647     0.11388789    -0.52268015     0.00074564     0.00014505     0.00028594
     6
  Step:     9            Position(A)                                  Velocity(au)
C        -0.03295586    -0.00238807    -0.02305029    -0.00007191     0.00000231    -0.00097656
N        -0.04280415    -0.04265029     1.33168888    -0.00018706     0.00001841     0.00074412
H         0.89790759     0.06378365    -0.52302288     0.00012243    -0.00001459     0.00021334
H         0.86223909    -0.14965979     1.87928082     0.00095414    -0.00015427     0.00093370
H        -0.96719769    -0.07745400     1.82592861     0.00158991    -0.00026155    -0.00013589
H        -1.01835826     0.11469170    -0.52109117     0.00078988     0.00014699     0.00028505
     6
  Step:    10            Position(A)                                  Velocity(au)
C        -0.03338854    -0.00237345    -0.02859305    -0.00008388     0.00000287    -0.00102419
N        -0.04382068    -0.04256064     1.33595801    -0.00017855     0.00001416     0.00079662
H         0.89894281     0.06375254    -0.52209023     0.00025344     0.00000276     0.00012283
H         0.86716863    -0.15045159     1.88426008     0.00082084    -0.00013166     0.00086243
H        -0.95832938    -0.07886777     1.82518615     0.00159713    -0.00025110    -0.00012202
H        -1.01390909     0.11550823    -0.51953783     0.00080934     0.00014902     0.00027107
     6
  Step:    11            Position(A)                                  Velocity(au)
C        -0.03388325    -0.00235633    -0.03437378    -0.00009358     0.00000318    -0.00105618
N        -0.04477817    -0.04249374     1.34049630    -0.00016476     0.00001013     0.00083620
H         0.90070965     0.06381419    -0.52166492     0.00038307     0.00001886     0.00003054
H         0.87131432    -0.15111541     1.88881588     0.00066845    -0.00010745     0.00077699
H        -0.94953979    -0.08023021     1.82457951     0.00155093    -0.00024148    -0.00008574
H        -1.00941020     0.11633925    -0.51809422     0.00080226     0.00015145     0.00024365
     6
  Step:    12            Position(A)                                  Velocity(au)
C        -0.03442645    -0.00233816    -0.04030729    -0.00017591     0.00000564    -0.00187626
N        -0.04564802    -0.04244834     1.34523241    -0.00025565     0.00001115     0.00150861
H         0.90319145     0.06396175    -0.52175155     0.00088568     0.00005862    -0.00010572
H         0.87458247    -0.15164336     1.89287779     0.00088023    -0.00014399     0.00119168
H        -0.94112785    -0.08154605     1.82423518     0.00253935    -0.00040719    -0.00004773
H        -1.00501119     0.11718801    -0.51683553     0.00134359     0.00027033     0.00035523
     6
  Step:    13            Position(A)                                  Velocity(au)
C        -0.03540723    -0.00232787    -0.05043664    -0.00009544    -0.00000120    -0.00096136
N        -0.04700539    -0.04238487     1.35343736    -0.00012514     0.00000646     0.00078418
H         0.90866547     0.06439460    -0.52291982     0.00058779     0.00005253    -0.00016859
H         0.87901956    -0.15240809     1.89922703     0.00038793    -0.00007099     0.00059384
H        -0.92747377    -0.08379850     1.82421718     0.00127291    -0.00022094     0.00003314
H        -0.99802622     0.11876771    -0.51531509     0.00062774     0.00016394     0.00010001
     6
  Step:    14            Position(A)                                  Velocity(au)
C        -0.03594391    -0.00233551    -0.05579731    -0.00009409    -0.00000161    -0.00094084
N        -0.04762764    -0.04235771     1.35783921    -0.00009511     0.00000340     0.00077704
H         0.91223902     0.06471979    -0.52409007     0.00067524     0.00006229    -0.00024345
H         0.88067722    -0.15273123     1.90224302     0.00020354    -0.00004443     0.00047937
H        -0.92093219    -0.08501931     1.82470260     0.00103755    -0.00021401     0.00014640
H        -0.99475657     0.11970000    -0.51493756     0.00052657     0.00016811     0.00003078
     6
  Step:    15            Position(A)                                  Velocity(au)
C        -0.03646667    -0.00234596    -0.06103018    -0.00009064    -0.00000218    -0.00091733
N        -0.04807625    -0.04234664     1.36218659    -0.00006397     0.00000073     0.00076599
H         0.91626842     0.06509592    -0.52566102     0.00074974     0.00007070    -0.00031090
H         0.88131130    -0.15290840     1.90462459     0.00002617    -0.00001934     0.00036993
H        -0.91579134    -0.08620816     1.82586558     0.00078048    -0.00020959     0.00027179
H        -0.99209720     0.12066058    -0.51496852     0.00041278     0.00017404    -0.00004436
     6
  Step:    16            Position(A)                                  Velocity(au)
C        -0.03696398    -0.00236006    -0.06612055    -0.00008541    -0.00000289    -0.00089343
N        -0.04834758    -0.04234946     1.36645939    -0.00003267    -0.00000156     0.00075330
H         0.92067628     0.06551540    -0.52758878     0.00081184     0.00007796    -0.00037123
H         0.88097172    -0.15294892     1.90640602    -0.00014132     0.00000398     0.00026788
H        -0.91214899    -0.08737794     1.82776121     0.00051142    -0.00020763     0.00040550
H        -0.99011129     0.12165860    -0.51543673     0.00028976     0.00018184    -0.00012414
     6
  Step:    17            Position(A)                                  Velocity(au)
C        -0.03742624    -0.00237842    -0.07106800    -0.00007864    -0.00000370    -0.00087071
N        -0.04844327    -0.04236420     1.37065009    -0.00000194    -0.00000354     0.00074045
H         0.92538956     0.06597178    -0.52983191     0.00086206     0.00008423    -0.00042497
H         0.87972359    -0.15286368     1.90763422    -0.00029707     0.00002537     0.00017462
H        -0.91004538    -0.08854091     1.83042148     0.00023882    -0.00020782     0.00054373
H        -0.98884164     0.12270357    -0.51636331     0.00016028     0.00019142    -0.00020754
     6
  Step:    18            Position(A)                                  Velocity(au)
C        -0.03784553    -0.00240150    -0.07588059    -0.00007056    -0.00000457    -0.00084974
N        -0.04836929    -0.04238911     1.37475935     0.00002754    -0.00000524     0.00072811
H         0.93033939     0.06645955    -0.53235235     0.00090053     0.00008962    -0.00047246
H         0.87764179    -0.15266449     1.90836336    -0.00043945     0.00004470     0.00009105
H        -0.90947203    -0.08970741     1.83385610    -0.00002973    -0.00020960     0.00068244
H        -0.98831461     0.12380430    -0.51776313     0.00002678     0.00020251    -0.00029348
     6
  Step:    19            Position(A)                                  Velocity(au)
C        -0.03821523    -0.00242951    -0.08056939    -0.00006135    -0.00000547    -0.00083041
N        -0.04813531    -0.04242276     1.37879144     0.00005510    -0.00000670     0.00071634
H         0.93545884     0.06697382    -0.53511476     0.00092693     0.00009415    -0.00051386
H         0.87480992    -0.15236384     1.90865233    -0.00056647     0.00006178     0.00001802
H        -0.91037780    -0.09088459     1.83805221    -0.00028681    -0.00021229     0.00081724
H        -0.98854225     0.12496789    -0.51964488    -0.00010824     0.00021463    -0.00038068
     6
  Step:    20            Position(A)                                  Velocity(au)
C        -0.03852990    -0.00246247    -0.08514468    -0.00005119    -0.00000635    -0.00081221
N        -0.04775465    -0.04246390     1.38275088     0.00008001    -0.00000797     0.00070486
H         0.94068034     0.06750993    -0.53808497     0.00094072     0.00009783    -0.00054906
H         0.87132216    -0.15197521     1.90856434    -0.00067566     0.00007637    -0.00004352
H        -0.91267168    -0.09207574     1.84297325    -0.00052502    -0.00021511     0.00094348
H        -0.98952212     0.12619877    -0.52200998    -0.00024188     0.00022721    -0.00046752
     6
  Step:    21            Position(A)                                  Velocity(au)
C        -0.03878526    -0.00250017    -0.08961393    -0.00004033    -0.00000717    -0.00079458
N        -0.04724434    -0.04251146     1.38664056     0.00010157    -0.00000904     0.00069329
H         0.94593436     0.06806324    -0.54122889     0.00094138     0.00010063    -0.00057790
H         0.86728597    -0.15151343     1.90816772    -0.00076416     0.00008815    -0.00009241
H        -0.91622427    -0.09327995     1.84855852    -0.00073723    -0.00021730     0.00105665
H        -0.99123574     0.12749805    -0.52485107    -0.00037091     0.00023958    -0.00055218
     6
  Step:    22            Position(A)                                  Velocity(au)
C        -0.03897837    -0.00254216    -0.09398136    -0.00002903    -0.00000788    -0.00077702
N        -0.04662505    -0.04256447     1.39046104     0.00011912    -0.00000995     0.00068124
H         0.95114954     0.06862901    -0.54451187     0.00092867     0.00010251    -0.00060023
H         0.86282383    -0.15099493     1.90753667    -0.00082909     0.00009680    -0.00012747
H        -0.92087049    -0.09449235     1.85472440    -0.00091707    -0.00021820     0.00115270
H        -0.99364708     0.12886321    -0.52815088    -0.00049191     0.00025109    -0.00063271
     6
  Step:    23            Position(A)                                  Velocity(au)
C        -0.03910780    -0.00258776    -0.09824836    -0.00001758    -0.00000846    -0.00075917
N        -0.04592068    -0.04262203     1.39421066     0.00013210    -0.00001069     0.00066843
H         0.95625396     0.06920241    -0.54789876     0.00090276     0.00010349    -0.00061602
H         0.85807297    -0.15043781     1.90675128    -0.00086791     0.00010203    -0.00014765
H        -0.92641491    -0.09570464     1.86136755    -0.00105953    -0.00021728     0.00122845
H        -0.99670197     0.13028816    -0.53188184    -0.00060153     0.00026110    -0.00070721
     6
  Step:    24            Position(A)                                  Velocity(au)
C        -0.03917369    -0.00263609    -0.10241420    -0.00000631    -0.00000885    -0.00074082
N        -0.04515764    -0.04268325     1.39788597     0.00014017    -0.00001128     0.00065467
H         0.96117734     0.06977863    -0.55135463     0.00086422     0.00010359    -0.00062542
H         0.85318312    -0.14986157     1.90589658    -0.00087874     0.00010364    -0.00015221
H        -0.93263971    -0.09690587     1.86836995    -0.00116136    -0.00021416     0.00128179
H        -1.00032889     0.13176349    -0.53600659    -0.00069675     0.00026909    -0.00077402
     6
  Step:    25            Position(A)                                  Velocity(au)
C        -0.03917784    -0.00268608    -0.10647694     0.00000452    -0.00000904    -0.00072191
N        -0.04436381    -0.04274727     1.40148235     0.00014314    -0.00001170     0.00063987
H         0.96585323     0.07035306    -0.55484551     0.00081407     0.00010287    -0.00062872
H         0.84831248    -0.14928667     1.90506065    -0.00086058     0.00010150    -0.00014082
H        -0.93931456    -0.09808336     1.87560490    -0.00122126    -0.00020863     0.00131182
H        -1.00444104     0.13327700    -0.54047924    -0.00077509     0.00027462    -0.00083179
     6
  Step:    26            Position(A)                                  Velocity(au)
C        -0.03912353    -0.00273656    -0.11043419     0.00001462    -0.00000902    -0.00070250
N        -0.04356748    -0.04281322     1.40499454     0.00014107    -0.00001197     0.00062405
H         0.97022119     0.07092141    -0.55833936     0.00075365     0.00010140    -0.00062643
H         0.84362260    -0.14873398     1.90433215    -0.00081349     0.00009563    -0.00011368
H        -0.94620719    -0.09922365     1.88294347    -0.00123989    -0.00020066     0.00131878
H        -1.00893970     0.13481432    -0.54524726    -0.00083482     0.00027740    -0.00087958
     6
  Step:    27            Position(A)                                  Velocity(au)
C        -0.03901534    -0.00278627    -0.11428373     0.00002380    -0.00000876    -0.00068273
N        -0.04279615    -0.04288028     1.40841727     0.00013421    -0.00001209     0.00060730
H         0.97422836     0.07147988    -0.56180687     0.00068450     0.00009930    -0.00061913
H         0.83927230    -0.14822400     1.90379735    -0.00073869     0.00008616    -0.00007157
H        -0.95309318    -0.10031328     1.89026031    -0.00121948    -0.00019033     0.00130388
H        -1.01371827     0.13635969    -0.55025384    -0.00087498     0.00027727    -0.00091690
     6
  Step:    28            Position(A)                                  Velocity(au)
C        -0.03885890    -0.00283395    -0.11802401     0.00003190    -0.00000828    -0.00066281
N        -0.04207550    -0.04294762     1.41174577     0.00012299    -0.00001207     0.00058981
H         0.97783070     0.07202527    -0.56522216     0.00060837     0.00009669    -0.00060756
H         0.83541073    -0.14777615     1.90353653    -0.00063859     0.00007339    -0.00001589
H        -0.95976389    -0.10133951     1.89743848    -0.00116360    -0.00017783     0.00126910
H        -1.01866670     0.13789664    -0.55544026    -0.00089540     0.00027418    -0.00094370
     6
  Step:    29            Position(A)                                  Velocity(au)
C        -0.03866056    -0.00287834    -0.12165453     0.00003881    -0.00000758    -0.00064296
N        -0.04142844    -0.04301453     1.41497624     0.00010798    -0.00001194     0.00057180
H         0.98099375     0.07255512    -0.56856332     0.00052699     0.00009372    -0.00059249
H         0.83217077    -0.14740791     1.90362069    -0.00051670     0.00005771     0.00005142
H        -0.96603307    -0.10229085     1.90437336    -0.00107670    -0.00016342     0.00121692
H        -1.02367566     0.13940870    -0.56074831    -0.00089659     0.00026819    -0.00096029
     6
  Step:    30            Position(A)                                  Velocity(au)
C        -0.03842716    -0.00291827    -0.12517594     0.00004448    -0.00000668    -0.00062341
N        -0.04087441    -0.04308040     1.41810621     0.00008985    -0.00001170     0.00055356
H         0.98369270     0.07306773    -0.57181273     0.00044210     0.00009053    -0.00057471
H         0.82966322    -0.14713425     1.90410847    -0.00037743     0.00003963     0.00012790
H        -0.97174053    -0.10315729     1.91097492    -0.00096369    -0.00014738     0.00115014
H        -1.02863988     0.14087990    -0.56612209    -0.00087957     0.00025945    -0.00096729
     6
  Step:    31            Position(A)                                  Velocity(au)
C        -0.03816571    -0.00295264    -0.12859008     0.00004889    -0.00000559    -0.00060436
N        -0.04042885    -0.04314475     1.42113476     0.00006934    -0.00001141     0.00053537
H         0.98591218     0.07356227    -0.57495707     0.00035530     0.00008728    -0.00055497
H         0.82797183    -0.14696702     1.90504364    -0.00022591     0.00001974     0.00021076
H        -0.97675433    -0.10393050     1.91716894    -0.00082970    -0.00013001     0.00107162
H        -1.03346107     0.14229517    -0.57150960    -0.00084581     0.00024814    -0.00096549
     6
  Step:    32            Position(A)                                  Velocity(au)
C        -0.03788323    -0.00298048    -0.13189974     0.00005206    -0.00000434    -0.00058593
N        -0.04010297    -0.04320731     1.42406248     0.00004722    -0.00001108     0.00051745
H         0.98764556     0.07403876    -0.57798714     0.00026805     0.00008413    -0.00053400
H         0.82714988    -0.14691464     1.90645326    -0.00006772    -0.00000135     0.00029692
H        -0.98097137    -0.10460378     1.92289733    -0.00067980    -0.00011159     0.00098420
H        -1.03804997     0.14364058    -0.57686375    -0.00079702     0.00023446    -0.00095585
     6
  Step:    33            Position(A)                                  Velocity(au)
C        -0.03758653    -0.00300094    -0.13510827     0.00005404    -0.00000295    -0.00056819
N        -0.03990360    -0.04326796     1.42689120     0.00002424    -0.00001074     0.00050002
H         0.98889408     0.07449816    -0.58089759     0.00018166     0.00008124    -0.00051243
H         0.82721845    -0.14698199     1.90834674     0.00009139    -0.00002301     0.00038325
H        -0.98431676    -0.10517191     1.92811773    -0.00051884    -0.00009235     0.00089056
H        -1.04232751     0.14490341    -0.58214300    -0.00073503     0.00021861    -0.00093934
     6
  Step:    34            Position(A)                                  Velocity(au)
C        -0.03728213    -0.00301334    -0.13821929     0.00005489    -0.00000145    -0.00055114
N        -0.03983336    -0.04332680     1.42962390     0.00000114    -0.00001044     0.00048325
H         0.98966602     0.07494239    -0.58368651     0.00009729     0.00007881    -0.00049081
H         0.82816635    -0.14717055     1.91071591     0.00024581    -0.00004468     0.00046667
H        -0.98674205    -0.10563092     1.93280238    -0.00035132    -0.00007247     0.00079314
H        -1.04622520     0.14607203    -0.58731141    -0.00066172     0.00020076    -0.00091694
     6
  Step:    35            Position(A)                                  Velocity(au)
C        -0.03697620    -0.00301709    -0.14123651     0.00005467     0.00000014    -0.00053483
N        -0.03989088    -0.04338408     1.43226451    -0.00002139    -0.00001021     0.00046730
H         0.98997584     0.07537447    -0.58635501     0.00001596     0.00007705    -0.00046965
H         0.82995159    -0.14747878     1.91353576     0.00039026    -0.00006588     0.00054431
H        -0.98822317    -0.10597768     1.93693680    -0.00018139    -0.00005205     0.00069419
H        -1.04968524     0.14713571    -0.59233857    -0.00057895     0.00018104    -0.00088959
     6
  Step:    36            Position(A)                                  Velocity(au)
C        -0.03667447    -0.00301176    -0.14416403     0.00005346     0.00000181    -0.00051927
N        -0.04007117    -0.04344026     1.43481808    -0.00004276    -0.00001006     0.00045234
H         0.98984346     0.07579879    -0.58890680    -0.00006140     0.00007624    -0.00044935
H         0.83250418    -0.14790283     1.91676604     0.00052006    -0.00008629     0.00061358
H        -0.98875822    -0.10620948     1.94051852    -0.00001283    -0.00003111     0.00059573
H        -1.05266044     0.14808433    -0.59719943    -0.00048858     0.00015949    -0.00085820
     6
  Step:    37            Position(A)                                  Velocity(au)
C        -0.03638223    -0.00299702    -0.14700617     0.00005133     0.00000352    -0.00050448
N        -0.04036601    -0.04349590     1.43729054    -0.00006242    -0.00001003     0.00043849
H         0.98929365     0.07622153    -0.59134780    -0.00013395     0.00007679    -0.00043028
H         0.83573001    -0.14843754     1.92035326     0.00063126    -0.00010582     0.00067232
H        -0.98836572    -0.10632331     1.94355595     0.00015083    -0.00000948     0.00049961
H        -1.05511395     0.14890778    -0.60187407    -0.00039243     0.00013602    -0.00082366
     6
  Step:    38            Position(A)                                  Velocity(au)
C        -0.03610433    -0.00297270    -0.14976712     0.00004838     0.00000524    -0.00049036
N        -0.04076441    -0.04355169     1.43968826    -0.00007989    -0.00001012     0.00042575
H         0.98835567     0.07665171    -0.59368584    -0.00020090     0.00007943    -0.00041278
H         0.83951542    -0.14907816     1.92423332     0.00072076    -0.00012483     0.00071884
H        -0.98708302    -0.10631476     1.94606757     0.00030628     0.00001330     0.00040761
H        -1.05701909     0.14959508    -0.60634765    -0.00029234     0.00011030    -0.00078692
     6
  Step:    39            Position(A)                                  Velocity(au)
C        -0.03584512    -0.00293882    -0.15245033     0.00004468     0.00000693    -0.00047661
N        -0.04125303    -0.04360829     1.44201741    -0.00009480    -0.00001032     0.00041394
H         0.98706311     0.07710340    -0.59593063    -0.00026139     0.00008563    -0.00039722
H         0.84373225    -0.14982343     1.92833419     0.00078635    -0.00014459     0.00075193
H        -0.98496530    -0.10617566     1.94808148     0.00045034     0.00003845     0.00032148
H        -1.05835966     0.15013237    -0.61061081    -0.00019036     0.00008136    -0.00074913
     6
  Step:    40            Position(A)                                  Velocity(au)
C        -0.03560844    -0.00289575    -0.15505672     0.00004036     0.00000844    -0.00046212
N        -0.04181652    -0.04366627     1.44428234    -0.00010677    -0.00001057     0.00040227
H         0.98545467     0.07760202    -0.59809432    -0.00031381     0.00009970    -0.00038462
H         0.84824263    -0.15068286     1.93257854     0.00082653    -0.00016942     0.00077078
H        -0.98208491    -0.10588803     1.94963546     0.00057980     0.00006978     0.00024319
H        -1.05913177     0.15049806    -0.61466180    -0.00008974     0.00004626    -0.00071275
     6
  Step:    41            Position(A)                                  Velocity(au)
C        -0.03539737    -0.00284515    -0.15757738     0.00003560     0.00000828    -0.00043488
N        -0.04243756    -0.04372559     1.44648043    -0.00011528    -0.00001020     0.00038239
H         0.98358150     0.07820955    -0.60019784    -0.00034355     0.00014208    -0.00038892
H         0.85290228    -0.15170305     1.93688567     0.00084068    -0.00021778     0.00077582
H        -0.97853263    -0.10540143     1.95077955     0.00068945     0.00012142     0.00017726
H        -1.05935531     0.15064558    -0.61851857    -0.00000887    -0.00000254    -0.00069598
     6
  Step:    42            Position(A)                                  Velocity(au)
C        -0.03521356    -0.00280396    -0.15987989     0.00003039     0.00000381    -0.00037275
N        -0.04309505    -0.04377944     1.44852340    -0.00012062    -0.00000815     0.00033893
H         0.98164434     0.07917786    -0.60240783    -0.00032213     0.00020113    -0.00044246
H         0.85756653    -0.15309828     1.94118312     0.00083500    -0.00026823     0.00077294
H        -0.97443821    -0.10454139     1.95160143     0.00077564     0.00016617     0.00012643
H        -1.05923014     0.15046985    -0.62238084     0.00002557    -0.00003115    -0.00072512
     6
  Step:    43            Position(A)                                  Velocity(au)
C        -0.03506042    -0.00280295    -0.16170997     0.00002481    -0.00000354    -0.00028742
N        -0.04377487    -0.04381597     1.45023810    -0.00012339    -0.00000507     0.00027986
H         0.98001017     0.08043941    -0.60510326    -0.00026479     0.00024654    -0.00053307
H         0.86215975    -0.15467681     1.94545507     0.00081254    -0.00029098     0.00076288
H        -0.96993332    -0.10355913     1.95218121     0.00084048     0.00017867     0.00008772
H        -1.05907185     0.15030027    -0.62655775     0.00003089    -0.00002162    -0.00078166
     6
  Step:    44            Position(A)                                  Velocity(au)
C        -0.03493867    -0.00284315    -0.16306498     0.00001918    -0.00001092    -0.00020289
N        -0.04446243    -0.04383564     1.45162473    -0.00012348    -0.00000211     0.00022164
H         0.97871001     0.08190997    -0.60831514    -0.00020488     0.00028120    -0.00062651
H         0.86657084    -0.15632278     1.94963712     0.00077002    -0.00029842     0.00074092
H        -0.96512434    -0.10256140     1.95257354     0.00088584     0.00017758     0.00005922
H        -1.05888784     0.15023026    -0.63104286     0.00003639    -0.00000088    -0.00083596
     6