 Fermi distribution function

Calculation with static geometry


********************************************************************************
 iSCC Total electronic   Diff electronic      SCC error    
   12   -0.53405063E+01   -0.32445273E-08    0.92511533E-06
********************************************************************************

 Total charge:     1.00000000

 Atomic gross charges (e)
 Atom           Charge
    1       0.35062241
    2      -0.24686452
    3       0.16035163
    4       0.30343743
    5       0.27348902
    6       0.15896403

Nr. of electrons (up):     12.00000000
Atom populations (up)
 Atom       Population
    1       3.64937759
    2       5.24686452
    3       0.83964837
    4       0.69656257
    5       0.72651098
    6       0.84103597

l-shell populations (up)
 Atom Sh.   l       Population
    1   1   0       1.33529576
    1   2   1       2.31408183
    2   1   0       1.44775078
    2   2   1       3.79911374
    3   1   0       0.83964837
    4   1   0       0.69656257
    5   1   0       0.72651098
    6   1   0       0.84103597

Orbital populations (up)
 Atom Sh.   l   m       Population  Label
    1   1   0   0       1.33529576  s
    1   2   1  -1       0.52836226  p_y
    1   2   1   0       0.88706043  p_z
    1   2   1   1       0.89865914  p_x
    2   1   0   0       1.44775078  s
    2   2   1  -1       1.37987353  p_y
    2   2   1   0       1.06690122  p_z
    2   2   1   1       1.35233899  p_x
    3   1   0   0       0.83964837  s
    4   1   0   0       0.69656257  s
    5   1   0   0       0.72651098  s
    6   1   0   0       0.84103597  s

Fermi level:                        -0.4938774768 H          -13.4391 eV
Band energy:                        -8.7500713743 H         -238.1016 eV
TS:                                  0.0000000000 H            0.0000 eV
Band free energy (E-TS):            -8.7500713743 H         -238.1016 eV
Extrapolated E(0K):                 -8.7500713743 H         -238.1016 eV
Input / Output electrons (q):     12.0000000000     12.0000000000

Energy H0:                          -5.4746406350 H         -148.9726 eV
Energy SCC:                          0.1341342881 H            3.6500 eV
Total Electronic energy:            -5.3405063469 H         -145.3226 eV
Repulsive energy:                    0.1640006046 H            4.4627 eV
Total energy:                       -5.1765057423 H         -140.8599 eV
Extrapolated to 0:                  -5.1765057423 H         -140.8599 eV
Total Mermin free energy:           -5.1765057423 H         -140.8599 eV
Force related energy:               -5.1765057423 H         -140.8599 eV

SCC converged

Excitation Energy:                   0.0806283347 H            2.1940 eV

Total Forces
    1     -0.003395396218      0.003811703737      0.066276291088
    2     -0.001655485359      0.004528297489     -0.059688369773
    3     -0.008211261102     -0.018771576889      0.003017966038
    4     -0.015199233286      0.012261994219     -0.002192943293
    5      0.018335265498     -0.015100617927     -0.008518056231
    6      0.010126110466      0.013270199372      0.001105112170

Maximal derivative component:        0.662763E-01 au


