     6
  Step:     0            Position(A)                                  Velocity(au)
C        -0.03459833     0.02475961     0.01663371    -0.00013079     0.00007468    -0.00030980
N        -0.04721282    -0.05732697     1.30850128     0.00029965     0.00010144     0.00031872
H         0.94504818    -0.07240319    -0.57793461     0.00059983    -0.00041408     0.00021284
H         0.87285340    -0.08390351     1.80538650    -0.00088548    -0.00075932    -0.00130980
H        -0.96269768    -0.06973916     1.81960452    -0.00257949    -0.00070315     0.00073932
H        -0.99977986     0.05786660    -0.53661804     0.00025952    -0.00042299    -0.00037988
     6
  Step:     1            Position(A)                                  Velocity(au)
C        -0.03529794     0.02517759     0.01481724    -0.00012492     0.00007791    -0.00035227
N        -0.04557240    -0.05678128     1.31035205     0.00029685     0.00009813     0.00035626
H         0.94808975    -0.07467780    -0.57674571     0.00051070    -0.00041684     0.00022209
H         0.86779852    -0.08802836     1.79830171    -0.00094392    -0.00074902    -0.00126688
H        -0.97656794    -0.07360060     1.82367463    -0.00246349    -0.00070756     0.00073407
H        -0.99835607     0.05556380    -0.53886642     0.00026008    -0.00041856    -0.00044245
     6
  Step:     2            Position(A)                                  Velocity(au)
C        -0.03596568     0.02561238     0.01277783    -0.00011886     0.00008060    -0.00039004
N        -0.04396356    -0.05625286     1.31240088     0.00028746     0.00009489     0.00038972
H         0.95063833    -0.07696588    -0.57550361     0.00041912    -0.00041792     0.00023134
H         0.86252135    -0.09210222     1.79151932    -0.00096257    -0.00073897    -0.00119556
H        -0.98966286    -0.07748408     1.82763957    -0.00229347    -0.00070916     0.00070118
H        -0.99693307     0.05328506    -0.54146105     0.00025853    -0.00041309    -0.00050492
     6
  Step:     3            Position(A)                                  Velocity(au)
C        -0.03660068     0.02606105     0.01054213    -0.00011270     0.00008276    -0.00042270
N        -0.04242167    -0.05574119     1.31462361     0.00027190     0.00009180     0.00041840
H         0.95268357    -0.07925850    -0.57421008     0.00032672    -0.00041749     0.00023996
H         0.85724809    -0.09612800     1.78519761    -0.00093921    -0.00072988    -0.00109587
H        -1.00170588    -0.08137342     1.83136005    -0.00207794    -0.00070783     0.00064540
H        -0.99552245     0.05103605    -0.54440071     0.00025492    -0.00040669    -0.00056678
     6
  Step:     4            Position(A)                                  Velocity(au)
C        -0.03720255     0.02652066     0.00813886    -0.00010655     0.00008440    -0.00045000
N        -0.04097960    -0.05524541     1.31699258     0.00025072     0.00008892     0.00044183
H         0.95422394    -0.08154759    -0.57287021     0.00023506    -0.00041573     0.00024739
H         0.85221402    -0.10011232     1.77949265    -0.00087337    -0.00072244    -0.00096895
H        -1.01246724    -0.08525216     1.83472254    -0.00182560    -0.00070365     0.00057143
H        -0.99413546     0.04882185    -0.54768118     0.00024937    -0.00039949    -0.00062754
     6
  Step:     5            Position(A)                                  Velocity(au)
C        -0.03777138     0.02698833     0.00559791    -0.00010049     0.00008553    -0.00047186
N        -0.03966694    -0.05476425     1.31947806     0.00022461     0.00008631     0.00045981
H         0.95526618    -0.08382621    -0.57149196     0.00014553    -0.00041290     0.00025317
H         0.84765234    -0.10406549     1.77455164    -0.00076666    -0.00071727    -0.00081707
H        -1.02176393    -0.08910453     1.83763837    -0.00154487    -0.00069685     0.00048369
H        -0.99278258     0.04664680    -0.55129557     0.00024207    -0.00039166    -0.00068680
     6
  Step:     6            Position(A)                                  Velocity(au)
C        -0.03830769     0.02746137     0.00294934    -0.00009457     0.00008621    -0.00048834
N        -0.03850934    -0.05429612     1.32204956     0.00019433     0.00008404     0.00047233
H         0.95582448    -0.08608869    -0.57008580     0.00005935    -0.00040924     0.00025688
H         0.84378227    -0.10800087     1.77050644    -0.00062278    -0.00071485    -0.00064357
H        -1.02945775    -0.09291617     1.84004216    -0.00124351    -0.00068773     0.00038621
H        -0.99147320     0.04451437    -0.55523468     0.00023323    -0.00038335    -0.00074421
     6
  Step:     7            Position(A)                                  Velocity(au)
C        -0.03881236     0.02793725     0.00022264    -0.00008887     0.00008646    -0.00049961
N        -0.03752785    -0.05383916     1.32467713     0.00016077     0.00008214     0.00047961
H         0.95591951    -0.08833076    -0.56866436    -0.00002243    -0.00040499     0.00025817
H         0.84079728    -0.11193402     1.76746774    -0.00044745    -0.00071544    -0.00045271
H        -1.03545151    -0.09667459     1.84188946    -0.00092845    -0.00067666     0.00028252
H        -0.99021534     0.04242720    -0.55948731     0.00022314    -0.00037470    -0.00079945
     6
  Step:     8            Position(A)                                  Velocity(au)
C        -0.03928654     0.02841373    -0.00255380    -0.00008341     0.00008634    -0.00050593
N        -0.03673853    -0.05339134     1.32733236     0.00012484     0.00008062     0.00048199
H         0.95557738    -0.09054951    -0.56724207    -0.00009898    -0.00040038     0.00025673
H         0.83885376    -0.11588125     1.76551997    -0.00024821    -0.00071901    -0.00024956
H        -1.03968442    -0.10036938     1.84315406    -0.00060579    -0.00066399     0.00017569
H        -0.98901541     0.04038714    -0.56404045     0.00021207    -0.00036583    -0.00085220
     6
  Step:     9            Position(A)                                  Velocity(au)
C        -0.03973163     0.02888877    -0.00535309    -0.00007824     0.00008587    -0.00050755
N        -0.03615204    -0.05295061     1.32998908     0.00008753     0.00007948     0.00047991
H         0.95482871    -0.09274326    -0.56583494    -0.00016956    -0.00039561     0.00025229
H         0.83806174    -0.11985814     1.76471739    -0.00003405    -0.00072525    -0.00003974
H        -1.04212786    -0.10399229     1.84382576    -0.00028092    -0.00065008     0.00006842
H        -0.98787811     0.03839546    -0.56887930     0.00020035    -0.00035681    -0.00090213
     6
  Step:    10            Position(A)                                  Velocity(au)
C        -0.04014915     0.02936055    -0.00814994    -0.00007336     0.00008510    -0.00050475
N        -0.03577341    -0.05251501     1.33262382     0.00004986     0.00007867     0.00047386
H         0.95370779    -0.09491141    -0.56446038    -0.00023361    -0.00039083     0.00024459
H         0.83847829    -0.12387779     1.76508182     0.00018517    -0.00073354     0.00017084
H        -1.04278185    -0.10753706     1.84390841     0.00004128    -0.00063525    -0.00003692
H        -0.98680637     0.03645302    -0.57398719     0.00018828    -0.00034767    -0.00094884
     6
  Step:    11            Position(A)                                  Velocity(au)
C        -0.04054076     0.02982744    -0.01092068    -0.00006878     0.00008404    -0.00049782
N        -0.03560203    -0.05208283     1.33521590     0.00001284     0.00007815     0.00046431
H         0.95225195    -0.09705423    -0.56313702    -0.00029061    -0.00038616     0.00023344
H         0.84010419    -0.12794934     1.76660184     0.00039927    -0.00074300     0.00037625
H        -1.04167251    -0.11099931     1.84341857     0.00035623    -0.00061981    -0.00013808
H        -0.98580129     0.03456051    -0.57934528     0.00017619    -0.00033842    -0.00099187
     6
  Step:    12            Position(A)                                  Velocity(au)
C        -0.04090811     0.03028792    -0.01364325    -0.00006451     0.00008272    -0.00048701
N        -0.03563171    -0.05165269     1.33774739    -0.00002255     0.00007783     0.00045173
H         0.95050099    -0.09917261    -0.56188449    -0.00034016    -0.00038169     0.00021865
H         0.84288413    -0.13207659     1.76923359     0.00059841    -0.00075255     0.00057079
H        -1.03885100    -0.11437644     1.84238476     0.00065935    -0.00060403    -0.00023291
H        -0.98486219     0.03271868    -0.58493223     0.00016437    -0.00032900    -0.00103072
     6
  Step:    13            Position(A)                                  Velocity(au)
C        -0.04125289     0.03074062    -0.01629704    -0.00006054     0.00008115    -0.00047257
N        -0.03585096    -0.05122360     1.34020275    -0.00005538     0.00007766     0.00043650
H         0.94849677    -0.10126789    -0.56072322    -0.00038191    -0.00037746     0.00020012
H         0.84671035    -0.13625717     1.77290311     0.00077369    -0.00076103     0.00074934
H        -1.03439365    -0.11766755     1.84084738     0.00094595    -0.00058824    -0.00031922
H        -0.98398667     0.03092851    -0.59072389     0.00015315    -0.00031936    -0.00106480
     6
  Step:    14            Position(A)                                  Velocity(au)
C        -0.04157680     0.03118419    -0.01886284    -0.00005503     0.00008097    -0.00050456
N        -0.03624334    -0.05079497     1.34256852    -0.00008530     0.00007638     0.00045719
H         0.94628279    -0.10334168    -0.55967411    -0.00045738    -0.00041462     0.00021657
H         0.85142955    -0.14048223     1.77751006     0.00090090    -0.00072371     0.00090121
H        -1.02840297    -0.12087357     1.83885893     0.00123186    -0.00062521    -0.00040698
H        -0.98317059     0.02919132    -0.59669305     0.00016567    -0.00026272    -0.00105178
     6
  Step:    15            Position(A)                                  Velocity(au)
C        -0.04186109     0.03163550    -0.02187367    -0.00004775     0.00008218    -0.00058471
N        -0.03679374    -0.05037938     1.34525584    -0.00011176     0.00007389     0.00051550
H         0.94344164    -0.10585042    -0.55832957    -0.00056534    -0.00048033     0.00026793
H         0.85666749    -0.14425593     1.78286362     0.00097290    -0.00065207     0.00101984
H        -1.02077869    -0.12457756     1.83634931     0.00151326    -0.00070297    -0.00049391
H        -0.98215567     0.02802485    -0.60234856     0.00020120    -0.00017060    -0.00099004
     6
  Step:    16            Position(A)                                  Velocity(au)
C        -0.04210511     0.03209335    -0.02533166    -0.00004058     0.00008301    -0.00066174
N        -0.03747974    -0.04997756     1.34827162    -0.00013356     0.00007132     0.00057208
H         0.94002825    -0.10865573    -0.55670994    -0.00066060    -0.00052649     0.00031349
H         0.86219298    -0.14769625     1.78879284     0.00100343    -0.00059535     0.00110846
H        -1.01166136    -0.12865073     1.83339473     0.00176183    -0.00076250    -0.00056451
H        -0.98094471     0.02730397    -0.60764605     0.00023487    -0.00009583    -0.00092188
     6
  Step:    17            Position(A)                                  Velocity(au)
C        -0.04231062     0.03255509    -0.02920486    -0.00003383     0.00008328    -0.00073122
N        -0.03827344    -0.04958928     1.35159362    -0.00014990     0.00006879     0.00062310
H         0.93612312    -0.11168323    -0.55485655    -0.00073923    -0.00056093     0.00035027
H         0.86778404    -0.15085159     1.79514377     0.00099421    -0.00054505     0.00116910
H        -1.00126005    -0.13302494     1.83009538     0.00196650    -0.00081114    -0.00061475
H        -0.97955366     0.02696324    -0.61256170     0.00026461    -0.00003125    -0.00085025
     6
  Step:    18            Position(A)                                  Velocity(au)
C        -0.04248054     0.03301760    -0.03344667    -0.00002770     0.00008295    -0.00079106
N        -0.03914329    -0.04921409     1.35518674    -0.00016022     0.00006638     0.00066672
H         0.93182433    -0.11488083    -0.55282267    -0.00079845    -0.00058682     0.00037646
H         0.87322666    -0.15374522     1.80176743     0.00094775    -0.00049779     0.00120310
H        -0.98983733    -0.13765269     1.82657228     0.00211839    -0.00085216    -0.00064121
H        -0.97800809     0.02695717    -0.61708206     0.00028882     0.00002583    -0.00077710
     6
  Step:    19            Position(A)                                  Velocity(au)
C        -0.04261860     0.03347751    -0.03800146    -0.00002232     0.00008202    -0.00084019
N        -0.04005514    -0.04885110     1.35900759    -0.00016426     0.00006419     0.00070189
H         0.92724428    -0.11820867    -0.55067026    -0.00083634    -0.00060628     0.00039090
H         0.87832305    -0.15638708     1.80852228     0.00086808    -0.00045189     0.00121254
H        -0.97770347    -0.14250096     1.82296513     0.00221054    -0.00088813    -0.00064116
H        -0.97634200     0.02725049    -0.62120315     0.00030622     0.00007692    -0.00070437
     6
  Step:    20            Position(A)                                  Velocity(au)
C        -0.04272925     0.03393158    -0.04280891    -0.00001782     0.00008057    -0.00087841
N        -0.04097362    -0.04849883     1.36300797    -0.00016198     0.00006234     0.00072828
H         0.92250491    -0.12163664    -0.54846686    -0.00085198    -0.00062118     0.00039303
H         0.88289976    -0.15878062     1.81527882     0.00076058    -0.00040666     0.00120048
H        -0.96520517    -0.14754920     1.81942777     0.00223865    -0.00092159    -0.00061293
H        -0.97459586     0.02781424    -0.62493084     0.00031598     0.00012301    -0.00063397
     6
  Step:    21            Position(A)                                  Velocity(au)
C        -0.04281752     0.03437703    -0.04780834    -0.00001427     0.00007872    -0.00090633
N        -0.04186356    -0.04815509     1.36713843    -0.00015364     0.00006100     0.00074623
H         0.91773242    -0.12514372    -0.54628232    -0.00084550    -0.00063332     0.00038291
H         0.88681446    -0.16092719     1.82192486     0.00063138    -0.00036205     0.00117078
H        -0.95271034    -0.15278995     1.81612218     0.00220153    -0.00095521    -0.00055600
H        -0.97281432     0.02862386    -0.62828104     0.00031767     0.00016495    -0.00056778
     6
  Step:    22            Position(A)                                  Velocity(au)
C        -0.04288884     0.03481176    -0.05294296    -0.00001172     0.00007662    -0.00092524
N        -0.04269154    -0.04781681     1.37135190    -0.00013972     0.00006031     0.00075666
H         0.91305103    -0.12871804    -0.54418539    -0.00081800    -0.00064451     0.00036113
H         0.88995952    -0.16282885     1.82836978     0.00048675    -0.00031832     0.00112778
H        -0.94058894    -0.15822983     1.81321087     0.00210118    -0.00099183    -0.00047112
H        -0.97104382     0.02965866    -0.63127941     0.00031129     0.00020353    -0.00050742
     6
  Step:    23            Position(A)                                  Velocity(au)
C        -0.04294872     0.03523454    -0.05816345    -0.00001016     0.00007443    -0.00093680
N        -0.04342726    -0.04748009     1.37560681    -0.00012086     0.00006044     0.00076082
H         0.90857750    -0.13235691    -0.54224067    -0.00077122    -0.00065641     0.00032860
H         0.89226213    -0.16448980     1.83454677     0.00033249    -0.00027586     0.00107579
H        -0.92919432    -0.16389027     1.81084948     0.00194219    -0.00103412    -0.00036005
H        -0.96933042     0.03090177    -0.63395997     0.00029707     0.00023957    -0.00045412
     6
  Step:    24            Position(A)                                  Velocity(au)
C        -0.04300257     0.03564494    -0.06342994    -0.00000954     0.00007227    -0.00094269
N        -0.04404450    -0.04714018     1.37986893    -0.00009782     0.00006151     0.00076006
H         0.90441765    -0.13606624    -0.54050693    -0.00070710    -0.00067048     0.00028635
H         0.89368161    -0.16591690     1.84041272     0.00017359    -0.00023496     0.00101867
H        -0.91884712    -0.16980631     1.80918034     0.00173109    -0.00108438    -0.00022542
H        -0.96771830     0.03234048    -0.63636302     0.00027536     0.00027387    -0.00040863
     6
  Step:    25            Position(A)                                  Velocity(au)
C        -0.04305546     0.03604321    -0.06871193    -0.00000978     0.00007023    -0.00094429
N        -0.04452182    -0.04679178     1.38411175    -0.00007141     0.00006359     0.00075554
H         0.90066519    -0.13985940    -0.53903650    -0.00062761    -0.00068772     0.00023542
H         0.89420456    -0.16711898     1.84594552     0.00001412    -0.00019585     0.00095950
H        -0.90982375    -0.17602426     1.80832711     0.00147580    -0.00114409    -0.00007066
H        -0.96624915     0.03396631    -0.63853249     0.00024653     0.00030716    -0.00037125
     6
  Step:    26            Position(A)                                  Velocity(au)
C        -0.04311186     0.03643010    -0.07398680    -0.00001075     0.00006836    -0.00094256
N        -0.04484287    -0.04642931     1.38831556    -0.00004254     0.00006667     0.00074812
H         0.89740121    -0.14375468    -0.53787503    -0.00053468    -0.00070867     0.00017684
H         0.89383951    -0.16810642     1.85113957    -0.00014248    -0.00015863     0.00090055
H        -0.90234828    -0.18259681     1.80839037     0.00118545    -0.00121372     0.00009996
H        -0.96496219     0.03577439    -0.64051343     0.00021087     0.00033999    -0.00034186
     6
  Step:    27            Position(A)                                  Velocity(au)
C        -0.04317550     0.03680654    -0.07923715    -0.00001231     0.00006664    -0.00093797
N        -0.04499680    -0.04604731     1.39246567    -0.00001217     0.00007070     0.00073836
H         0.89469464    -0.14777286    -0.53706179    -0.00043031    -0.00073340     0.00011168
H         0.89261356    -0.16889031     1.85600155    -0.00029308    -0.00012334     0.00084345
H        -0.89658636    -0.18957739     1.80944337     0.00087055    -0.00129261     0.00028125
H        -0.96389443     0.03776280    -0.64234985     0.00016870     0.00037273    -0.00032006
     6
  Step:    28            Position(A)                                  Velocity(au)
C        -0.04324919     0.03717339    -0.08444831    -0.00001428     0.00006504    -0.00093065
N        -0.04497865    -0.04564075     1.39655077     0.00001857     0.00007555     0.00072661
H         0.89260184    -0.15193458    -0.53662941    -0.00031675    -0.00076155     0.00004115
H         0.89057065    -0.16948206     1.86054693    -0.00043460    -0.00009004     0.00078946
H        -0.89263876    -0.19701374     1.81152731     0.00054306    -0.00137897     0.00046705
H        -0.96308067     0.03993156    -0.64408317     0.00012040     0.00040556    -0.00030527
     6
  Step:    29            Position(A)                                  Velocity(au)
C        -0.04333465     0.03753127    -0.08960642    -0.00001647     0.00006350    -0.00092052
N        -0.04478989    -0.04520549     1.40056155     0.00004850     0.00008104     0.00071307
H         0.89116544    -0.15625805    -0.53660332    -0.00019664    -0.00079240    -0.00003336
H         0.88777127    -0.16989352     1.86479774    -0.00056384    -0.00005883     0.00073960
H        -0.89053551    -0.20494186     1.81464721     0.00021613    -0.00147003     0.00065044
H        -0.96255296     0.04228155    -0.64575118     0.00006656     0.00043849    -0.00029676
     6
  Step:    30            Position(A)                                  Velocity(au)
C        -0.04343251     0.03788035    -0.09469728    -0.00001864     0.00006192    -0.00090747
N        -0.04443867    -0.04473848     1.40448995     0.00007638     0.00008693     0.00069789
H         0.89041247    -0.16075702    -0.53700081    -0.00007309    -0.00082501    -0.00011020
H         0.88429293    -0.17013710     1.86878154    -0.00067758    -0.00002991     0.00069484
H        -0.89023236    -0.21338088     1.81876926    -0.00009665    -0.00156234     0.00082426
H        -0.96233957     0.04481366    -0.64738721     0.00000802     0.00047140    -0.00029368
     6
  Step:    31            Position(A)                                  Velocity(au)
C        -0.04354215     0.03822044    -0.09970596    -0.00002060     0.00006025    -0.00089137
N        -0.04393980    -0.04423804     1.40832868     0.00010104     0.00009296     0.00068123
H         0.89035197    -0.16543994    -0.53782981     0.00005040    -0.00085831    -0.00018757
H         0.88023018    -0.17022636     1.87253084    -0.00077268    -0.00000351     0.00065609
H        -0.89161117    -0.22232980     1.82382068    -0.00038221    -0.00165204     0.00098155
H        -0.96246365     0.04752800    -0.64901969    -0.00005412     0.00050409    -0.00029514
     6
  Step:    32            Position(A)                                  Velocity(au)
C        -0.04366177     0.03855087    -0.10461700    -0.00002213     0.00005840    -0.00087221
N        -0.04331425    -0.04370396     1.41207113     0.00012143     0.00009888     0.00066323
H         0.89097336    -0.17030890    -0.53908816     0.00017012    -0.00089112    -0.00026354
H         0.87569400    -0.17017617     1.87608297    -0.00084628     0.00002008     0.00062427
H        -0.89448587    -0.23176583     1.82969257    -0.00062908    -0.00173520     0.00111623
H        -0.96294184     0.05042347    -0.65067170    -0.00011852     0.00053628    -0.00030014
     6
  Step:    33            Position(A)                                  Velocity(au)
C        -0.04378845     0.03887055    -0.10941479    -0.00002304     0.00005631    -0.00085009
N        -0.04258816    -0.04313742     1.41571127     0.00013674     0.00010443     0.00064404
H         0.89224565    -0.17535925    -0.54076332     0.00028236    -0.00092225    -0.00033622
H         0.87080996    -0.17000284     1.87947972    -0.00089605     0.00004057     0.00060015
H        -0.89861370    -0.24164488     1.83624573    -0.00082834    -0.00180825     0.00122356
H        -0.96378290     0.05349751    -0.65236062    -0.00018362     0.00056769    -0.00030765
     6
  Step:    34            Position(A)                                  Velocity(au)
C        -0.04391832     0.03917802    -0.11408421    -0.00002318     0.00005392    -0.00082524
N        -0.04179147    -0.04254094     1.41924365     0.00014644     0.00010942     0.00062385
H         0.89411790    -0.18057972    -0.54283256     0.00038366    -0.00095064    -0.00040389
H         0.86571493    -0.16972434     1.88276671    -0.00092040     0.00005774     0.00058441
H        -0.90371090    -0.25190383     1.84331902    -0.00097423    -0.00186827     0.00130049
H        -0.96498679     0.05674563    -0.65409794    -0.00024777     0.00059805    -0.00031666
     6
  Step:    35            Position(A)                                  Velocity(au)
C        -0.04404679     0.03947148    -0.11861140    -0.00002246     0.00005119    -0.00079804
N        -0.04095625    -0.04191803     1.42266354     0.00015032     0.00011370     0.00060285
H         0.89652120    -0.18595327    -0.54526427     0.00047109    -0.00097542    -0.00046508
H         0.86055289    -0.16935935     1.88599241    -0.00091866     0.00007149     0.00057744
H        -0.90947069    -0.26246517     1.85073860    -0.00106435    -0.00191329     0.00134577
H        -0.96654410     0.06016231    -0.65588946    -0.00030929     0.00062724    -0.00032616
     6
  Step:    36            Position(A)                                  Velocity(au)
C        -0.04416884     0.03974895    -0.12298441    -0.00002083     0.00004810    -0.00076895
N        -0.04011505    -0.04127294     1.42596704     0.00014846     0.00011717     0.00058127
H         0.89937176    -0.19145819    -0.54801946     0.00054239    -0.00099598    -0.00051872
H         0.85546946    -0.16892702     1.88920672    -0.00089122     0.00008180     0.00057939
H        -0.91558118    -0.27324199     1.85832785    -0.00109948    -0.00194234     0.00135989
H        -0.96843613     0.06374094    -0.65773549    -0.00036658     0.00065513    -0.00033527
     6
  Step:    37            Position(A)                                  Velocity(au)
C        -0.04427931     0.04000833    -0.12719379    -0.00001830     0.00004464    -0.00073854
N        -0.03929922    -0.04061028     1.42915120     0.00014125     0.00011982     0.00055935
H         0.90257487    -0.19706956    -0.55105378     0.00059609    -0.00101198    -0.00056410
H         0.85060582    -0.16844635     1.89245909    -0.00083955     0.00008880     0.00059001
H        -0.92174215    -0.28414387     1.86591650    -0.00108311    -0.00195547     0.00134482
H        -0.97063556     0.06747427    -0.65963143    -0.00041826     0.00068172    -0.00034319
     6
  Step:    38            Position(A)                                  Velocity(au)
C        -0.04437319     0.04024753    -0.13123304    -0.00001490     0.00004083    -0.00070737
N        -0.03853748    -0.03993473     1.43221431     0.00012924     0.00012166     0.00053733
H         0.90602939    -0.20276084    -0.55431985     0.00063152    -0.00102334    -0.00060095
H         0.84609264    -0.16793528     1.89579651    -0.00076610     0.00009275     0.00060870
H        -0.92767830    -0.29508240     1.87334797    -0.00102067    -0.00195362     0.00130362
H        -0.97310759     0.07135497    -0.66156850    -0.00046317     0.00070710    -0.00034927
     6
  Step:    39            Position(A)                                  Velocity(au)
C        -0.04444583     0.04046456    -0.13509874    -0.00001073     0.00003668    -0.00067602
N        -0.03785497    -0.03925073     1.43515595     0.00011316     0.00012277     0.00051549
H         0.90963213    -0.20850544    -0.55776946     0.00064875    -0.00103024    -0.00062936
H         0.84204458    -0.16740989     1.89926133    -0.00067418     0.00009407     0.00063446
H        -0.93314817    -0.30597566     1.88048448    -0.00091877    -0.00193837     0.00123998
H        -0.97581146     0.07537615    -0.66353453    -0.00050044     0.00073143    -0.00035301
     6
  Step:    40            Position(A)                                  Velocity(au)
C        -0.04449316     0.04065757    -0.13879037    -0.00000590     0.00003223    -0.00064496
N        -0.03727247    -0.03856229     1.43797702     0.00009380     0.00012323     0.00049403
H         0.91328184    -0.21427803    -0.56135554     0.00064845    -0.00103301    -0.00064970
H         0.83855591    -0.16688362     1.90288926    -0.00056767     0.00009331     0.00066598
H        -0.93794938    -0.31675170     1.88720990    -0.00078450    -0.00191169     0.00115785
H        -0.97870205     0.07953171    -0.66551489    -0.00052948     0.00075490    -0.00035406
     6
  Step:    41            Position(A)                                  Velocity(au)
C        -0.04451178     0.04082494    -0.14230998    -0.00000053     0.00002752    -0.00061458
N        -0.03680621    -0.03787293     1.44067970     0.00007197     0.00012313     0.00047317
H         0.91688243    -0.22005548    -0.56503378     0.00063175    -0.00103209    -0.00066258
H         0.83569752    -0.16636665     1.90670767    -0.00045085     0.00009107     0.00070165
H        -0.94191960    -0.32735022     1.89343039    -0.00062481    -0.00187572     0.00106110
H        -0.98173153     0.08381668    -0.66749325    -0.00054994     0.00077773    -0.00035217
     6
  Step:    42            Position(A)                                  Velocity(au)
C        -0.04449905     0.04096523    -0.14566166     0.00000525     0.00002257    -0.00058516
N        -0.03646781    -0.03718559     1.44326728     0.00004846     0.00012258     0.00045305
H         0.92034520    -0.22581737    -0.56876356     0.00060008    -0.00102797    -0.00066870
H         0.83351513    -0.16586543     1.91073412    -0.00032820     0.00008805     0.00073963
H        -0.94493511    -0.33772326     1.89907352    -0.00044625    -0.00183257     0.00095329
H        -0.98485072     0.08822721    -0.66945229    -0.00056170     0.00080012    -0.00034720
     6
  Step:    43            Position(A)                                  Velocity(au)
C        -0.04445305     0.04107723    -0.14885097     0.00001132     0.00001742    -0.00055688
N        -0.03626450    -0.03650271     1.44574396     0.00002402     0.00012165     0.00043380
H         0.92359023    -0.23154625    -0.57250859     0.00055501    -0.00102112    -0.00066882
H         0.83202882    -0.16538247     1.91497538    -0.00020417     0.00008494     0.00077795
H        -0.94690780    -0.34783485     1.90408639    -0.00025469    -0.00178419     0.00083763
H        -0.98801027     0.09276050    -0.67137429    -0.00056478     0.00082221    -0.00033911
     6
  Step:    44            Position(A)                                  Velocity(au)
C        -0.04437258     0.04115992    -0.15188432     0.00001754     0.00001211    -0.00052981
N        -0.03619945    -0.03582622     1.44811456    -0.00000069     0.00012043     0.00041546
H         0.92654693    -0.23722747    -0.57623698     0.00049816    -0.00101198    -0.00066367
H         0.83123376    -0.16491628     1.91942700    -0.00008300     0.00008246     0.00081458
H        -0.94778104    -0.35766000     1.90843326    -0.00005533    -0.00173236     0.00071687
H        -0.99116160     0.09741460    -0.67324155    -0.00055935     0.00084409    -0.00032792
     6