     6
  Step:   300            Position(A)                                  Velocity(au)
C        -0.03420810     0.00569228     0.02761965    -0.00002107    -0.00001201     0.00011589
N        -0.04069539    -0.05006373     1.28745315     0.00005612     0.00002331    -0.00011219
H         0.02472673    -0.89607168    -0.58853997    -0.00198352     0.00040420    -0.00044600
H        -0.14733579     0.78857433     1.88224374    -0.00250814    -0.00056080     0.00036012
H        -0.04850056    -0.92357339     1.82624247     0.00188136     0.00028417     0.00065551
H        -0.06869707     0.98915619    -0.44791890     0.00208141    -0.00030834    -0.00039156
