     6
  Step:     0            Position(A)                                  Velocity(au)
C        -0.03446730     0.02960095     0.03556039     0.00002194     0.00006782    -0.00012669
N        -0.05361890    -0.07220556     1.28662759     0.00005589    -0.00000064     0.00016458
H         0.89677141     0.01951043    -0.51020254     0.00057093    -0.00013071    -0.00060388
H         0.88466812    -0.03032768     1.81406383    -0.00017061    -0.00028505    -0.00062412
H        -0.87031663    -0.00556516     1.83901833    -0.00115768     0.00000653     0.00035508
H        -0.96823879    -0.00272782    -0.55400750    -0.00028073    -0.00038996     0.00009548
     6
  Step:     1            Position(A)                                  Velocity(au)
C        -0.03426173     0.03045039     0.03336073     0.00001660     0.00008706    -0.00027174
N        -0.05276787    -0.07232219     1.28918359     0.00009381    -0.00001997     0.00029988
H         0.90421037     0.01805279    -0.51808403     0.00075931    -0.00013582    -0.00081777
H         0.88117935    -0.03342223     1.80676076    -0.00044517    -0.00027978    -0.00069158
H        -0.88491976    -0.00510470     1.84463151    -0.00144350     0.00007220     0.00062436
H        -0.97186159    -0.00713664    -0.55374422    -0.00037203    -0.00041638    -0.00004430
     6
  Step:     2            Position(A)                                  Velocity(au)
C        -0.03410415     0.03150549     0.02961564     0.00001305     0.00010512    -0.00040635
N        -0.05156666    -0.07264248     1.29318813     0.00011856    -0.00003764     0.00042638
H         0.91338275     0.01653918    -0.52809285     0.00088427    -0.00014076    -0.00099005
H         0.87492924    -0.03644847     1.79893419    -0.00066169    -0.00027222    -0.00071216
H        -0.90189589    -0.00398568     1.85267736    -0.00158460     0.00012651     0.00079547
H        -0.97637766    -0.01183690    -0.55497675    -0.00044107    -0.00044298    -0.00017631
     6
  Step:     3            Position(A)                                  Velocity(au)
C        -0.03397614     0.03274998     0.02447108     0.00001101     0.00012143    -0.00052523
N        -0.05017414    -0.07314561     1.29851142     0.00012815    -0.00005325     0.00053812
H         0.92355541     0.01497345    -0.53974327     0.00094184    -0.00014515    -0.00111723
H         0.86670365    -0.03937752     1.79118092    -0.00079330    -0.00026174    -0.00067160
H        -0.91958597    -0.00233715     1.86203385    -0.00157758     0.00016928     0.00086719
H        -0.98151085    -0.01682768    -0.55760134    -0.00048295    -0.00046922    -0.00029759
     6
  Step:     4            Position(A)                                  Velocity(au)
C        -0.03386337     0.03416190     0.01812529     0.00001007     0.00013554    -0.00062431
N        -0.04876307    -0.07380747     1.30496043     0.00012196    -0.00006659     0.00062992
H         0.93398734     0.01336366    -0.55253448     0.00093370    -0.00014863    -0.00119954
H         0.85757428    -0.04217460     1.78424162    -0.00081714    -0.00024794    -0.00055927
H        -0.93640844    -0.00028232     1.87164881    -0.00143639     0.00020152     0.00085063
H        -0.98694319    -0.02210206    -0.56148705    -0.00049498    -0.00049459    -0.00040612
     6
  Step:     5            Position(A)                                  Velocity(au)
C        -0.03375573     0.03571518     0.01081308     0.00000993     0.00014717    -0.00070109
N        -0.04750609    -0.07460245     1.31229213     0.00010063    -0.00007760     0.00069818
H         0.94398189     0.01172189    -0.56598555     0.00086544    -0.00015082    -0.00123986
H         0.84882723    -0.04480171     1.77894592    -0.00072009    -0.00023072    -0.00037114
H        -0.95100966     0.00207148     1.88064310    -0.00118532     0.00022495     0.00076374
H        -0.99233954    -0.02764779    -0.56648607    -0.00047669    -0.00051867    -0.00050080
     6
  Step:     6            Position(A)                                  Velocity(au)
C        -0.03364623     0.03738147     0.00278768     0.00001034     0.00015618    -0.00075462
N        -0.04656159    -0.07550507     1.32023456     0.00006621    -0.00008633     0.00074136
H         0.95292056     0.01006407    -0.57965874     0.00074508    -0.00015139    -0.00124274
H         0.84182083    -0.04722200     1.77612213    -0.00050545    -0.00021045    -0.00011297
H        -0.96233956     0.00463885     1.88835705    -0.00085312     0.00024172     0.00062687
H        -0.99737164    -0.03344893    -0.57244312    -0.00042966    -0.00054122    -0.00058130
     6
  Step:     7            Position(A)                                  Velocity(au)
C        -0.03352963     0.03913189    -0.00569569     0.00001123     0.00016259    -0.00078535
N        -0.04605771    -0.07649103     1.32851079     0.00002221    -0.00009293     0.00076001
H         0.96028196     0.00840998    -0.59317287     0.00058175    -0.00015004    -0.00121356
H         0.83776954    -0.04940563     1.77647457    -0.00019754    -0.00018810     0.00019809
H        -0.96967334     0.00735953     1.89435718    -0.00046944     0.00025424     0.00046025
H        -1.00173925    -0.03948808    -0.57920309    -0.00035730    -0.00056212    -0.00064789
     6
  Step:     8            Position(A)                                  Velocity(au)
C        -0.03340049     0.04093848    -0.01439333     0.00001337     0.00017132    -0.00089757
N        -0.04607561    -0.07753806     1.33686120    -0.00002733    -0.00010333     0.00083523
H         0.96564737     0.00678160    -0.60620779     0.00032382    -0.00002849    -0.00107112
H         0.83749927    -0.05133698     1.78045574     0.00012222    -0.00028170     0.00051517
H        -0.97260952     0.01020084     1.89842583    -0.00002335     0.00037013     0.00026163
H        -1.00518820    -0.04574629    -0.58661691    -0.00020210    -0.00066550    -0.00061681
     6
  Step:     9            Position(A)                                  Velocity(au)
C        -0.03323721     0.04287989    -0.02533182     0.00001709     0.00018210    -0.00109889
N        -0.04665569    -0.07875148     1.34678301    -0.00007635    -0.00011764     0.00097563
H         0.96736618     0.00778675    -0.61660559    -0.00001784     0.00017654    -0.00082090
H         0.84044323    -0.05556839     1.78774485     0.00039444    -0.00045057     0.00080186
H        -0.97018414     0.01545674     1.90008088     0.00045503     0.00054710     0.00004449
H        -1.00616063    -0.05404706    -0.59269693     0.00002574    -0.00080807    -0.00048879
     6
  Step:    10            Position(A)                                  Velocity(au)
C        -0.03302663     0.04492223    -0.03843360     0.00002162     0.00018943    -0.00128157
N        -0.04774591    -0.08011176     1.35820498    -0.00011812    -0.00012982     0.00110018
H         0.96525709     0.01064375    -0.62416659    -0.00036066     0.00033496    -0.00056530
H         0.84612839    -0.06119412     1.79799798     0.00061370    -0.00056539     0.00105425
H        -0.96265488     0.02216968     1.89939924     0.00088508     0.00066822    -0.00014612
H        -1.00462505    -0.06342429    -0.59731009     0.00024574    -0.00089090    -0.00036015
     6
  Step:    11            Position(A)                                  Velocity(au)
C        -0.03276427     0.04702403    -0.05336853     0.00002626     0.00019307    -0.00143206
N        -0.04923982    -0.08159165     1.37085156    -0.00014765    -0.00013973     0.00119834
H         0.95947613     0.01511471    -0.62897251    -0.00067668     0.00047748    -0.00032596
H         0.85386908    -0.06793731     1.81080867     0.00075829    -0.00066152     0.00126377
H        -0.95082121     0.03007535     1.89688418     0.00121899     0.00077532    -0.00027680
H        -1.00078460    -0.07353716    -0.60057595     0.00043837    -0.00095013    -0.00024907
     6
  Step:    12            Position(A)                                  Velocity(au)
C        -0.03245214     0.04914597    -0.06976268     0.00003032     0.00019335    -0.00154829
N        -0.05097613    -0.08316856     1.38442095    -0.00016043    -0.00014803     0.00126916
H         0.95045343     0.02108951    -0.63129763    -0.00094024     0.00061247    -0.00012021
H         0.86271743    -0.07566603     1.82564546     0.00081014    -0.00074793     0.00142187
H        -0.93598722     0.03913123     1.89334370     0.00141155     0.00088615    -0.00032144
H        -0.99503485    -0.08421023    -0.60275905     0.00058670    -0.00099757    -0.00016748
     6
  Step:    13            Position(A)                                  Velocity(au)
C        -0.03210102     0.05125392    -0.08724029     0.00003282     0.00019082    -0.00163088
N        -0.05274950    -0.08483002     1.39861687    -0.00015331    -0.00015578     0.00131380
H         0.93890652     0.02851376    -0.63160224    -0.00112402     0.00074398     0.00003498
H         0.87159235    -0.08429962     1.84191473     0.00076374    -0.00082753     0.00152603
H        -0.91994091     0.04946162     1.88985205     0.00142419     0.00101525    -0.00025975
H        -0.98794943    -0.09536085    -0.60423982     0.00067551    -0.00104064    -0.00012474
     6
  Step:    14            Position(A)                                  Velocity(au)
C        -0.03173419     0.05332049    -0.10544125     0.00003245     0.00018611    -0.00168162
N        -0.05433008    -0.08657658     1.41316291    -0.00012542    -0.00016416     0.00133459
H         0.92586325     0.03736541    -0.63053231    -0.00119978     0.00087462     0.00012342
H         0.87942571    -0.09376984     1.85903030     0.00062609    -0.00090067     0.00157951
H        -0.90483043     0.06134175     1.88766109     0.00123694     0.00117503    -0.00008329
H        -0.98025669    -0.10697621    -0.60548797     0.00069289    -0.00108528    -0.00012735
     6
  Step:    15            Position(A)                                  Velocity(au)
C        -0.03139107     0.05532534    -0.12402894     0.00002769     0.00017976    -0.00170284
N        -0.05549322    -0.08842143     1.42781363    -0.00007898    -0.00017408     0.00133489
H         0.91265914     0.04764780    -0.62890226    -0.00114194     0.00100706     0.00013179
H         0.88528933    -0.10400341     1.87646948     0.00041419    -0.00096675     0.00158983
H        -0.89288040     0.07516759     1.88802990     0.00086289     0.00137310     0.00019736
H        -0.97279114    -0.11910332    -0.60702595     0.00063254    -0.00113625    -0.00017796
     6
  Step:    16            Position(A)                                  Velocity(au)
C        -0.03112851     0.05725311    -0.14269411     0.00001713     0.00017211    -0.00169723
N        -0.05605796    -0.09038502     1.44236613    -0.00001975    -0.00018578     0.00131899
H         0.90088117     0.05939673    -0.62764909    -0.00093449     0.00114450     0.00005326
H         0.88848690    -0.11491930     1.89381089     0.00015179    -0.00102507     0.00156720
H        -0.88595315     0.09138105     1.89197873     0.00035676     0.00160812     0.00054907
H        -0.96641860    -0.13183379    -0.60938122     0.00049625    -0.00119673    -0.00027448
     6
  Step:    17            Position(A)                                  Velocity(au)
C        -0.03101628     0.05909065    -0.16115907     0.00000016     0.00016320    -0.00166795
N        -0.05592525    -0.09248571     1.45666912     0.00004368    -0.00019856     0.00129167
H         0.89221531     0.07268582    -0.62773699    -0.00058015     0.00129048    -0.00010826
H         0.88861008    -0.12642882     1.91075487    -0.00013354    -0.00107518     0.00152315
H        -0.88507558     0.11034831     1.90004178    -0.00019077     0.00186691     0.00092066
H        -0.96193477    -0.14528411    -0.61303065     0.00029565    -0.00126767    -0.00040970
     6
  Step:    18            Position(A)                                  Velocity(au)
C        -0.03112504     0.06082348    -0.17918380    -0.00002246     0.00015281    -0.00161896
N        -0.05510246    -0.09472881     1.47062397     0.00010160    -0.00021088     0.00125741
H         0.88818925     0.08762843    -0.63001749    -0.00010808     0.00144805    -0.00033536
H         0.88556545    -0.13844102     1.92713280    -0.00041293    -0.00111722     0.00146977
H        -0.89012657     0.13222329     1.91211988    -0.00067540     0.00212591     0.00125564
H        -0.95995070    -0.15956640    -0.61834425     0.00005213    -0.00134712    -0.00057193
     6
  Step:    19            Position(A)                                  Velocity(au)
C        -0.03150761     0.06243360    -0.19657686    -0.00004828     0.00014060    -0.00155512
N        -0.05370246    -0.09709903     1.48417740     0.00014557    -0.00022082     0.00121968
H         0.88985081     0.10436465    -0.63507364     0.00042543     0.00161814    -0.00059832
H         0.87957640    -0.15087006     1.94290892    -0.00065839    -0.00115200     0.00141897
H        -0.89985129     0.15685659     1.92751140    -0.00100881     0.00235734     0.00150773
H        -0.96079442    -0.17475489    -0.62554276    -0.00020574    -0.00143020    -0.00074658
     6
  Step:    20            Position(A)                                  Velocity(au)
C        -0.03218131     0.06389946    -0.21320506    -0.00007367     0.00012636    -0.00148177
N        -0.05191789    -0.09955977     1.49730679     0.00017003    -0.00022670     0.00118043
H         0.89749624     0.12302841    -0.64310694     0.00094678     0.00179809    -0.00086121
H         0.87116192    -0.16364315     1.95817538    -0.00084503    -0.00118104     0.00138177
H        -0.91219623     0.18379466     1.94510429    -0.00114001     0.00253721     0.00165106
H        -0.96445160    -0.19085473    -0.63467712    -0.00044662    -0.00150966    -0.00091845
     6
  Step:    21            Position(A)                                  Velocity(au)
C        -0.03311933     0.06519801    -0.22899352    -0.00009484     0.00011008    -0.00140377
N        -0.04998276    -0.10205846     1.51000163     0.00017289    -0.00022741     0.00114011
H         0.91056336     0.14370130    -0.65391425     0.00138279     0.00198125    -0.00109063
H         0.86108981    -0.17670765     1.97313783    -0.00095361    -0.00120640     0.00136726
H        -0.92479126     0.21236295     1.96363147    -0.00105983     0.00265087     0.00168147
H        -0.97056511    -0.20778160    -0.64563567    -0.00064182    -0.00157719    -0.00107410
     6
  Step:    22            Position(A)                                  Velocity(au)
C        -0.03425606     0.06630768    -0.24391523    -0.00010895     0.00009201    -0.00132474
N        -0.04813553    -0.10453484     1.52224887     0.00015502    -0.00022263     0.00109816
H         0.92774744     0.16637196    -0.66696656     0.00167833     0.00215828    -0.00126319
H         0.85029988    -0.19003536     1.98808687    -0.00097338    -0.00123025     0.00138108
H        -0.93538214     0.24178762     1.98188972    -0.00079121     0.00269433     0.00161077
H        -0.97849268    -0.22535869    -0.65817504    -0.00076960    -0.00162491    -0.00120347
     6
  Step:    23            Position(A)                                  Velocity(au)
C        -0.03550293     0.06721087    -0.25797480    -0.00011478     0.00007256    -0.00124681
N        -0.04659143    -0.10692891     1.53402607     0.00011935    -0.00021264     0.00105378
H         0.94728000     0.19091781    -0.68154887     0.00180591     0.00231934    -0.00136850
H         0.83979517    -0.20362180     2.00335150    -0.00090490    -0.00125441     0.00142368
H        -0.94210058     0.27130647     1.99887025    -0.00037427     0.00267207     0.00145890
H        -0.98740150    -0.24332965    -0.67196381    -0.00081757    -0.00164669    -0.00130069
     6
  Step:    24            Position(A)                                  Velocity(au)
C        -0.03676700     0.06789518    -0.27119165    -0.00011253     0.00005222    -0.00117076
N        -0.04552454    -0.10918676     1.54530228     0.00007013    -0.00019819     0.00100640
H         0.96725528     0.21711201    -0.69690514     0.00176483     0.00245644    -0.00140761
H         0.83050341    -0.21747791     2.01923266    -0.00076153    -0.00127950     0.00148913
H        -0.94356998     0.30024434     2.01380597     0.00014598     0.00259398     0.00124777
H        -0.99637861    -0.26138327    -0.68663012    -0.00078282    -0.00163898    -0.00136384
     6
  Step:    25            Position(A)                                  Velocity(au)
C        -0.03796482     0.06835336    -0.28358732    -0.00010341     0.00003144    -0.00109643
N        -0.04505725    -0.11126478     1.55604303     0.00001232    -0.00018037     0.00095600
H         0.98588899     0.24465724    -0.71234312     0.00157305     0.00256452    -0.00138880
H         0.82313520    -0.23161334     2.03592916    -0.00056846    -0.00130443     0.00156499
H        -0.93890695     0.32805479     2.02616767     0.00072659     0.00247278     0.00099802
H        -1.00452717    -0.27918544    -0.70180046    -0.00067013    -0.00160092    -0.00139411
     6
  Step:    26            Position(A)                                  Velocity(au)
C        -0.03902921     0.06858291    -0.29517809    -0.00008891     0.00001062    -0.00102321
N        -0.04525506    -0.11313268     1.56621666    -0.00004883    -0.00016051     0.00090302
H         1.00166868     0.27321573    -0.72728780     0.00125782     0.00264115    -0.00132335
H         0.81806716    -0.24601480     2.05346976    -0.00035884    -0.00132612     0.00163385
H        -0.92767450     0.35434118     2.03563963     0.00132880     0.00232301     0.00072823
H        -1.01103899    -0.29640653    -0.71712886    -0.00048972    -0.00153402    -0.00139482
     6
  Step:    27            Position(A)                                  Velocity(au)
C        -0.03990991     0.06858571    -0.30597194    -0.00007049    -0.00000984    -0.00095032
N        -0.04612552    -0.11477625     1.57579827    -0.00010819    -0.00014022     0.00084807
H         1.01340616     0.30243748    -0.74129401     0.00084843     0.00268614    -0.00122269
H         0.81528483    -0.26062480     2.07167278    -0.00016746    -0.00133996     0.00167655
H        -0.90983681     0.37887516     2.04209916     0.00191724     0.00216128     0.00045566
H        -1.01524077    -0.31274512    -0.73231485    -0.00025486    -0.00144159    -0.00137051
     6
  Step:    28            Position(A)                                  Velocity(au)
C        -0.04057126     0.06836758    -0.31596820    -0.00004931    -0.00002960    -0.00087700
N        -0.04762183    -0.11620022     1.58476976    -0.00016111    -0.00012135     0.00079159
H         1.02022962     0.33198028    -0.75403645     0.00037233     0.00270084    -0.00109697
H         0.81440368    -0.27532890     2.09014748    -0.00002400    -0.00134075     0.00167594
H        -0.88573120     0.40162339     2.04560809     0.00245825     0.00200726     0.00019739
H        -1.01661453    -0.32794410    -0.74711135     0.00001987    -0.00132823    -0.00132621
     6
  Step:    29            Position(A)                                  Velocity(au)
C        -0.04098872     0.06793817    -0.32515808    -0.00002627    -0.00004831    -0.00080255
N        -0.04965006    -0.11743106     1.59311588    -0.00020375    -0.00010602     0.00073357
H         1.02155155     0.36152347    -0.76529235    -0.00014612     0.00268765    -0.00095481
H         0.81475978    -0.28995616     2.10833710     0.00005197    -0.00132396     0.00162007
H        -0.85605793     0.42278788     2.04641734     0.00291903     0.00188477    -0.00002886
H        -1.01480597    -0.34180266    -0.76132832     0.00031964    -0.00119941    -0.00126714
     6
  Step:    30            Position(A)                                  Velocity(au)
C        -0.04114600     0.06731060    -0.33352544    -0.00000203    -0.00006569    -0.00072630
N        -0.05207932    -0.11851955     1.60081792    -0.00023332    -0.00009650     0.00067339
H         1.01703288     0.39077770    -0.77492467    -0.00068538     0.00264989    -0.00080353
H         0.81554052    -0.30429301     2.12558957     0.00005313    -0.00128676     0.00150388
H        -0.82187183     0.44285626     2.04497665     0.00326886     0.00182187    -0.00020497
H        -1.00962178    -0.35418347    -0.77483245     0.00062996    -0.00106119    -0.00119845
     6
  Step:    31            Position(A)                                  Velocity(au)
C        -0.04103311     0.06650109    -0.34104720     0.00002289    -0.00008147    -0.00064762
N        -0.05475448    -0.11954216     1.60784753    -0.00024834    -0.00009505     0.00061005
H         1.00655751     0.41949497    -0.78287117    -0.00122586     0.00259185    -0.00064969
H         0.81592216    -0.31810658     2.14123736    -0.00001625    -0.00122862     0.00132919
H        -0.78454527     0.46264479     2.04193319     0.00348355     0.00184856    -0.00031461
H        -1.00102442    -0.36501819    -0.78754672     0.00093683    -0.00092008    -0.00112530
     6
  Step:    32            Position(A)                                  Velocity(au)
C        -0.04064520     0.06552826    -0.34769329     0.00004804    -0.00009549    -0.00056585
N        -0.05751223    -0.12059890     1.61416385    -0.00024900    -0.00010342     0.00054253
H         0.99021484     0.44747934    -0.78913787    -0.00174909     0.00251891    -0.00049947
H         0.81518495    -0.33117143     2.15466805    -0.00014296    -0.00115136     0.00110341
H        -0.74566243     0.48329712     2.03809405     0.00355306     0.00199044    -0.00034763
H        -0.98912686    -0.37431206    -0.79945059     0.00122675    -0.00078301    -0.00105291
     6
  Step:    33            Position(A)                                  Velocity(au)
C        -0.03998209     0.06441215    -0.35342620     0.00007297    -0.00010767    -0.00048028
N        -0.06020184    -0.12180457     1.61971650    -0.00023758    -0.00012213     0.00047039
H         0.96829273     0.47460098    -0.79379808    -0.00223690     0.00243797    -0.00035919
H         0.81279459    -0.34329469     2.16537656    -0.00030771    -0.00105895     0.00083796
H        -0.70681523     0.50618945     2.03432809     0.00348990     0.00225838    -0.00030592
H        -0.97418702    -0.38214804    -0.81058104     0.00148676    -0.00065723    -0.00098659
     6
  Step:    34            Position(A)                                  Velocity(au)
C        -0.03904880     0.06317277    -0.35820027     0.00009717    -0.00011812    -0.00039012
N        -0.06270984    -0.12327062     1.62445455    -0.00021853    -0.00014969     0.00039413
H         0.94127848     0.50081450    -0.79699587    -0.00267094     0.00235772    -0.00023558
H         0.80845320    -0.35433797     2.17300003    -0.00048776    -0.00095715     0.00054672
H        -0.66931413     0.53270351     2.03140154     0.00333301     0.00263737    -0.00020771
H        -0.95660122    -0.38869014    -0.82103411     0.00170464    -0.00055023    -0.00093181
     6
  Step:    35            Position(A)                                  Velocity(au)
C        -0.03785634     0.06182810    -0.36196079     0.00011999    -0.00012714    -0.00029452
N        -0.06498264    -0.12507931     1.62833893    -0.00019786    -0.00018224     0.00031530
H         0.90986089     0.52618062    -0.79895177    -0.00303264     0.00228908    -0.00013599
H         0.80212399    -0.36423427     2.17733706    -0.00065900    -0.00085301     0.00024480
H        -0.63389928     0.56388704     2.02978400     0.00314185     0.00308092    -0.00008693
H        -0.93689482    -0.39418533    -0.83096613     0.00186952    -0.00046943    -0.00089393
     6
  Step:    36            Position(A)                                  Velocity(au)
C        -0.03642374     0.06039138    -0.36464336     0.00014064    -0.00013529    -0.00019260
N        -0.06703843    -0.12725752     1.63135229    -0.00018188    -0.00021405     0.00023595
H         0.87493375     0.55089250    -0.79997102    -0.00330404     0.00224509    -0.00006826
H         0.79403638    -0.37299912     2.17835560    -0.00079763    -0.00075422    -0.00005241
H        -0.60058008     0.60010462     2.02949983     0.00298034     0.00351744     0.00001457
H        -0.91570200    -0.39895992    -0.84059062     0.00197291    -0.00042163    -0.00087777
     6
  Step:    37            Position(A)                                  Velocity(au)
C        -0.03477950     0.05886832    -0.36617422     0.00015824    -0.00014336    -0.00008361
N        -0.06896160    -0.12976195     1.63350079    -0.00017567    -0.00023887     0.00015790
H         0.83757860     0.57529629    -0.80044515    -0.00347028     0.00223992    -0.00003973
H         0.78467426    -0.38073431     2.17619043    -0.00088180    -0.00066845    -0.00033037
H        -0.56869856     0.64083769     2.03010272     0.00289755     0.00386850     0.00005897
H        -0.89373375    -0.40340921    -0.85016906     0.00201003    -0.00041216    -0.00088683
     6
  Step:    38            Position(A)                                  Velocity(au)
C        -0.03296188     0.05725503    -0.36647252     0.00017200    -0.00015223     0.00003283
N        -0.07088144    -0.13248321     1.63480670    -0.00018204    -0.00025163     0.00008207
H         0.79901476     0.59989499    -0.80084018    -0.00352328     0.00228640    -0.00005554
H         0.77474529    -0.38762276     2.17112808    -0.00089355    -0.00060237    -0.00057670
H        -0.53719069     0.68473541     2.03078992     0.00291538     0.00407058     0.00002275
H        -0.87172867    -0.40797673    -0.85999181     0.00198152    -0.00044388    -0.00092223
     6
  Step:    39            Position(A)                                  Velocity(au)
C        -0.03101661     0.05553809    -0.36545596     0.00018150    -0.00016257     0.00015644
N        -0.07294400    -0.13526681     1.63529624    -0.00020137    -0.00024949     0.00000836
H         0.76050011     0.62531560    -0.80166013    -0.00346632     0.00239181    -0.00011601
H         0.76512609    -0.39391234     2.16357395    -0.00082120    -0.00056065    -0.00078299
H        -0.50491895     0.72988947     2.03060041     0.00302843     0.00408914    -0.00009977
H        -0.85038426    -0.41311984    -0.87034469     0.00189457    -0.00051603    -0.00098158
     6
  Step:    40            Position(A)                                  Velocity(au)
C        -0.02899112     0.05369854    -0.36305004     0.00018693    -0.00017451     0.00028594
N        -0.07528673    -0.13794131     1.63498955    -0.00023205    -0.00023205    -0.00006396
H         0.72318231     0.65222030    -0.80337820    -0.00331705     0.00255268    -0.00021401
H         0.75677991    -0.39988803     2.15399872    -0.00066183    -0.00054488    -0.00094662
H        -0.47093805     0.77419322     2.02860722     0.00321277     0.00392002    -0.00029966
H        -0.83028130    -0.41926588    -0.88146570     0.00176324    -0.00062356    -0.00105815
     6
  Step:    41            Position(A)                                  Velocity(au)
C        -0.02692709     0.05172028    -0.35920054     0.00018908    -0.00018730     0.00041888
N        -0.07802048    -0.14034339     1.63389697    -0.00027112    -0.00020083    -0.00013565
H         0.68793340     0.68116047    -0.80634196    -0.00310610     0.00275099    -0.00033367
H         0.75064731    -0.40583270     2.14286475    -0.00042335    -0.00055269    -0.00107226
H        -0.43463345     0.81564740     2.02404478     0.00343682     0.00358140    -0.00055981
H        -0.81181003    -0.42676142    -0.89349374     0.00160715    -0.00075696    -0.00114073
     6
  Step:    42            Position(A)                                  Velocity(au)
C        -0.02485466     0.04960098    -0.35388617     0.00018900    -0.00019922     0.00055181
N        -0.08121797    -0.14233480     1.63202203    -0.00031476    -0.00015848    -0.00020699
H         0.65523036     0.71240350    -0.81067793    -0.00287014     0.00295408    -0.00045192
H         0.74751830    -0.41197924     2.13054088    -0.00012504    -0.00057745    -0.00117199
H        -0.39575097     0.85254320     2.01636041     0.00366863     0.00310276    -0.00086068
H        -0.79512184    -0.43582576    -0.90642135     0.00144846    -0.00090313    -0.00121440
     6
  Step:    43            Position(A)                                  Velocity(au)
C        -0.02279236     0.04736205    -0.34712858     0.00018739    -0.00020793     0.00068044
N        -0.08490645    -0.14381046     1.62936856    -0.00035846    -0.00010800    -0.00027762
H         0.62514352     0.74578652    -0.81622864    -0.00264073     0.00311973    -0.00054205
H         0.74791185    -0.41846547     2.11722530     0.00020416    -0.00060969    -0.00126303
H        -0.35437513     0.88352613     2.00521582     0.00387733     0.00251551    -0.00118330
H        -0.78012220    -0.44651916    -0.92006115     0.00130759    -0.00104696    -0.00126185
     6
  Step:    44            Position(A)                                  Velocity(au)
C        -0.02075512     0.04505219    -0.33900030     0.00018390    -0.00021132     0.00079939
N        -0.08905998    -0.14469757     1.62594853    -0.00039666    -0.00005165    -0.00034654
H         0.59745942     0.78065346    -0.82253635    -0.00243405     0.00320549    -0.00057646
H         0.75198476    -0.42531746     2.10290972     0.00052761    -0.00064345    -0.00136156
H        -0.31092689     0.90757485     1.99047352     0.00402861     0.00184723    -0.00150824
H        -0.76651581    -0.45873011    -0.93402682     0.00119864    -0.00117331    -0.00126377
     6