    14
  Step:     0            Position(A)                                  Velocity(au)
C        -6.05913209    -0.69993462    -0.15337726    -0.00035308     0.00022939    -0.00028076
C        -4.69133599    -0.75184696     0.15083675     0.00031789    -0.00005836     0.00016697
H        -6.60550675     0.27587620    -0.31639134    -0.00086527    -0.00043554     0.00112073
H        -6.69074437    -1.61181829    -0.07231939     0.00093254    -0.00039771     0.00056683
H        -4.29609109    -1.74953047     0.36977396    -0.00051538    -0.00004015     0.00007425
C        -3.87966835     0.41360597     0.00330873     0.00013835     0.00005944    -0.00005059
C        -2.53312333     0.39934444     0.17752426    -0.00005436     0.00001497     0.00006374
H        -4.34454954     1.35725410    -0.32305465     0.00036275    -0.00057157     0.00034907
H        -1.90989825    -0.43468334     0.40456566     0.00045649    -0.00008112    -0.00060392
C        -1.81415485     1.64866129     0.00189273     0.00037559    -0.00014105    -0.00002580
H        -2.46089516     2.43389437    -0.39288186     0.00041293    -0.00067891    -0.00000089
N        -0.53066078     1.89365542     0.17535345    -0.00040447     0.00003161    -0.00003949
H        -0.18580327     2.85598509     0.09547220    -0.00074526     0.00071572     0.00005859
H         0.03032465     1.16580770     0.66474013     0.00052475    -0.00019380     0.00049083
    14
  Step:     1            Position(A)                                  Velocity(au)
C        -6.06306853    -0.69739409    -0.15637941    -0.00036201     0.00023307    -0.00026625
C        -4.68800068    -0.75248523     0.15257395     0.00028819    -0.00005597     0.00014925
H        -6.61412566     0.26986696    -0.30410897    -0.00071770    -0.00064514     0.00111844
H        -6.68005215    -1.61547077    -0.06644258     0.00101112    -0.00027331     0.00050346
H        -4.30124944    -1.74951674     0.37085338    -0.00042057     0.00003228     0.00012577
C        -3.87856191     0.41417774     0.00271134     0.00006363     0.00004222    -0.00005777
C        -2.53315830     0.39976441     0.17824594     0.00005096     0.00006107     0.00006843
H        -4.34059921     1.35058641    -0.31903482     0.00034610    -0.00062184     0.00037600
H        -1.90495884    -0.43691477     0.39830295     0.00043601    -0.00031671    -0.00054314
C        -1.81045841     1.64701494     0.00154450     0.00029596    -0.00016231    -0.00003783
H        -2.45589229     2.42696749    -0.39279096     0.00049133    -0.00057257     0.00001105
N        -0.53481864     1.89396737     0.17500649    -0.00034996     0.00002622    -0.00002231
H        -0.19389998     2.86309973     0.09623853    -0.00074024     0.00056271     0.00008291
H         0.03574076     1.16496604     0.66945082     0.00044455     0.00006317     0.00035365
    14
  Step:     2            Position(A)                                  Velocity(au)
C        -6.06705180    -0.69483574    -0.15920207    -0.00036161     0.00023238    -0.00024812
C        -4.68503134    -0.75307136     0.15410187     0.00025185    -0.00004851     0.00012891
H        -6.62120773     0.26176263    -0.29192329    -0.00058890    -0.00081131     0.00110275
H        -6.66862419    -1.61779740    -0.06130518     0.00106470    -0.00015937     0.00043234
H        -4.30529182    -1.74882438     0.37252537    -0.00031244     0.00008387     0.00018208
C        -3.87827626     0.41452955     0.00204486    -0.00001155     0.00001873    -0.00006314
C        -2.53200839     0.40068052     0.17902128     0.00016201     0.00010522     0.00007359
H        -4.33697805     1.34365013    -0.31482896     0.00030116    -0.00061823     0.00038188
H        -1.90035973    -0.44161197     0.39268352     0.00039203    -0.00052541    -0.00048772
C        -1.80768026     1.64511051     0.00106504     0.00020925    -0.00018807    -0.00004956
H        -2.45014629     2.42136838    -0.39264009     0.00054759    -0.00043727     0.00001036
N        -0.53831674     1.89422907     0.17486539    -0.00028582     0.00002255    -0.00000250
H        -0.20199746     2.86829540     0.09728612    -0.00074222     0.00037392     0.00010886
H         0.04004994     1.16718956     0.67247680     0.00033149     0.00035363     0.00019089
    14
  Step:     3            Position(A)                                  Velocity(au)
C        -6.07097949    -0.69231038    -0.16180759    -0.00035213     0.00022684    -0.00022682
C        -4.68249089    -0.75354645     0.15539403     0.00021105    -0.00003527     0.00010641
H        -6.62700903     0.25211802    -0.27998410    -0.00048780    -0.00092032     0.00107352
H        -6.65675969    -1.61895735    -0.05698438     0.00108919    -0.00006367     0.00035482
H        -4.30808463    -1.74768197     0.37483664    -0.00019362     0.00011569     0.00024184
C        -3.87881466     0.41458740     0.00133012    -0.00008733    -0.00001204    -0.00006660
C        -2.52961411     0.40206637     0.17985590     0.00027829     0.00014671     0.00007929
H        -4.33401067     1.33706148    -0.31068039     0.00022648    -0.00055830     0.00036504
H        -1.89638239    -0.44840923     0.38763320     0.00032176    -0.00069617    -0.00043995
C        -1.80588059     1.64290052     0.00046018     0.00011879    -0.00021788    -0.00006053
H        -2.44391260     2.41740136    -0.39256421     0.00058026    -0.00027649    -0.00000168
N        -0.54107151     1.89446070     0.17495176    -0.00021631     0.00002073     0.00001859
H        -0.21013753     2.87127989     0.09862003    -0.00074465     0.00016849     0.00013403
H         0.04299263     1.17270245     0.67362694     0.00020432     0.00065160     0.00001893
    14
  Step:     4            Position(A)                                  Velocity(au)
C        -6.07475525    -0.68987323    -0.16416426    -0.00033457     0.00021616    -0.00020301
C        -4.68041432    -0.75384291     0.15642988     0.00016887    -0.00001530     0.00008239
H        -6.63187937     0.24162882    -0.26843800    -0.00042220    -0.00096089     0.00103150
H        -6.64479601    -1.61919036    -0.05354272     0.00108181     0.00000711     0.00027216
H        -4.30952768    -1.74629341     0.37781600    -0.00006755     0.00013118     0.00030317
C        -3.88018673     0.41426612     0.00058796    -0.00016490    -0.00005113    -0.00006826
C        -2.52592026     0.40389015     0.18075594     0.00039959     0.00018527     0.00008557
H        -4.33202327     1.33143632    -0.30684302     0.00012364    -0.00044521     0.00032546
H        -1.89332053    -0.45684195     0.38305882     0.00022581    -0.00082203    -0.00040105
C        -1.80508156     1.64034398    -0.00025925     0.00002806    -0.00025103    -0.00007031
H        -2.43745192     2.41531968    -0.39267694     0.00058991    -0.00009616    -0.00002242
N        -0.54304885     1.89468249     0.17527208    -0.00014606     0.00002068     0.00003956
H        -0.21828808     2.87198137     0.10021828    -0.00074086    -0.00003314     0.00015594
H         0.04451993     1.18144464     0.67289098     0.00008260     0.00093135    -0.00014571
    14
  Step:     5            Position(A)                                  Velocity(au)
C        -6.07829883    -0.68758156    -0.16624878    -0.00031094     0.00020033    -0.00017756
C        -4.67879656    -0.75388120     0.15719646     0.00012938     0.00001244     0.00005757
H        -6.63624555     0.23109664    -0.25741798    -0.00039753    -0.00092615     0.00097849
H        -6.63309302    -1.61880177    -0.05103031     0.00104137     0.00004797     0.00018545
H        -4.30956252    -1.74481216     0.38146905     0.00006169     0.00013583     0.00036385
C        -3.88242210     0.41346875    -0.00016311    -0.00024615    -0.00009938    -0.00006839
C        -2.52087241     0.40611954     0.18172799     0.00052549     0.00022085     0.00009245
H        -4.33130592     1.32732161    -0.30356032    -0.00000238    -0.00028871     0.00026538
H        -1.89144241    -0.46639280     0.37885939     0.00010790    -0.00090010    -0.00037105
C        -1.80526669     1.63740879    -0.00107790    -0.00005955    -0.00028647    -0.00007858
H        -2.43100722     2.41529773    -0.39305461     0.00057921     0.00009529    -0.00004781
N        -0.54426677     1.89491313     0.17581716    -0.00007970     0.00002226     0.00005898
H        -0.22634535     2.87055494     0.10203148    -0.00072470    -0.00021060     0.00017225
H         0.04479972     1.19307755     0.67043932    -0.00001374     0.00116797    -0.00028667
    14
  Step:     6            Position(A)                                  Velocity(au)
C        -6.08155759    -0.68549071    -0.16804868    -0.00028380     0.00017970    -0.00015143
C        -4.67758385    -0.75357071     0.15768933     0.00009643     0.00004825     0.00003267
H        -6.64057607     0.22136742    -0.24703171    -0.00041534    -0.00081574     0.00091705
H        -6.62201410    -1.61814091    -0.04948572     0.00096836     0.00005619     0.00009581
H        -4.30817816    -1.74332193     0.38577587     0.00018959     0.00013647     0.00042170
C        -3.88557183     0.41209195    -0.00090829    -0.00033152    -0.00015637    -0.00006730
C        -2.51442405     0.40872165     0.18277857     0.00065359     0.00025285     0.00009980
H        -4.33207523     1.32512022    -0.30103728    -0.00014340    -0.00010483     0.00018999
H        -1.89095994    -0.47653325     0.37494149    -0.00002569    -0.00093096    -0.00034837
C        -1.80638436     1.63407697    -0.00197829    -0.00014108    -0.00032224    -0.00008540
H        -2.42478058     2.41740425    -0.39372280     0.00055268     0.00028710    -0.00007308
N        -0.54479235     1.89516957     0.17656233    -0.00002115     0.00002535     0.00007552
H        -0.23414230     2.86737403     0.10398657    -0.00069122    -0.00034522     0.00018125
H         0.04421943     1.20699627     0.66661954    -0.00006529     0.00133859    -0.00038838
    14
  Step:     7            Position(A)                                  Velocity(au)
C        -6.08450741    -0.68365021    -0.16956159    -0.00025500     0.00015501    -0.00012530
C        -4.67668688    -0.75282556     0.15791123     0.00007135     0.00009039     0.00000817
H        -6.64533198     0.21325071    -0.23735574    -0.00047204    -0.00063746     0.00084991
H        -6.61190820    -1.61757241    -0.04893424     0.00086491     0.00003185     0.00000467
H        -4.30541481    -1.74182652     0.39069464     0.00031153     0.00014035     0.00047495
C        -3.88967467     0.41004795    -0.00163534    -0.00041731    -0.00021906    -0.00006508
C        -2.50657379     0.41165109     0.18391134     0.00077749     0.00027934     0.00010718
H        -4.33444306     1.32502827    -0.29940398    -0.00028915     0.00008589     0.00010740
H        -1.89200448    -0.48675934     0.37123803    -0.00016693    -0.00091817    -0.00033015
C        -1.80835297     1.63035914    -0.00294611    -0.00021397    -0.00035495    -0.00009130
H        -2.41891625     2.42157870    -0.39465335     0.00051595     0.00046690    -0.00009366
N        -0.54472957     1.89546776     0.17746929     0.00002695     0.00002989     0.00008808
H        -0.24146705     2.86300269     0.10599674    -0.00063742    -0.00042182     0.00018224
H         0.04337134     1.22236167     0.66194281    -0.00005517     0.00142454    -0.00043717
    14
  Step:     8            Position(A)                                  Velocity(au)
C        -6.08713622    -0.68209964    -0.17078986    -0.00022498     0.00012734    -0.00009936
C        -4.67602294    -0.75159335     0.15786813     0.00005203     0.00013511    -0.00001574
H        -6.65090295     0.20742166    -0.22843822    -0.00055828    -0.00040785     0.00077946
H        -6.60309245    -1.61744408    -0.04938358     0.00073477    -0.00002198    -0.00008648
H        -4.30136289    -1.74025147     0.39616636     0.00042317     0.00015415     0.00052199
C        -3.89470138     0.40729950    -0.00233213    -0.00049666    -0.00028210    -0.00006180
C        -2.49741498     0.41483267     0.18512324     0.00088827     0.00029745     0.00011395
H        -4.33840095     1.32699928    -0.29868773    -0.00042870     0.00026128     0.00002683
H        -1.89461190    -0.49662006     0.36771889    -0.00030689    -0.00086747    -0.00031319
C        -1.81106538     1.62631173    -0.00397569    -0.00027608    -0.00038030    -0.00009711
H        -2.41349322     2.42761858    -0.39577176     0.00047474     0.00062208    -0.00010570
N        -0.54420280     1.89582341     0.17848916     0.00006331     0.00003581     0.00009588
H        -0.24808711     2.85814590     0.10797343    -0.00056253    -0.00043070     0.00017534
H         0.04301245     1.23816091     0.65705555     0.00002818     0.00141437    -0.00042335
    14
  Step:     9            Position(A)                                  Velocity(au)
C        -6.08942938    -0.68086447    -0.17173522    -0.00019369     0.00009815    -0.00007351
C        -4.67554866    -0.74986975     0.15756689     0.00003491     0.00017834    -0.00003894
H        -6.65754546     0.20432810    -0.22030358    -0.00065982    -0.00015072     0.00070774
H        -6.59583363    -1.61805333    -0.05082613     0.00058331    -0.00009924    -0.00017662
H        -4.29615709    -1.73845420     0.40211412     0.00052084     0.00018333     0.00056103
C        -3.90053997     0.40387639    -0.00298731    -0.00056337    -0.00033981    -0.00005764
C        -2.48714118     0.41815842     0.18640413     0.00097842     0.00030468     0.00011962
H        -4.34382176     1.33074422    -0.29881693    -0.00055206     0.00040083    -0.00004389
H        -1.89871829    -0.50573700     0.36438651    -0.00043667    -0.00078608    -0.00029493
C        -1.81439273     1.62203945    -0.00507057    -0.00032563    -0.00039440    -0.00010352
H        -2.40853048     2.43518794    -0.39696571     0.00043377     0.00074176    -0.00010605
N        -0.54334464     1.89625116     0.17956690     0.00008761     0.00004290     0.00009865
H        -0.25377342     2.85358021     0.10983269    -0.00046794    -0.00036931     0.00016109
H         0.04398780     1.25330378     0.65268127     0.00018755     0.00130700    -0.00034421
    14
  Step:    10            Position(A)                                  Velocity(au)
C        -6.09137354    -0.67995251    -0.17239799    -0.00016173     0.00006907    -0.00004766
C        -4.67525912    -0.74769178     0.15701628     0.00001712     0.00021683    -0.00006118
H        -6.66533774     0.20412438    -0.21295508    -0.00075951     0.00010613     0.00063653
H        -6.59033135    -1.61961515    -0.05324752     0.00041734    -0.00019118    -0.00026553
H        -4.28996845    -1.73624078     0.40843994     0.00060167     0.00023157     0.00059031
C        -3.90702625     0.39986549    -0.00359321    -0.00061416    -0.00038774    -0.00005304
C        -2.47601026     0.42149806     0.18774006     0.00104367     0.00029942     0.00012400
H        -4.35047831     1.33576821    -0.29964791    -0.00065148     0.00048870    -0.00009961
H        -1.90416496    -0.51381699     0.36126683    -0.00054810    -0.00068212    -0.00027354
C        -1.81818907     1.61768354    -0.00624042    -0.00036128    -0.00039449    -0.00011097
H        -2.40400368     2.44384611    -0.39809175     0.00039604     0.00081820    -0.00009244
N        -0.54228621     1.89676199     0.18064739     0.00010057     0.00005067     0.00009676
H        -0.25832421     2.85006664     0.11149769    -0.00035727    -0.00024344     0.00014031
H         0.04711555     1.26675414     0.64952525     0.00041389     0.00111445    -0.00020690
    14
  Step:    11            Position(A)                                  Velocity(au)
C        -6.09296750    -0.67935346    -0.17277793    -0.00013051     0.00004160    -0.00002182
C        -4.67517420    -0.74512609     0.15622848    -0.00000316     0.00024823    -0.00008211
H        -6.67416118     0.20664990    -0.20637823    -0.00084006     0.00033540     0.00056712
H        -6.58670362    -1.62223572    -0.05663517     0.00024458    -0.00028714    -0.00035348
H        -4.28299438    -1.73338816     0.41502828     0.00066373     0.00030030     0.00060847
C        -3.91397590     0.39539382    -0.00414757    -0.00064794    -0.00042284    -0.00004846
C        -2.46430894     0.42470882     0.18911683     0.00108240     0.00028088     0.00012716
H        -4.35807408     1.34143553    -0.30099604    -0.00072231     0.00051563    -0.00013776
H        -1.91070909    -0.52065974     0.35840223    -0.00063411    -0.00056439    -0.00024761
C        -1.82229649     1.61340925    -0.00749826    -0.00038225    -0.00037886    -0.00011969
H        -2.39986645     2.45308757    -0.39898802     0.00036263     0.00084734    -0.00006393
N        -0.54114443     1.89735970     0.18168373     0.00010416     0.00005834     0.00009132
H        -0.26158930     2.84825443     0.11290219    -0.00023622    -0.00006761     0.00011424
H         0.05304252     1.27768454     0.64815493     0.00068496     0.00086230    -0.00002918
    14
  Step:    12            Position(A)                                  Velocity(au)
C        -6.09422862    -0.67904232    -0.17287525    -0.00010173     0.00001682     0.00000397
C        -4.67532831    -0.74226121     0.15521995    -0.00002698     0.00027081    -0.00010134
H        -6.68371566     0.21146185    -0.20054831    -0.00088690     0.00051468     0.00050013
H        -6.58498077    -1.62589684    -0.06098064     0.00007298    -0.00037571    -0.00044086
H        -4.27544805    -1.72967118     0.42175139     0.00070606     0.00038850     0.00061477
C        -3.92120114     0.39061508    -0.00465343    -0.00066477    -0.00044316    -0.00004437
C        -2.45233075     0.42764282     0.19052197     0.00109460     0.00024886     0.00012930
H        -4.36628020     1.34704859    -0.30266163    -0.00076305     0.00047929    -0.00015794
H        -1.91803736    -0.52616406     0.35584982    -0.00068895    -0.00044207    -0.00021589
C        -1.82655144     1.60939529    -0.00885877    -0.00038825    -0.00034670    -0.00012975
H        -2.39607043     2.46238339    -0.39949028     0.00033297     0.00082892    -0.00002106
N        -0.54000761     1.89803819     0.18264515     0.00010144     0.00006499     0.00008403
H        -0.26349205     2.84858752     0.11399683    -0.00011217     0.00013620     0.00008469
H         0.06210044     1.28561870     0.64888679     0.00096758     0.00058634     0.00016281
    14
  Step:    13            Position(A)                                  Velocity(au)
C        -6.09519303    -0.67898543    -0.17269104    -0.00007695    -0.00000480     0.00002961
C        -4.67576444    -0.73920157     0.15401140    -0.00005494     0.00028336    -0.00011852
H        -6.69356390     0.21790952    -0.19543684    -0.00089028     0.00062937     0.00043570
H        -6.58510697    -1.63045503    -0.06627980    -0.00008996    -0.00044608    -0.00052794
H        -4.26754808    -1.72488898     0.42847756     0.00072858     0.00049289     0.00060921
C        -3.92851902     0.38569880    -0.00511817    -0.00066529    -0.00044769    -0.00004109
C        -2.44036240     0.43015321     0.19194550     0.00108137     0.00020381     0.00013064
H        -4.37476728     1.35192082    -0.30445126    -0.00077481     0.00038344    -0.00016149
H        -1.92578123    -0.53033080     0.35367925    -0.00070835    -0.00032444    -0.00017738
C        -1.83079021     1.60582445    -0.01033679    -0.00037955    -0.00029812    -0.00014110
H        -2.39258211     2.47122169    -0.39944864     0.00030515     0.00076613     0.00003419
N        -0.53892525     1.89878142     0.18352205     0.00009611     0.00006988     0.00007684
H        -0.26404324     2.85123413     0.11475487     0.00000679     0.00034146     0.00005384
H         0.07421011     1.29051181     0.65171679     0.00122363     0.00032542     0.00033980
    14
  Step:    14            Position(A)                                  Velocity(au)
C        -6.09591214    -0.67914723    -0.17222752    -0.00005731    -0.00002333     0.00005497
C        -4.67653018    -0.73606215     0.15262719    -0.00008733     0.00028516    -0.00013333
H        -6.70319233     0.22523055    -0.19101648    -0.00084609     0.00067362     0.00037362
H        -6.58694882    -1.63565573    -0.07253029    -0.00023787    -0.00048936    -0.00061467
H        -4.25950896    -1.71888825     0.43507907     0.00073209     0.00060827     0.00059243
C        -3.93575565     0.38082092    -0.00555227    -0.00065050    -0.00043623    -0.00003885
C        -2.42867370     0.43210153     0.19338001     0.00104464     0.00014684     0.00013138
H        -4.38323060     1.35543702    -0.30619458    -0.00076060     0.00023665    -0.00015101
H        -1.93353386    -0.53326190     0.35196937    -0.00068961    -0.00022049    -0.00013127
C        -1.83485483     1.60287339    -0.01194571    -0.00035692    -0.00023414    -0.00015354
H        -2.38939464     2.47914394    -0.39874235     0.00027646     0.00066519     0.00009874
N        -0.53790511     1.89956693     0.18432619     0.00009172     0.00007270     0.00007149
H        -0.26334343     2.85605763     0.11517478     0.00011299     0.00052124     0.00002399
H         0.08886979     1.29273780     0.65632058     0.00141807     0.00011327     0.00047558
    14
  Step:    15            Position(A)                                  Velocity(au)
C        -6.09644681    -0.67949587    -0.17148855    -0.00004344    -0.00003928     0.00007989
C        -4.67767506    -0.73296318     0.15109465    -0.00012418     0.00027602    -0.00014556
H        -6.71207366     0.23264633    -0.18726313    -0.00075534     0.00064931     0.00031358
H        -6.59031088    -1.64116062    -0.07972691    -0.00036591    -0.00049947    -0.00070060
H        -4.25153231    -1.71158185     0.44143813     0.00071805     0.00072802     0.00056564
C        -3.94274990     0.37615533    -0.00596819    -0.00062164    -0.00040933    -0.00003779
C        -2.41750891     0.43336564     0.19481969     0.00098700     0.00007983     0.00013161
H        -4.39140680     1.35709803    -0.30775498    -0.00072459     0.00005068    -0.00012990
H        -1.94086786    -0.53515438     0.35080743    -0.00063173    -0.00013828    -0.00007707
C        -1.83859842     1.60070214    -0.01369569    -0.00032158    -0.00015678    -0.00016666
H        -2.38653409     2.48577404    -0.39728857     0.00024381     0.00053463     0.00016877
N        -0.53691878     1.90037185     0.18508595     0.00009106     0.00007370     0.00006914
H        -0.26157142     2.86263724     0.11527975     0.00020024     0.00065254    -0.00000285
H         0.10523310     1.29298986     0.66212091     0.00152580    -0.00002782     0.00055217
    14
  Step:    16            Position(A)                                  Velocity(au)
C        -6.09686238    -0.68000661    -0.17047987    -0.00003552    -0.00005336     0.00010418
C        -4.67924691    -0.73002377     0.14944279    -0.00016520     0.00025631    -0.00015512
H        -6.71971686     0.23943542    -0.18415634    -0.00062305     0.00056408     0.00025528
H        -6.59495379    -1.64658265    -0.08785735    -0.00047096    -0.00047366    -0.00078489
H        -4.24380027    -1.70296138     0.44745344     0.00068851     0.00084460     0.00053053
C        -3.94935530     0.37186594    -0.00637901    -0.00058015    -0.00036823    -0.00003789
C        -2.40708122     0.43384794     0.19625929     0.00091148     0.00000533     0.00013132
H        -4.39908243     1.35654582    -0.30903632    -0.00067155    -0.00016084    -0.00010198
H        -1.94735408    -0.53628703     0.35028322    -0.00053540    -0.00008433    -0.00001471
C        -1.84189004     1.59944348    -0.01559175    -0.00027515    -0.00006895    -0.00017993
H        -2.38406075     2.49083993    -0.39505028     0.00020417     0.00038460     0.00023998
N        -0.53591309     1.90117932     0.18583886     0.00009575     0.00007362     0.00007029
H        -0.25896275     2.87033320     0.11511253     0.00026467     0.00071963    -0.00002520
H         0.12224964     1.29212929     0.66840038     0.00153526    -0.00008939     0.00056209
    14
  Step:    17            Position(A)                                  Velocity(au)
C        -6.09722381    -0.68066320    -0.16920949    -0.00003336    -0.00006633     0.00012762
C        -4.68128909    -0.72735601     0.14770113    -0.00020983     0.00022694    -0.00016201
H        -6.72570412     0.24498658    -0.18167838    -0.00045690     0.00042936     0.00019853
H        -6.60061399    -1.65152282    -0.09689796    -0.00055166    -0.00041238    -0.00086637
H        -4.23646981    -1.69310463     0.45304440     0.00064596     0.00095003     0.00048914
C        -3.95544182     0.36809948    -0.00679718    -0.00052759    -0.00031482    -0.00003905
C        -2.39756843     0.43348230     0.19769260     0.00082145    -0.00007355     0.00013036
H        -4.40609828     1.35357942    -0.30998605    -0.00060652    -0.00038315    -0.00007132
H        -1.95258077    -0.53699932     0.35048564    -0.00040309    -0.00006287     0.00005553
C        -1.84461795     1.59919371    -0.01763202    -0.00021948     0.00002568    -0.00019264
H        -2.38206758     2.49418790    -0.39203861     0.00015467     0.00022630     0.00030795
N        -0.53482402     1.90198248     0.18662365     0.00010622     0.00007342     0.00007474
H        -0.25578121     2.87838056     0.11472846     0.00030503     0.00071566    -0.00004228
H         0.13881976     1.29103439     0.67441780     0.00144792    -0.00007525     0.00050746
    14
  Step:    18            Position(A)                                  Velocity(au)
C        -6.09759209    -0.68145763    -0.16768787    -0.00003647    -0.00007888     0.00015000
C        -4.68383728    -0.72505897     0.14589847    -0.00025723     0.00018937    -0.00016635
H        -6.72971252     0.24882847    -0.17981316    -0.00026605     0.00025857     0.00014321
H        -6.60702232    -1.65560422    -0.10681096    -0.00060826    -0.00031899    -0.00094370
H        -4.22966866    -1.68217772     0.45815428     0.00059319     0.00103637     0.00044374
C        -3.96089744     0.36497858    -0.00723323    -0.00046566    -0.00025159    -0.00004102
C        -2.38911050     0.43223899     0.19911108     0.00072037    -0.00015339     0.00012845
H        -4.41235124     1.34816359    -0.31059658    -0.00053468    -0.00060093    -0.00004205
H        -1.95617246    -0.53766247     0.35149799    -0.00023897    -0.00007511     0.00013287
C        -1.84669163     1.60000530    -0.01980610    -0.00015654     0.00012289    -0.00020396
H        -2.38067700     2.49579067    -0.38831319     0.00009283     0.00007138     0.00036836
N        -0.53358924     1.90278559     0.18747399     0.00012189     0.00007404     0.00008186
H        -0.25228974     2.88598959     0.11418755     0.00032257     0.00064256    -0.00005401
H         0.15392556     1.29048304     0.67950214     0.00127538     0.00000208     0.00039748
    14
  Step:    19            Position(A)                                  Velocity(au)
C        -6.09802158    -0.68238894    -0.16592799    -0.00004416    -0.00009162     0.00017108
C        -4.68691646    -0.72321317     0.14406180    -0.00030630     0.00014548    -0.00016836
H        -6.73152455     0.25064332    -0.17854531    -0.00006038     0.00006605     0.00008929
H        -6.61392081    -1.65850133    -0.11754315    -0.00064241    -0.00019920    -0.00101547
H        -4.22349266    -1.67043208     0.46275204     0.00053315     0.00109620     0.00039669
C        -3.96562895     0.36259555    -0.00769448    -0.00039609    -0.00018153    -0.00004345
C        -2.38180906     0.43012655     0.20050275     0.00061171    -0.00023079     0.00012528
H        -4.41779535     1.34043287    -0.31090595    -0.00046128    -0.00079861    -0.00001835
H        -1.95780873    -0.53864240     0.35339243    -0.00004891    -0.00011856     0.00021601
C        -1.84804246     1.60188223    -0.02209410    -0.00008828     0.00021820    -0.00021302
H        -2.38003682     2.49574958    -0.38398012     0.00001654    -0.00006860     0.00041714
N        -0.53215751     1.90360235     0.18841455     0.00014145     0.00007621     0.00009075
H        -0.24872440     2.89243777     0.11354691     0.00032068     0.00050976    -0.00006093
H         0.16672111     1.29107995     0.68311338     0.00103569     0.00012522     0.00024551
    14
  Step:    20            Position(A)                                  Velocity(au)
C        -6.09855808    -0.68346200    -0.16394519    -0.00005558    -0.00010502     0.00019066
C        -4.69053821    -0.72187624     0.14221535    -0.00035572     0.00009751    -0.00016830
H        -6.73103346     0.25027336    -0.17785977     0.00014992    -0.00013351     0.00003673
H        -6.62107638    -1.65996215    -0.12902625    -0.00065689    -0.00006042    -0.00108038
H        -4.21800489    -1.65819635     0.46683258     0.00046879     0.00112308     0.00035028
C        -3.96956260     0.36100722    -0.00818386    -0.00032067    -0.00010807    -0.00004592
C        -2.37572827     0.42719011     0.20185172     0.00049879    -0.00030260     0.00012047
H        -4.42244261     1.33069240    -0.31099802    -0.00039163    -0.00096079    -0.00000439
H        -1.95724253    -0.54025627     0.35622371     0.00015964    -0.00018681     0.00030307
C        -1.84862298     1.60477894    -0.02446625    -0.00001659     0.00030721    -0.00021893
H        -2.38031515     2.49428982    -0.37918740    -0.00007570    -0.00018299     0.00045084
N        -0.53049483     1.90445292     0.18945924     0.00016317     0.00008039     0.00010038