|===============================================================================
|
|  DFTB+ release 20.1
|
|  Copyright (C) 2006 - 2020  DFTB+ developers group
|
|===============================================================================
|
|  When publishing results obtained with DFTB+, please cite the following
|  reference:
|
|  * DFTB+, a software package for efficient approximate density functional
|    theory based atomistic simulations, J. Chem. Phys. 152, 124101 (2020).
|    [doi: 10.1063/1.5143190]
|
|  You should also cite additional publications crediting the parametrization
|  data you use. Please consult the documentation of the SK-files for the
|  references.
|
|===============================================================================

Reading input file 'dftb_in.hsd'
Parser version: 8

--------------------------------------------------------------------------------
Reading SK-files:
Done.


Processed input in HSD format written to 'dftb_pin.hsd'

Starting initialization...
--------------------------------------------------------------------------------
OpenMP threads:              1
Chosen random seed:          500819710
Mode:                        Static calculation
Self consistent charges:     Yes
SCC-tolerance:                 0.100000E-05
Max. scc iterations:                   1000
Shell resolved Hubbard:      No
Spin polarisation:           No
Nr. of up electrons:            16.000000
Nr. of down electrons:          16.000000
Periodic boundaries:         No
Electronic solver:           Relatively robust
Maximal SCC-cycles:                    1000
Initial charges:             Set automatically (system chrg:   0.100E+01)
Included shells:             C:  s, p
                             H:  s
                             N:  s, p
Spin coupling constants:     C   1(s)-1(s):  -0.455900E-01
                             C   1(s)-2(p):  -0.293000E-01
                             C   2(p)-1(s):  -0.293000E-01
                             C   2(p)-2(p):  -0.275500E-01
                             H   1(s)-1(s):  -0.792500E-01
                             N   1(s)-1(s):  -0.468700E-01
                             N   1(s)-2(p):  -0.317000E-01
                             N   2(p)-1(s):  -0.317000E-01
                             N   2(p)-2(p):  -0.307200E-01
Range separated hybrid:      Yes
  Screening parameter omega:   0.300000E+00
  Range separated algorithm:   MatrixBased
Extra options:
                             Mulliken analysis
                             Force calculation
Force type                   original
                             Eigenvector printing


REKS Calcuation:             Yes
SSR(2,2) Calcuation:         Yes
Energy Functional:           (PPS+OSS)/2
Number of Core Orbitals:                 15
Number of Active Orbitals:                2
Number of Basis:                         32
Number of States:                         2
State-Averaging Weight:          0.500000
                                 0.500000
State of Interest:                        1
Initial Guess:               Diagonalize H0 matrix
Newton-Raphson for FON opt:  Yes
NR max. Iterations:                      50
Level Shifting:              Yes
Shift Value:                     0.300000
W Scale Factor:              C  =    3.200000
                             H  =    3.200000
                             N  =    3.200000
Transition Dipole:           No
Gradient of Microstate:      No
CP-REKS Solver:              Preconditioned Conjugate-Gradient
CG max. Iterations:                     100
CG Tolerance:                  0.100000E-07
Memory for A and Hxc:        Direct Updating Without Saving
Non-Adiabatic Coupling:      Yes

--------------------------------------------------------------------------------

***  Geometry step: 0

  iSCC       reks energy        Diff energy         x_a       SCC error   
    1      -16.4021420906       0.0000000000     0.997976    1.23323791
    2      -16.4144399409      -0.0122978503     0.999536    0.03377001
    3      -16.4171075972      -0.0026676563     0.999778    0.01917411
    4      -16.4180714759      -0.0009638788     0.999860    0.01165124
    5      -16.4184979418      -0.0004264659     0.999898    0.00751617
    6      -16.4187088233      -0.0002108815     0.999919    0.00500560
    7      -16.4188213474      -0.0001125240     0.999931    0.00339827
    8      -16.4188851362      -0.0000637889     0.999939    0.00245027
    9      -16.4189232934      -0.0000381572     0.999944    0.00195074
   10      -16.4189472937      -0.0000240003     0.999947    0.00157006
   11      -16.4189631186      -0.0000158249     0.999950    0.00127828
   12      -16.4189740158      -0.0000108973     0.999952    0.00105312
   13      -16.4189818167      -0.0000078009     0.999953    0.00087799
   14      -16.4189875924      -0.0000057757     0.999955    0.00074056
   15      -16.4189919929      -0.0000044005     0.999956    0.00063341
   16      -16.4189954268      -0.0000034339     0.999956    0.00054443
   17      -16.4189981602      -0.0000027334     0.999957    0.00047380
   18      -16.4190003718      -0.0000022116     0.999957    0.00041593
   19      -16.4190021857      -0.0000018138     0.999958    0.00036798
   20      -16.4190036899      -0.0000015042     0.999958    0.00032780
   21      -16.4190049490      -0.0000012590     0.999959    0.00029376
   22      -16.4190060108      -0.0000010618     0.999959    0.00026463
   23      -16.4190069120      -0.0000009012     0.999959    0.00023947
   24      -16.4190076808      -0.0000007688     0.999959    0.00021754
   25      -16.4190083395      -0.0000006587     0.999960    0.00019827
   26      -16.4190089059      -0.0000005664     0.999960    0.00018124
   27      -16.4190093943      -0.0000004884     0.999960    0.00016607
   28      -16.4190098165      -0.0000004222     0.999960    0.00015250
   29      -16.4190101822      -0.0000003657     0.999960    0.00014030
   30      -16.4190104995      -0.0000003173     0.999960    0.00012928
   31      -16.4190107751      -0.0000002756     0.999960    0.00011929
   32      -16.4190110148      -0.0000002397     0.999960    0.00011021
   33      -16.4190112234      -0.0000002086     0.999961    0.00010193
   34      -16.4190114052      -0.0000001817     0.999961    0.00009436
   35      -16.4190115636      -0.0000001584     0.999961    0.00008742
   36      -16.4190117017      -0.0000001381     0.999961    0.00008106
   37      -16.4190118222      -0.0000001205     0.999961    0.00007521
   38      -16.4190119274      -0.0000001052     0.999961    0.00006982
   39      -16.4190120192      -0.0000000918     0.999961    0.00006486
   40      -16.4190120993      -0.0000000801     0.999961    0.00006027
   41      -16.4190121693      -0.0000000700     0.999961    0.00005604
   42      -16.4190122304      -0.0000000611     0.999961    0.00005212
   43      -16.4190122838      -0.0000000534     0.999961    0.00004850
   44      -16.4190123304      -0.0000000466     0.999961    0.00004514
   45      -16.4190123712      -0.0000000407     0.999961    0.00004203
   46      -16.4190124067      -0.0000000356     0.999961    0.00003914
   47      -16.4190124378      -0.0000000311     0.999961    0.00003653
   48      -16.4190124650      -0.0000000272     0.999961    0.00003414
   49      -16.4190124887      -0.0000000237     0.999961    0.00003190
   50      -16.4190125094      -0.0000000207     0.999961    0.00002981
   51      -16.4190125275      -0.0000000181     0.999961    0.00002786
   52      -16.4190125434      -0.0000000158     0.999961    0.00002603
   53      -16.4190125572      -0.0000000138     0.999961    0.00002433
   54      -16.4190125693      -0.0000000121     0.999961    0.00002273
   55      -16.4190125798      -0.0000000105     0.999961    0.00002124
   56      -16.4190125890      -0.0000000092     0.999961    0.00001985
   57      -16.4190125971      -0.0000000081     0.999961    0.00001854
   58      -16.4190126041      -0.0000000070     0.999961    0.00001733
   59      -16.4190126103      -0.0000000061     0.999961    0.00001619
   60      -16.4190126156      -0.0000000054     0.999961    0.00001513
   61      -16.4190126203      -0.0000000047     0.999961    0.00001413
   62      -16.4190126244      -0.0000000041     0.999961    0.00001321
   63      -16.4190126280      -0.0000000036     0.999961    0.00001234
   64      -16.4190126311      -0.0000000031     0.999961    0.00001153
   65      -16.4190126339      -0.0000000027     0.999962    0.00001077
   66      -16.4190126362      -0.0000000024     0.999962    0.00001006
   67      -16.4190126383      -0.0000000021     0.999962    0.00000940
   68      -16.4190126401      -0.0000000018     0.999962    0.00000879
   69      -16.4190126417      -0.0000000016     0.999962    0.00000821
   70      -16.4190126431      -0.0000000014     0.999962    0.00000767
   71      -16.4190126443      -0.0000000012     0.999962    0.00000717
   72      -16.4190126454      -0.0000000011     0.999962    0.00000670
   73      -16.4190126463      -0.0000000009     0.999962    0.00000626
   74      -16.4190126471      -0.0000000008     0.999962    0.00000585
   75      -16.4190126478      -0.0000000007     0.999962    0.00000546
   76      -16.4190126485      -0.0000000006     0.999962    0.00000510
   77      -16.4190126490      -0.0000000005     0.999962    0.00000477
   78      -16.4190126495      -0.0000000005     0.999962    0.00000446
   79      -16.4190126499      -0.0000000004     0.999962    0.00000416
   80      -16.4190126502      -0.0000000004     0.999962    0.00000389
   81      -16.4190126506      -0.0000000003     0.999962    0.00000363
   82      -16.4190126508      -0.0000000003     0.999962    0.00000340
   83      -16.4190126511      -0.0000000002     0.999962    0.00000317
   84      -16.4190126513      -0.0000000002     0.999962    0.00000297
   85      -16.4190126515      -0.0000000002     0.999962    0.00000277
   86      -16.4190126516      -0.0000000002     0.999962    0.00000259
   87      -16.4190126518      -0.0000000001     0.999962    0.00000242
   88      -16.4190126519      -0.0000000001     0.999962    0.00000226
   89      -16.4190126520      -0.0000000001     0.999962    0.00000211
   90      -16.4190126521      -0.0000000001     0.999962    0.00000197
   91      -16.4190126522      -0.0000000001     0.999962    0.00000184
   92      -16.4190126522      -0.0000000001     0.999962    0.00000172
   93      -16.4190126523      -0.0000000001     0.999962    0.00000161
   94      -16.4190126523      -0.0000000001     0.999962    0.00000150
   95      -16.4190126524      -0.0000000000     0.999962    0.00000141
   96      -16.4190126524      -0.0000000000     0.999962    0.00000131
   97      -16.4190126525      -0.0000000000     0.999962    0.00000123
   98      -16.4190126525      -0.0000000000     0.999962    0.00000115
   99      -16.4190126525      -0.0000000000     0.999962    0.00000107
  100      -16.4190126526      -0.0000000000     0.999962    0.00000100
  101      -16.4190126526      -0.0000000000     0.999962    0.00000094
  
--------------------------------------------------
 Final SA-REKS(2,2) energy:     -16.41901265
  
 State     Energy      FON(1)    FON(2)   Spin
  PPS  -16.47769264   1.999923  0.000077  0.00
  OSS  -16.36033267   1.000000  1.000000  0.00
 Trip  -16.40302020   1.000000  1.000000  1.00
--------------------------------------------------

 Lagrangian Wab:  -0.01407960 -0.01408033

--------------------------------------------------
 SSR: 2SI-2SA-REKS(2,2) Hamiltonian matrix
               PPS           OSS
   PPS   -16.47769264   -0.01978780
   OSS    -0.01978780  -16.36033267
--------------------------------------------------

----------------------------------------------------------------
 SSR: 2SI-2SA-REKS(2,2) states
                    E_n       C_{PPS}    C_{OSS}
 SSR state  1  -16.48093920  -0.986806  -0.161904
 SSR state  2  -16.35708610   0.161904  -0.986806
----------------------------------------------------------------

 unrelaxed SSR FONs for S0:  1.973712  0.026288

Total Energy:                      -16.4809392033 H         -448.4692 eV
Extrapolated to 0:                 -16.4809392033 H         -448.4692 eV

----------------------------------------------------------------------------------
 Solving CP-REKS equation for  1 state vector...
----------------------------------------------------------------------------------
  CG solver: Constructing Y initial guess
  CG solver: Iteration    1    eps =    0.004651408030
  CG solver: Iteration    2    eps =    0.000870905535
  CG solver: Iteration    3    eps =    0.000304310439
  CG solver: Iteration    4    eps =    0.000106104415
  CG solver: Iteration    5    eps =    0.000025721310
  CG solver: Iteration    6    eps =    0.000011485089
  CG solver: Iteration    7    eps =    0.000000429799
  CG solver: Iteration    8    eps =    0.000000155453
  CG solver: Iteration    9    eps =    0.000000061746
  CG solver: Iteration   10    eps =    0.000000004985
  Convergence reached in CG solver after   10 iterations
  CG solver: Calculating converged R, Z, Q2 matrix
----------------------------------------------------------------------------------

----------------------------------------------------------------------------------
 Solving CP-REKS equation for SI between  1 and  2 state vectors...
----------------------------------------------------------------------------------
  CG solver: Constructing Y initial guess
  CG solver: Iteration    1    eps =    0.043896042425
  CG solver: Iteration    2    eps =    0.009846613020
  CG solver: Iteration    3    eps =    0.005145694686
  CG solver: Iteration    4    eps =    0.001125666318
  CG solver: Iteration    5    eps =    0.000305119140
  CG solver: Iteration    6    eps =    0.000070749631
  CG solver: Iteration    7    eps =    0.000012083580
  CG solver: Iteration    8    eps =    0.000000894893
  CG solver: Iteration    9    eps =    0.000000484773
  CG solver: Iteration   10    eps =    0.000000113602
  CG solver: Iteration   11    eps =    0.000000007163
  Convergence reached in CG solver after   11 iterations
  CG solver: Calculating converged R, Z, Q2 matrix
----------------------------------------------------------------------------------

--------------------------------------------------
 Gradient Information
--------------------------------------------------
           1 st state (SSR)
     0.06091803    -0.03868009     0.04630357
    -0.00993902     0.01959923    -0.03776811
     0.00674269     0.02306458     0.00578568
    -0.01436182    -0.00804496    -0.01253795
    -0.01535482     0.02852098    -0.00492573
    -0.03563333    -0.06824062    -0.02253379
     0.05635901     0.09140969     0.01823824
     0.01613640     0.02096969     0.01336443
    -0.02971838    -0.03888903    -0.01901161
    -0.14706992     0.01487480     0.05127576
     0.01807391    -0.02851933     0.00000461
     0.03810723    -0.00695138    -0.02548642
     0.02006620     0.03132393    -0.04113786
     0.03567381    -0.04043749     0.02842918

           2 st state (SSR)
     0.08151390    -0.03383746     0.06084226
    -0.03411213     0.00351242    -0.04873158
     0.00378651     0.02236193     0.00889780
    -0.01142449    -0.00742111    -0.01394920
    -0.01996745     0.02951131    -0.00116448
     0.05011027    -0.05697349    -0.04997815
    -0.03478883     0.05792770     0.05187613
     0.01608972     0.02166533     0.01386827
    -0.03293400    -0.03475040    -0.02562138
    -0.05834705     0.03440458     0.02452917
     0.01536131    -0.03023210    -0.00728788
    -0.03052237     0.00556621     0.00224644
     0.02166886     0.03346981    -0.03896907
     0.03356575    -0.04520473     0.02344167
--------------------------------------------------
 Coupling Information
--------------------------------------------------
 between  1 and  2 states
--------------------------------------------------
 g vector - difference gradient
     0.00047356    -0.00285685     0.00302850
    -0.00200483     0.00869286    -0.00643781
     0.00041253    -0.00032239    -0.00012516
     0.00004248     0.00024117     0.00024507
     0.00193308     0.00023558    -0.00075064
    -0.05447184    -0.00769469     0.00844657
     0.07059207     0.03715436    -0.02457173
     0.00044976    -0.00107442     0.00185415
     0.00273579    -0.00374843     0.00665357
    -0.07817569    -0.02464875     0.02685598
     0.00317858     0.00236680     0.00746615
     0.05219211    -0.00911619    -0.02292671
    -0.00052487    -0.00157354    -0.00488360
     0.00316727     0.00234447     0.00514565

 h vector - derivative coupling
    -0.03363206     0.00089430    -0.03173056
     0.04377051    -0.00060628     0.03624634
     0.00340240     0.00205552    -0.00449858
    -0.00472220    -0.00169137     0.00148155
     0.00148521    -0.00224823    -0.00365948
     0.02736553     0.00518790     0.01789600
    -0.06671312    -0.05778838     0.02023112
    -0.00126068     0.00209765    -0.00628679
    -0.00308119     0.00463983    -0.00938818
     0.09299659     0.04253539    -0.03778827
    -0.00518139    -0.00433859    -0.01072955
    -0.04738449     0.00744661     0.02459287
    -0.00095129     0.00130848     0.01108850
    -0.00609381     0.00050717    -0.00745495

 G vector - GDV
    -0.01029794    -0.00242131    -0.00726935
     0.01208655     0.00804340     0.00548173
     0.00147809     0.00035133    -0.00155606
    -0.00146866    -0.00031193     0.00070563
     0.00230631    -0.00049516    -0.00188063
    -0.04287180    -0.00563357     0.01372218
     0.04557392     0.01674100    -0.01681894
     0.00002334    -0.00034782    -0.00025192
     0.00160781    -0.00206931     0.00330489
    -0.04436143    -0.00976489     0.01337329
     0.00135630     0.00085638     0.00364624
     0.03431480    -0.00625880    -0.01386643
    -0.00080133    -0.00107294    -0.00108439
     0.00105403     0.00238362     0.00249376

 H vector - DCV - non-adiabatic coupling
    -0.25853355     0.01421263    -0.25057721
     0.34005137    -0.02706576     0.29392237
     0.02496677     0.01655812    -0.03409478
    -0.03623817    -0.01356251     0.01070273
     0.00637571    -0.01780856    -0.02606128
     0.34990334     0.05954356     0.11512665
    -0.69253307    -0.53798366     0.21817822
    -0.01080555     0.01882062    -0.05288256
    -0.03063180     0.04516917    -0.08899301
     0.91318777     0.38902221    -0.35839755
    -0.04784238    -0.03929987    -0.10135194
    -0.49718256     0.08049189     0.24730498
    -0.00592399     0.01407055     0.09743526
    -0.05479390    -0.00216838    -0.07031188
--------------------------------------------------


--------------------------------------------------------------------------------
DFTB+ running times                          cpu [s]             wall clock [s]
--------------------------------------------------------------------------------
SCC                                    +     0.14  ( 32.3%)      0.15  ( 32.3%)
      Dense to sparse                        0.03  (  6.0%)      0.03  (  5.9%)
      Range separated Hamiltonian            0.01  (  2.9%)      0.01  (  3.1%)
  Density matrix creation                    0.02  (  3.5%)      0.01  (  3.1%)
Post-SCC processing                    +     0.30  ( 67.3%)      0.30  ( 66.6%)
  Force calculation                          0.30  ( 67.2%)      0.30  ( 66.4%)
--------------------------------------------------------------------------------
Missing                                +     0.00  (  0.4%)      0.01  (  1.1%)
Total                                  =     0.45  (100.0%)      0.46  (100.0%)
--------------------------------------------------------------------------------
