     6
  Step:   120            Position(A)                                  Velocity(au)
C        -0.04013951     0.05335304    -0.11536329    -0.00006396     0.00017754    -0.00006395
N        -0.04013771    -0.00574840     1.41752837     0.00007876     0.00014930     0.00001721
H         0.95837586    -0.21419712    -0.50257106    -0.00039552    -0.00124544     0.00112299
H         0.82402608    -0.47452455     1.82589488    -0.00062772    -0.00071390    -0.00080158
H        -0.93461599    -0.35207260     1.79724852    -0.00006839    -0.00129451    -0.00089462
H        -1.02463119    -0.18486415    -0.55231928     0.00075930    -0.00093646     0.00109607
