 Fermi distribution function

Calculation with static geometry


********************************************************************************
 iSCC Total electronic   Diff electronic      SCC error    
   10   -0.54331343E+01   -0.24247271E-12    0.75024450E-07
********************************************************************************

 Total charge:     1.00000000

 Atomic gross charges (e)
 Atom           Charge
    1       0.17922383
    2      -0.06406745
    3       0.14495837
    4       0.28929166
    5       0.26833223
    6       0.18226136

Nr. of electrons (up):     12.00000000
Atom populations (up)
 Atom       Population
    1       3.82077617
    2       5.06406745
    3       0.85504163
    4       0.71070834
    5       0.73166777
    6       0.81773864

l-shell populations (up)
 Atom Sh.   l       Population
    1   1   0       1.28454974
    1   2   1       2.53622643
    2   1   0       1.40409828
    2   2   1       3.65996917
    3   1   0       0.85504163
    4   1   0       0.71070834
    5   1   0       0.73166777
    6   1   0       0.81773864

Orbital populations (up)
 Atom Sh.   l   m       Population  Label
    1   1   0   0       1.28454974  s
    1   2   1  -1       0.60241417  p_y
    1   2   1   0       0.89715891  p_z
    1   2   1   1       1.03665335  p_x
    2   1   0   0       1.40409828  s
    2   2   1  -1       1.32750956  p_y
    2   2   1   0       1.10452360  p_z
    2   2   1   1       1.22793601  p_x
    3   1   0   0       0.85504163  s
    4   1   0   0       0.71070834  s
    5   1   0   0       0.73166777  s
    6   1   0   0       0.81773864  s

Fermi level:                        -0.4855485783 H          -13.2124 eV
Band energy:                        -8.9748992241 H         -244.2194 eV
TS:                                  0.0000000000 H            0.0000 eV
Band free energy (E-TS):            -8.9748992241 H         -244.2194 eV
Extrapolated E(0K):                 -8.9748992241 H         -244.2194 eV
Input / Output electrons (q):     12.0000000000     12.0000000000

Energy H0:                          -5.5677077357 H         -151.5050 eV
Energy SCC:                          0.1345734030 H            3.6619 eV
Total Electronic energy:            -5.4331343328 H         -147.8431 eV
Repulsive energy:                    0.2189525145 H            5.9580 eV
Total energy:                       -5.2141818183 H         -141.8851 eV
Extrapolated to 0:                  -5.2141818183 H         -141.8851 eV
Total Mermin free energy:           -5.2141818183 H         -141.8851 eV
Force related energy:               -5.2141818183 H         -141.8851 eV

SCC converged

Excitation Energy:                   0.1256255192 H            3.4184 eV

Total Forces
    1     -0.014160916723      0.006859313845     -0.040404200993
    2     -0.000328217093      0.003285775082      0.028419644905
    3      0.002359019910     -0.012175967683      0.002477022339
    4     -0.003223432636      0.008579972036      0.005893904943
    5      0.008585793383     -0.011716476440      0.001421426036
    6      0.006767753159      0.005167383160      0.002192202769

Maximal derivative component:        0.404042E-01 au


