|===============================================================================
|
|  DFTB+ release 20.1
|
|  Copyright (C) 2006 - 2020  DFTB+ developers group
|
|===============================================================================
|
|  When publishing results obtained with DFTB+, please cite the following
|  reference:
|
|  * DFTB+, a software package for efficient approximate density functional
|    theory based atomistic simulations, J. Chem. Phys. 152, 124101 (2020).
|    [doi: 10.1063/1.5143190]
|
|  You should also cite additional publications crediting the parametrization
|  data you use. Please consult the documentation of the SK-files for the
|  references.
|
|===============================================================================

Reading input file 'dftb_in.hsd'
Parser version: 8

--------------------------------------------------------------------------------
Reading SK-files:
Done.


Processed input in HSD format written to 'dftb_pin.hsd'

Starting initialization...
--------------------------------------------------------------------------------
OpenMP threads:              1
Chosen random seed:          500004278
Mode:                        Static calculation
Self consistent charges:     Yes
SCC-tolerance:                 0.100000E-05
Max. scc iterations:                   1000
Shell resolved Hubbard:      No
Spin polarisation:           No
Nr. of up electrons:            16.000000
Nr. of down electrons:          16.000000
Periodic boundaries:         No
Electronic solver:           Relatively robust
Maximal SCC-cycles:                    1000
Initial charges:             Set automatically (system chrg:   0.100E+01)
Included shells:             C:  s, p
                             H:  s
                             N:  s, p
Spin coupling constants:     C   1(s)-1(s):  -0.455900E-01
                             C   1(s)-2(p):  -0.293000E-01
                             C   2(p)-1(s):  -0.293000E-01
                             C   2(p)-2(p):  -0.275500E-01
                             H   1(s)-1(s):  -0.792500E-01
                             N   1(s)-1(s):  -0.468700E-01
                             N   1(s)-2(p):  -0.317000E-01
                             N   2(p)-1(s):  -0.317000E-01
                             N   2(p)-2(p):  -0.307200E-01
Range separated hybrid:      Yes
  Screening parameter omega:   0.300000E+00
  Range separated algorithm:   MatrixBased
Extra options:
                             Mulliken analysis
                             Force calculation
Force type                   original
                             Eigenvector printing


REKS Calcuation:             Yes
SSR(2,2) Calcuation:         Yes
Energy Functional:           (PPS+OSS)/2
Number of Core Orbitals:                 15
Number of Active Orbitals:                2
Number of Basis:                         32
Number of States:                         2
State-Averaging Weight:          0.500000
                                 0.500000
State of Interest:                        1
Initial Guess:               Diagonalize H0 matrix
Newton-Raphson for FON opt:  Yes
NR max. Iterations:                      50
Level Shifting:              Yes
Shift Value:                     0.300000
W Scale Factor:              C  =    3.200000
                             H  =    3.200000
                             N  =    3.200000
Transition Dipole:           No
Gradient of Microstate:      No
CP-REKS Solver:              Preconditioned Conjugate-Gradient
CG max. Iterations:                     100
CG Tolerance:                  0.100000E-07
Memory for A and Hxc:        Direct Updating Without Saving
Non-Adiabatic Coupling:      Yes

--------------------------------------------------------------------------------

***  Geometry step: 0

  iSCC       reks energy        Diff energy         x_a       SCC error   
    1      -16.4389753184       0.0000000000     0.996888    1.20575568
    2      -16.4545562861      -0.0155809677     0.999200    0.05064002
    3      -16.4579529034      -0.0033966173     0.999633    0.01877751
    4      -16.4591728984      -0.0012199950     0.999780    0.00971369
    5      -16.4597237493      -0.0005508509     0.999848    0.00616405
    6      -16.4600028638      -0.0002791145     0.999885    0.00475368
    7      -16.4601538370      -0.0001509732     0.999907    0.00375670
    8      -16.4602389349      -0.0000850979     0.999920    0.00292174
    9      -16.4602883904      -0.0000494555     0.999930    0.00225208
   10      -16.4603179126      -0.0000295222     0.999936    0.00172831
   11      -16.4603360022      -0.0000180896     0.999941    0.00132486
   12      -16.4603473837      -0.0000113815     0.999944    0.00101692
   13      -16.4603547380      -0.0000073543     0.999946    0.00078307
   14      -16.4603596161      -0.0000048781     0.999948    0.00061923
   15      -16.4603629330      -0.0000033169     0.999950    0.00053700
   16      -16.4603652404      -0.0000023074     0.999951    0.00046669
   17      -16.4603668785      -0.0000016381     0.999952    0.00040648
   18      -16.4603680621      -0.0000011836     0.999953    0.00035479
   19      -16.4603689303      -0.0000008682     0.999953    0.00031027
   20      -16.4603695752      -0.0000006449     0.999954    0.00027182
   21      -16.4603700594      -0.0000004842     0.999954    0.00023850
   22      -16.4603704262      -0.0000003668     0.999955    0.00020956
   23      -16.4603707062      -0.0000002800     0.999955    0.00018435
   24      -16.4603709212      -0.0000002150     0.999955    0.00016236
   25      -16.4603710873      -0.0000001661     0.999956    0.00014312
   26      -16.4603712162      -0.0000001289     0.999956    0.00012628
   27      -16.4603713167      -0.0000001004     0.999956    0.00011151
   28      -16.4603713952      -0.0000000786     0.999956    0.00009854
   29      -16.4603714569      -0.0000000616     0.999956    0.00008713
   30      -16.4603715054      -0.0000000485     0.999956    0.00007710
   31      -16.4603715437      -0.0000000383     0.999957    0.00006827
   32      -16.4603715740      -0.0000000303     0.999957    0.00006048
   33      -16.4603715980      -0.0000000240     0.999957    0.00005362
   34      -16.4603716171      -0.0000000191     0.999957    0.00004756
   35      -16.4603716324      -0.0000000152     0.999957    0.00004220
   36      -16.4603716445      -0.0000000121     0.999957    0.00003748
   37      -16.4603716542      -0.0000000097     0.999957    0.00003329
   38      -16.4603716620      -0.0000000078     0.999957    0.00002960
   39      -16.4603716682      -0.0000000062     0.999957    0.00002632
   40      -16.4603716732      -0.0000000050     0.999957    0.00002342
   41      -16.4603716773      -0.0000000040     0.999957    0.00002085
   42      -16.4603716805      -0.0000000032     0.999957    0.00001858
   43      -16.4603716831      -0.0000000026     0.999957    0.00001655
   44      -16.4603716852      -0.0000000021     0.999957    0.00001476
   45      -16.4603716869      -0.0000000017     0.999957    0.00001317
   46      -16.4603716883      -0.0000000014     0.999957    0.00001175
   47      -16.4603716894      -0.0000000011     0.999957    0.00001049
   48      -16.4603716903      -0.0000000009     0.999957    0.00000937
   49      -16.4603716910      -0.0000000007     0.999957    0.00000838
   50      -16.4603716916      -0.0000000006     0.999957    0.00000749
   51      -16.4603716921      -0.0000000005     0.999957    0.00000670
   52      -16.4603716925      -0.0000000004     0.999957    0.00000599
   53      -16.4603716928      -0.0000000003     0.999957    0.00000537
   54      -16.4603716931      -0.0000000003     0.999957    0.00000481
   55      -16.4603716933      -0.0000000002     0.999957    0.00000431
   56      -16.4603716935      -0.0000000002     0.999957    0.00000386
   57      -16.4603716936      -0.0000000001     0.999957    0.00000346
   58      -16.4603716937      -0.0000000001     0.999957    0.00000310
   59      -16.4603716938      -0.0000000001     0.999957    0.00000278
   60      -16.4603716939      -0.0000000001     0.999957    0.00000250
   61      -16.4603716939      -0.0000000001     0.999957    0.00000224
   62      -16.4603716940      -0.0000000000     0.999957    0.00000201
   63      -16.4603716940      -0.0000000000     0.999957    0.00000181
   64      -16.4603716941      -0.0000000000     0.999957    0.00000163
   65      -16.4603716941      -0.0000000000     0.999957    0.00000146
   66      -16.4603716941      -0.0000000000     0.999957    0.00000131
   67      -16.4603716941      -0.0000000000     0.999957    0.00000118
   68      -16.4603716941      -0.0000000000     0.999957    0.00000106
   69      -16.4603716942      -0.0000000000     0.999957    0.00000096
  
--------------------------------------------------
 Final SA-REKS(2,2) energy:     -16.46037169
  
 State     Energy      FON(1)    FON(2)   Spin
  PPS  -16.52556123   1.999915  0.000085  0.00
  OSS  -16.39518216   1.000000  1.000000  0.00
 Trip  -16.44027930   1.000000  1.000000  1.00
--------------------------------------------------

 Lagrangian Wab:  -0.00276169 -0.00276086

--------------------------------------------------
 SSR: 2SI-2SA-REKS(2,2) Hamiltonian matrix
               PPS           OSS
   PPS   -16.52556123   -0.00388006
   OSS    -0.00388006  -16.39518216
--------------------------------------------------

----------------------------------------------------------------
 SSR: 2SI-2SA-REKS(2,2) states
                    E_n       C_{PPS}    C_{OSS}
 SSR state  1  -16.52567660  -0.999558  -0.029720
 SSR state  2  -16.39506679   0.029720  -0.999558
----------------------------------------------------------------

 unrelaxed SSR FONs for S0:  1.999032  0.000968

Total Energy:                      -16.5256765980 H         -449.6865 eV
Extrapolated to 0:                 -16.5256765980 H         -449.6865 eV

----------------------------------------------------------------------------------
 Solving CP-REKS equation for  1 state vector...
----------------------------------------------------------------------------------
  CG solver: Constructing Y initial guess
  CG solver: Iteration    1    eps =    0.000093681270
  CG solver: Iteration    2    eps =    0.000008292501
  CG solver: Iteration    3    eps =    0.000006589159
  CG solver: Iteration    4    eps =    0.000001304060
  CG solver: Iteration    5    eps =    0.000000437920
  CG solver: Iteration    6    eps =    0.000000348684
  CG solver: Iteration    7    eps =    0.000000061480
  CG solver: Iteration    8    eps =    0.000000008298
  Convergence reached in CG solver after    8 iterations
  CG solver: Calculating converged R, Z, Q2 matrix
----------------------------------------------------------------------------------

----------------------------------------------------------------------------------
 Solving CP-REKS equation for SI between  1 and  2 state vectors...
----------------------------------------------------------------------------------
  CG solver: Constructing Y initial guess
  CG solver: Iteration    1    eps =    0.063164068613
  CG solver: Iteration    2    eps =    0.007475463574
  CG solver: Iteration    3    eps =    0.002675448944
  CG solver: Iteration    4    eps =    0.000213833792
  CG solver: Iteration    5    eps =    0.000070404498
  CG solver: Iteration    6    eps =    0.000030636105
  CG solver: Iteration    7    eps =    0.000004710511
  CG solver: Iteration    8    eps =    0.000000796569
  CG solver: Iteration    9    eps =    0.000000090387
  CG solver: Iteration   10    eps =    0.000000005174
  Convergence reached in CG solver after   10 iterations
  CG solver: Calculating converged R, Z, Q2 matrix
----------------------------------------------------------------------------------

--------------------------------------------------
 Gradient Information
--------------------------------------------------
           1 st state (SSR)
    -0.00978815    -0.02340252     0.03449671
    -0.03354359     0.03334997     0.00422618
    -0.00782455     0.00218948    -0.01679779
     0.01662898     0.01375334    -0.00444401
     0.02316963    -0.01587803    -0.00491165
     0.04244312    -0.03767597    -0.02550658
    -0.06280988    -0.01245400     0.07631152
     0.01016757     0.02191435     0.00182322
    -0.00904829     0.00249805    -0.00682216
    -0.02971342    -0.01149543    -0.02152814
     0.00989568     0.01658304    -0.02043920
     0.07441656     0.01608578     0.01274505
     0.00018816    -0.00409078     0.01337051
    -0.02418183    -0.00137729    -0.04252363

           2 st state (SSR)
    -0.02260127     0.01150367     0.05137412
    -0.02194794    -0.00054649    -0.03156110
    -0.00648328     0.00350275    -0.01579973
     0.01517445     0.01060992    -0.00132026
     0.02445474    -0.01597664    -0.00465298
     0.07922308    -0.01630175    -0.01394104
    -0.08730186    -0.01720380     0.06194875
     0.01018521     0.01280271     0.00776814
    -0.00962865     0.00742672    -0.01151221
     0.02700300    -0.01124602    -0.00245902
     0.01106584     0.01424872    -0.02256055
     0.00108713     0.00377589     0.01178607
     0.00145690     0.00274739     0.01087176
    -0.02168733    -0.00534305    -0.03994195
--------------------------------------------------
 Coupling Information
--------------------------------------------------
 between  1 and  2 states
--------------------------------------------------
 g vector - difference gradient
     0.00615091    -0.01637186    -0.00856867
    -0.00487536     0.01619516     0.01837477
    -0.00068978    -0.00075997    -0.00041219
     0.00072967     0.00144132    -0.00147910
    -0.00066086    -0.00011427     0.00014887
    -0.02343830    -0.01101104    -0.00649493
     0.01782681     0.00169526     0.00582922
    -0.00005631     0.00522740    -0.00357565
     0.00055791    -0.00299055     0.00254964
    -0.02847570     0.00137893    -0.00773952
    -0.00053089     0.00086812     0.00095377
     0.03515124     0.00587145     0.00044191
    -0.00050734    -0.00359091     0.00117299
    -0.00118200     0.00216098    -0.00120112

 h vector - derivative coupling
     0.00448576    -0.01868479     0.00193263
    -0.01567085     0.01315646    -0.00755150
     0.00030177     0.00171668    -0.00147390
    -0.00001882     0.00223738    -0.00143716
     0.00028842     0.00274974    -0.00467808
     0.08427089     0.00512473     0.01179311
    -0.09340001     0.01148934     0.02293136
     0.00079757    -0.01114794     0.01004600
    -0.00448950     0.00876781    -0.00336806
     0.00113077    -0.02526640    -0.03044228
    -0.00092777     0.00505899     0.00182767
     0.02651829     0.00494603     0.00064563
    -0.00215320     0.00278521     0.00132046
    -0.00113332    -0.00293325    -0.00154588

 G vector - GDV
     0.00640656    -0.01745309    -0.00843870
    -0.00579782     0.01694823     0.01789364
    -0.00067063    -0.00065663    -0.00049903
     0.00072727     0.00157171    -0.00156187
    -0.00064255     0.00004931    -0.00012934
    -0.01838998    -0.01068711    -0.00578277
     0.01224599     0.00237490     0.00718138
    -0.00000882     0.00455582    -0.00297246
     0.00029018    -0.00246433     0.00234502
    -0.02835821    -0.00012470    -0.00953456
    -0.00058508     0.00116716     0.00106067
     0.03666472     0.00615495     0.00047949
    -0.00063437    -0.00341909     0.00124937
    -0.00124725     0.00198288    -0.00129084

 H vector - DCV - non-adiabatic coupling
     0.03148603    -0.13535780     0.01866871
    -0.11755245     0.09318590    -0.06607382
     0.00262020     0.01346606    -0.01107728
    -0.00047575     0.01644435    -0.01031114
     0.00250499     0.02106787    -0.03582169
     0.65473329     0.04417659     0.09308776
    -0.72195326     0.08704032     0.17260961
     0.00612133    -0.08758014     0.07840677
    -0.03456647     0.06837163    -0.02690145
     0.02159593    -0.19373501    -0.22914561
    -0.00684929     0.03827028     0.01353478
     0.18668543     0.03513093     0.00473343
    -0.01622587     0.02292051     0.00955850
    -0.00812413    -0.02340149    -0.01126857
--------------------------------------------------


--------------------------------------------------------------------------------
DFTB+ running times                          cpu [s]             wall clock [s]
--------------------------------------------------------------------------------
SCC                                    +     0.10  ( 25.7%)      0.10  ( 25.2%)
      Sparse to dense                        0.01  (  1.4%)      0.01  (  2.5%)
      Dense to sparse                        0.02  (  5.1%)      0.02  (  4.4%)
  Density matrix creation                    0.01  (  2.8%)      0.01  (  2.7%)
Post-SCC processing                    +     0.29  ( 74.0%)      0.29  ( 71.8%)
  Force calculation                          0.29  ( 73.9%)      0.29  ( 71.3%)
--------------------------------------------------------------------------------
Missing                                +     0.00  (  0.4%)      0.01  (  2.9%)
Total                                  =     0.39  (100.0%)      0.41  (100.0%)
--------------------------------------------------------------------------------
