 Fermi distribution function

Calculation with static geometry


********************************************************************************
 iSCC Total electronic   Diff electronic      SCC error    
   14   -0.52497655E+01   -0.37214676E-12    0.30980107E-08
********************************************************************************

 Total charge:     1.00000000

 Atomic gross charges (e)
 Atom           Charge
    1       0.29810255
    2      -0.18889287
    3       0.18333409
    4       0.26076028
    5       0.26066721
    6       0.18602874

Nr. of electrons (up):     12.00000000
Atom populations (up)
 Atom       Population
    1       3.70189745
    2       5.18889287
    3       0.81666591
    4       0.73923972
    5       0.73933279
    6       0.81397126

l-shell populations (up)
 Atom Sh.   l       Population
    1   1   0       1.42705757
    1   2   1       2.27483988
    2   1   0       1.53909732
    2   2   1       3.64979555
    3   1   0       0.81666591
    4   1   0       0.73923972
    5   1   0       0.73933279
    6   1   0       0.81397126

Orbital populations (up)
 Atom Sh.   l   m       Population  Label
    1   1   0   0       1.42705757  s
    1   2   1  -1       0.39744268  p_y
    1   2   1   0       0.85889490  p_z
    1   2   1   1       1.01850230  p_x
    2   1   0   0       1.53909732  s
    2   2   1  -1       1.43157045  p_y
    2   2   1   0       1.05524837  p_z
    2   2   1   1       1.16297673  p_x
    3   1   0   0       0.81666591  s
    4   1   0   0       0.73923972  s
    5   1   0   0       0.73933279  s
    6   1   0   0       0.81397126  s

Fermi level:                        -0.5165068151 H          -14.0549 eV
Band energy:                        -8.6020294681 H         -234.0731 eV
TS:                                  0.0000000000 H            0.0000 eV
Band free energy (E-TS):            -8.6020294681 H         -234.0731 eV
Extrapolated E(0K):                 -8.6020294681 H         -234.0731 eV
Input / Output electrons (q):     12.0000000000     12.0000000000

Energy H0:                          -5.3845737498 H         -146.5217 eV
Energy SCC:                          0.1348082618 H            3.6683 eV
Total Electronic energy:            -5.2497654880 H         -142.8534 eV
Repulsive energy:                    0.1258893380 H            3.4256 eV
Total energy:                       -5.1238761500 H         -139.4278 eV
Extrapolated to 0:                  -5.1238761500 H         -139.4278 eV
Total Mermin free energy:           -5.1238761500 H         -139.4278 eV
Force related energy:               -5.1238761500 H         -139.4278 eV

SCC converged

Excitation Energy:                   0.1023066508 H            2.7839 eV

Total Forces
    1     -0.000670914522      0.000484494639      0.004679875565
    2     -0.017978718966      0.013718626611     -0.003605157402
    3     -0.000328580973      0.000544343050      0.001956836195
    4      0.003824336388     -0.001784900650      0.001440269367
    5      0.014350847889     -0.010302394417     -0.006489350850
    6      0.000803030183     -0.002660169235      0.002017527126

Maximal derivative component:        0.179787E-01 au


