|===============================================================================
|
|  DFTB+ release 20.1
|
|  Copyright (C) 2006 - 2020  DFTB+ developers group
|
|===============================================================================
|
|  When publishing results obtained with DFTB+, please cite the following
|  reference:
|
|  * DFTB+, a software package for efficient approximate density functional
|    theory based atomistic simulations, J. Chem. Phys. 152, 124101 (2020).
|    [doi: 10.1063/1.5143190]
|
|  You should also cite additional publications crediting the parametrization
|  data you use. Please consult the documentation of the SK-files for the
|  references.
|
|===============================================================================

Reading input file 'dftb_in.hsd'
Parser version: 8

--------------------------------------------------------------------------------
Reading SK-files:
Done.


Processed input in HSD format written to 'dftb_pin.hsd'

Starting initialization...
--------------------------------------------------------------------------------
WARNING!
-> Excited state forces are not implemented yet for fractional occupations, kT=  0.3158E-02K
OpenMP threads:              1
Chosen random seed:          505836016
Mode:                        Static calculation
Self consistent charges:     Yes
SCC-tolerance:                 0.100000E-05
Max. scc iterations:                    100
Shell resolved Hubbard:      No
Spin polarisation:           No
Nr. of up electrons:             6.000000
Nr. of down electrons:           6.000000
Periodic boundaries:         No
Electronic solver:           Relatively robust
Mixer:                       Broyden mixer
Mixing parameter:                  0.200000
Maximal SCC-cycles:                     100
Nr. of chrg. vec. in memory:              0
Electronic temperature:        0.100000E-07 H      0.272114E-06 eV
Initial charges:             Set automatically (system chrg:   0.100E+01)
Included shells:             C:  s, p
                             N:  s, p
                             H:  s
Extra options:
                             Mulliken analysis
                             Force calculation
Force type                   original
                             Eigenvector printing

--------------------------------------------------------------------------------

***  Geometry step: 0

 iSCC Total electronic   Diff electronic      SCC error    
    1   -0.51999323E+01    0.00000000E+00    0.11457903E+01
    2   -0.52346141E+01   -0.34681821E-01    0.67224113E+00
    3   -0.52431364E+01   -0.85222714E-02    0.33755079E+00
    4   -0.46286753E+01    0.61446106E+00    0.25141924E+01
    5   -0.52449855E+01   -0.61631022E+00    0.20417592E+00
    6   -0.52497424E+01   -0.47568756E-02    0.19685805E-01
    7   -0.52497613E+01   -0.18940434E-04    0.87287788E-02
    8   -0.52497592E+01    0.21605794E-05    0.75851278E-02
    9   -0.52497655E+01   -0.63232405E-05    0.67998494E-04
   10   -0.52497655E+01   -0.17548896E-09    0.43955713E-04
   11   -0.52497655E+01    0.15712942E-09    0.59504992E-04
   12   -0.52497655E+01   -0.35573855E-09    0.81537451E-05
   13   -0.52497655E+01   -0.61683991E-11    0.19116607E-05
   14   -0.52497655E+01   -0.37214676E-12    0.30980107E-08
>> Charges saved for restart in charges.bin

Total Energy:                       -5.0215694992 H         -136.6439 eV
Extrapolated to 0:                  -5.1238761500 H         -139.4278 eV
Total Mermin free energy:           -5.0215694992 H         -136.6439 eV
Force related energy:               -5.1238761500 H         -139.4278 eV

--------------------------------------------------------------------------------
DFTB+ running times                          cpu [s]             wall clock [s]
--------------------------------------------------------------------------------
SCC                                    +     0.01  ( 57.9%)      0.12  ( 77.9%)
Post-SCC processing                    +     0.01  ( 36.3%)      0.03  ( 16.2%)
--------------------------------------------------------------------------------
Missing                                +     0.00  (  5.8%)      0.01  (  5.8%)
Total                                  =     0.02  (100.0%)      0.15  (100.0%)
--------------------------------------------------------------------------------
