 Fermi distribution function

Calculation with static geometry


********************************************************************************
 iSCC Total electronic   Diff electronic      SCC error    
   14   -0.52628158E+01   -0.23628210E-10    0.27367383E-07
********************************************************************************

 Total charge:     1.00000000

 Atomic gross charges (e)
 Atom           Charge
    1       0.31305494
    2      -0.19435351
    3       0.18597128
    4       0.26403629
    5       0.25684927
    6       0.17444173

Nr. of electrons (up):     12.00000000
Atom populations (up)
 Atom       Population
    1       3.68694506
    2       5.19435351
    3       0.81402872
    4       0.73596371
    5       0.74315073
    6       0.82555827

l-shell populations (up)
 Atom Sh.   l       Population
    1   1   0       1.40924875
    1   2   1       2.27769632
    2   1   0       1.53627631
    2   2   1       3.65807719
    3   1   0       0.81402872
    4   1   0       0.73596371
    5   1   0       0.74315073
    6   1   0       0.82555827

Orbital populations (up)
 Atom Sh.   l   m       Population  Label
    1   1   0   0       1.40924875  s
    1   2   1  -1       0.39365000  p_y
    1   2   1   0       0.87749375  p_z
    1   2   1   1       1.00655256  p_x
    2   1   0   0       1.53627631  s
    2   2   1  -1       1.33171993  p_y
    2   2   1   0       1.10695580  p_z
    2   2   1   1       1.21940146  p_x
    3   1   0   0       0.81402872  s
    4   1   0   0       0.73596371  s
    5   1   0   0       0.74315073  s
    6   1   0   0       0.82555827  s

Fermi level:                        -0.5195480113 H          -14.1376 eV
Band energy:                        -8.6666639895 H         -235.8319 eV
TS:                                  0.0000000000 H            0.0000 eV
Band free energy (E-TS):            -8.6666639895 H         -235.8319 eV
Extrapolated E(0K):                 -8.6666639895 H         -235.8319 eV
Input / Output electrons (q):     12.0000000000     12.0000000000

Energy H0:                          -5.4004562825 H         -146.9539 eV
Energy SCC:                          0.1376405093 H            3.7454 eV
Total Electronic energy:            -5.2628157732 H         -143.2085 eV
Repulsive energy:                    0.1354174047 H            3.6849 eV
Total energy:                       -5.1273983685 H         -139.5236 eV
Extrapolated to 0:                  -5.1273983685 H         -139.5236 eV
Total Mermin free energy:           -5.1273983685 H         -139.5236 eV
Force related energy:               -5.1273983685 H         -139.5236 eV

SCC converged

Excitation Energy:                   0.0958211428 H            2.6074 eV

Total Forces
    1      0.000293673676      0.002241026657      0.036102407024
    2      0.023710018082     -0.021019173604     -0.045629484346
    3      0.003707325332      0.009911627582     -0.002799270468
    4     -0.017346640653      0.009898988021      0.001099052026
    5     -0.009105602685      0.008184783828      0.010941986600
    6     -0.001258773752     -0.009217252484      0.000285309165

Maximal derivative component:        0.456295E-01 au


