|===============================================================================
|
|  DFTB+ release 20.1
|
|  Copyright (C) 2006 - 2020  DFTB+ developers group
|
|===============================================================================
|
|  When publishing results obtained with DFTB+, please cite the following
|  reference:
|
|  * DFTB+, a software package for efficient approximate density functional
|    theory based atomistic simulations, J. Chem. Phys. 152, 124101 (2020).
|    [doi: 10.1063/1.5143190]
|
|  You should also cite additional publications crediting the parametrization
|  data you use. Please consult the documentation of the SK-files for the
|  references.
|
|===============================================================================

Reading input file 'dftb_in.hsd'
Parser version: 8

--------------------------------------------------------------------------------
Reading SK-files:
Done.


Processed input in HSD format written to 'dftb_pin.hsd'

Starting initialization...
--------------------------------------------------------------------------------
OpenMP threads:              1
Chosen random seed:          509978494
Mode:                        Static calculation
Self consistent charges:     Yes
SCC-tolerance:                 0.100000E-05
Max. scc iterations:                   1000
Shell resolved Hubbard:      No
Spin polarisation:           No
Nr. of up electrons:             6.000000
Nr. of down electrons:           6.000000
Periodic boundaries:         No
Electronic solver:           Relatively robust
Maximal SCC-cycles:                    1000
Initial charges:             Set automatically (system chrg:   0.100E+01)
Included shells:             C:  s, p
                             N:  s, p
                             H:  s
Spin coupling constants:     C   1(s)-1(s):  -0.455900E-01
                             C   1(s)-2(p):  -0.293000E-01
                             C   2(p)-1(s):  -0.293000E-01
                             C   2(p)-2(p):  -0.275500E-01
                             N   1(s)-1(s):  -0.468700E-01
                             N   1(s)-2(p):  -0.317000E-01
                             N   2(p)-1(s):  -0.317000E-01
                             N   2(p)-2(p):  -0.307200E-01
                             H   1(s)-1(s):  -0.792500E-01
Range separated hybrid:      Yes
  Screening parameter omega:   0.300000E+00
  Range separated algorithm:   MatrixBased
Extra options:
                             Mulliken analysis
                             Force calculation
Force type                   original
                             Eigenvector printing


REKS Calcuation:             Yes
SSR(2,2) Calcuation:         Yes
Energy Functional:           (PPS+OSS)/2
Number of Core Orbitals:                  5
Number of Active Orbitals:                2
Number of Basis:                         12
Number of States:                         2
State-Averaging Weight:          0.500000
                                 0.500000
State of Interest:                        1
Initial Guess:               Diagonalize H0 matrix
Newton-Raphson for FON opt:  Yes
NR max. Iterations:                      50
Level Shifting:              Yes
Shift Value:                     0.300000
W Scale Factor:              C  =    3.000000
                             N  =    3.000000
                             H  =    3.000000
Transition Dipole:           No
Gradient of Microstate:      No
CP-REKS Solver:              Preconditioned Conjugate-Gradient
CG max. Iterations:                     100
CG Tolerance:                  0.100000E-07
Memory for A and Hxc:        Direct Updating Without Saving
Non-Adiabatic Coupling:      Yes

--------------------------------------------------------------------------------

***  Geometry step: 0

  iSCC       reks energy        Diff energy         x_a       SCC error   
    1       -6.2594353703       0.0000000000     0.999051    1.18823331
    2       -6.2738886224      -0.0144532521     0.999631    0.11059008
    3       -6.2788083590      -0.0049197365     0.999802    0.05320483
    4       -6.2816909995      -0.0028826405     0.999877    0.02743579
    5       -6.2836989420      -0.0020079424     0.999914    0.01446467
    6       -6.2851772184      -0.0014782764     0.999934    0.01180373
    7       -6.2862636643      -0.0010864459     0.999946    0.01049346
    8       -6.2870412691      -0.0007776048     0.999953    0.00954927
    9       -6.2875797294      -0.0005384603     0.999958    0.00836772
   10       -6.2879412341      -0.0003615047     0.999961    0.00714604
   11       -6.2881778553      -0.0002366213     0.999962    0.00599552
   12       -6.2883298112      -0.0001519559     0.999963    0.00497010
   13       -6.2884261151      -0.0000963038     0.999964    0.00408728
   14       -6.2884866440      -0.0000605289     0.999964    0.00334378
   15       -6.2885245198      -0.0000378758     0.999965    0.00272632
   16       -6.2885481852      -0.0000236654     0.999965    0.00221802
   17       -6.2885629810      -0.0000147958     0.999965    0.00180189
   18       -6.2885722508      -0.0000092697     0.999965    0.00146239
   19       -6.2885780757      -0.0000058249     0.999965    0.00118600
   20       -6.2885817488      -0.0000036730     0.999965    0.00096133
   21       -6.2885840734      -0.0000023246     0.999965    0.00077887
   22       -6.2885855499      -0.0000014765     0.999965    0.00063080
   23       -6.2885864910      -0.0000009411     0.999965    0.00051070
   24       -6.2885870927      -0.0000006017     0.999965    0.00041335
   25       -6.2885874785      -0.0000003858     0.999964    0.00033446
   26       -6.2885877265      -0.0000002480     0.999964    0.00027056
   27       -6.2885878863      -0.0000001598     0.999964    0.00021882
   28       -6.2885879894      -0.0000001031     0.999964    0.00017739
   29       -6.2885880560      -0.0000000667     0.999964    0.00014428
   30       -6.2885880992      -0.0000000431     0.999964    0.00011725
   31       -6.2885881271      -0.0000000280     0.999964    0.00009522
   32       -6.2885881453      -0.0000000181     0.999964    0.00007727
   33       -6.2885881570      -0.0000000118     0.999964    0.00006267
   34       -6.2885881647      -0.0000000076     0.999964    0.00005080
   35       -6.2885881696      -0.0000000050     0.999964    0.00004117
   36       -6.2885881729      -0.0000000032     0.999964    0.00003334
   37       -6.2885881750      -0.0000000021     0.999964    0.00002699
   38       -6.2885881763      -0.0000000014     0.999964    0.00002185
   39       -6.2885881772      -0.0000000009     0.999964    0.00001768
   40       -6.2885881778      -0.0000000006     0.999964    0.00001430
   41       -6.2885881782      -0.0000000004     0.999964    0.00001157
   42       -6.2885881784      -0.0000000002     0.999964    0.00000935
   43       -6.2885881786      -0.0000000002     0.999964    0.00000756
   44       -6.2885881787      -0.0000000001     0.999964    0.00000611
   45       -6.2885881788      -0.0000000001     0.999964    0.00000494
   46       -6.2885881788      -0.0000000000     0.999964    0.00000399
   47       -6.2885881788      -0.0000000000     0.999964    0.00000322
   48       -6.2885881789      -0.0000000000     0.999964    0.00000260
   49       -6.2885881789      -0.0000000000     0.999964    0.00000210
   50       -6.2885881789      -0.0000000000     0.999964    0.00000170
   51       -6.2885881789      -0.0000000000     0.999964    0.00000137
   52       -6.2885881789      -0.0000000000     0.999964    0.00000111
   53       -6.2885881789      -0.0000000000     0.999964    0.00000090
  
--------------------------------------------------
 Final SA-REKS(2,2) energy:      -6.28858818
  
 State     Energy      FON(1)    FON(2)   Spin
  PPS   -6.41713997   1.999929  0.000071  0.00
  OSS   -6.16003638   1.000000  1.000000  0.00
 Trip   -6.23957669   1.000000  1.000000  1.00
--------------------------------------------------

 Lagrangian Wab:  -0.00236810 -0.00236801

--------------------------------------------------
 SSR: 2SI-2SA-REKS(2,2) Hamiltonian matrix
               PPS           OSS
   PPS    -6.41713997   -0.00332892
   OSS    -0.00332892   -6.16003638
--------------------------------------------------

----------------------------------------------------------------
 SSR: 2SI-2SA-REKS(2,2) states
                    E_n       C_{PPS}    C_{OSS}
 SSR state  1   -6.41718307  -0.999916  -0.012945
 SSR state  2   -6.15999329   0.012945  -0.999916
----------------------------------------------------------------

 unrelaxed SSR FONs for S0:  1.999761  0.000239

Total Energy:                       -6.4171830693 H         -174.6204 eV
Extrapolated to 0:                  -6.4171830693 H         -174.6204 eV

----------------------------------------------------------------------------------
 Solving CP-REKS equation for  1 state vector...
----------------------------------------------------------------------------------
  CG solver: Constructing Y initial guess
  CG solver: Iteration    1    eps =    0.000042391601
  CG solver: Iteration    2    eps =    0.000006905391
  CG solver: Iteration    3    eps =    0.000000356631
  CG solver: Iteration    4    eps =    0.000000046640
  CG solver: Iteration    5    eps =    0.000000006577
  Convergence reached in CG solver after    5 iterations
  CG solver: Calculating converged R, Z, Q2 matrix
----------------------------------------------------------------------------------

----------------------------------------------------------------------------------
 Solving CP-REKS equation for SI between  1 and  2 state vectors...
----------------------------------------------------------------------------------
  CG solver: Constructing Y initial guess
  CG solver: Iteration    1    eps =    0.000713791932
  CG solver: Iteration    2    eps =    0.000669281986
  CG solver: Iteration    3    eps =    0.000159658191
  CG solver: Iteration    4    eps =    0.000002232381
  CG solver: Iteration    5    eps =    0.000000306771
  CG solver: Iteration    6    eps =    0.000000007838
  Convergence reached in CG solver after    6 iterations
  CG solver: Calculating converged R, Z, Q2 matrix
----------------------------------------------------------------------------------

--------------------------------------------------
 Gradient Information
--------------------------------------------------
           1 st state (SSR)
    -0.00087725     0.00339279    -0.02277942
     0.00473600    -0.00198201     0.01754180
    -0.00591137     0.00484959    -0.00014153
    -0.00755334    -0.00245240     0.00245477
     0.00425357     0.00147378     0.00426534
     0.00535239    -0.00528177    -0.00134095

           2 st state (SSR)
     0.00196925    -0.00367095     0.07119602
    -0.00393246     0.00491662    -0.09573919
     0.00417206     0.01810884     0.01988300
     0.00685722    -0.00698700    -0.00719433
    -0.00474651     0.00782781    -0.00535837
    -0.00431956    -0.02019533     0.01721288
--------------------------------------------------
 Coupling Information
--------------------------------------------------
 between  1 and  2 states
--------------------------------------------------
 g vector - difference gradient
    -0.00141888     0.00353379    -0.04710412
     0.00434530    -0.00342122     0.05670469
    -0.00522538    -0.00664719    -0.01000465
    -0.00740282     0.00221759     0.00483500
     0.00468813    -0.00315695     0.00483701
     0.00501365     0.00747398    -0.00926794

 h vector - derivative coupling
    -0.00018718    -0.00002827     0.00388668
    -0.00037140    -0.00112949    -0.00174597
     0.00702730     0.00059257    -0.00042370
     0.00753503     0.00194896    -0.00034128
    -0.00720524    -0.00081602    -0.00090932
    -0.00679852    -0.00056775    -0.00046640

 G vector - GDV
    -0.00142325     0.00353187    -0.04698772
     0.00433423    -0.00344931     0.05664049
    -0.00504172    -0.00662963    -0.01001227
    -0.00720528     0.00226730     0.00482455
     0.00450004    -0.00317702     0.00481185
     0.00483598     0.00745678    -0.00927691

 H vector - DCV - non-adiabatic coupling
    -0.00058472    -0.00046558     0.01984819
    -0.00188094    -0.00404584    -0.01249386
     0.02784019     0.00297229    -0.00063987
     0.03003285     0.00735217    -0.00181318
    -0.02847775    -0.00285400    -0.00402129
    -0.02692963    -0.00295904    -0.00088000
--------------------------------------------------


--------------------------------------------------------------------------------
DFTB+ running times                          cpu [s]             wall clock [s]
--------------------------------------------------------------------------------
SCC                                    +     0.02  ( 69.5%)      0.03  ( 63.4%)
Post-SCC processing                    +     0.01  ( 26.8%)      0.01  ( 24.4%)
--------------------------------------------------------------------------------
Missing                                +     0.00  (  3.7%)      0.01  ( 12.2%)
Total                                  =     0.03  (100.0%)      0.04  (100.0%)
--------------------------------------------------------------------------------
