    14
  Step:     0            Position(A)                                  Velocity(au)
C        -5.96208721    -0.85206311    -0.04695270    -0.00004045    -0.00005578     0.00003794
C        -4.64516472    -0.70159413     0.18689816     0.00002113    -0.00001012    -0.00006374
H        -6.46737158    -0.02193631    -0.55639637    -0.00052789     0.00054881     0.00039504
H        -6.64765999    -1.66197181     0.37040967    -0.00048325    -0.00066994     0.00043138
H        -4.04936071    -1.49577843     0.66442493     0.00014360    -0.00014370     0.00073614
C        -3.95160458     0.53150614    -0.14569328     0.00000330     0.00003917    -0.00023156
C        -2.59923905     0.59631830     0.11114143    -0.00002701    -0.00031377     0.00025878
H        -4.41750122     1.36678102    -0.78704609     0.00052168     0.00067397    -0.00050172
H        -2.13902619    -0.25195006     0.71173570     0.00022882     0.00081199    -0.00054360
C        -1.81107346     1.67435689    -0.17954787     0.00037439     0.00044204     0.00012620
H        -2.15635921     2.51879920    -0.80269960     0.00037651    -0.00032013     0.00019848
N        -0.56911035     1.72617283     0.37919970    -0.00037158    -0.00019538    -0.00027171
H         0.08275939     2.51691471     0.20084653     0.00017452     0.00053015     0.00086942
H        -0.23258874     0.80503486     0.82663134     0.00078097     0.00007395     0.00067004
    14
  Step:     1            Position(A)                                  Velocity(au)
C        -5.96290621    -0.85271286    -0.04652522    -0.00011031    -0.00006298     0.00004036
C        -4.64467381    -0.70162791     0.18621747     0.00006829     0.00000300    -0.00006024
H        -6.47334637    -0.01637720    -0.55216447    -0.00055518     0.00045300     0.00038590
H        -6.65152414    -1.66831814     0.37441689    -0.00021264    -0.00047657     0.00029427
H        -4.04798622    -1.49702546     0.67240698     0.00009924    -0.00007188     0.00071314
C        -3.95201802     0.53186929    -0.14841255    -0.00007652     0.00002766    -0.00026500
C        -2.59924699     0.59270533     0.11417563     0.00002500    -0.00034081     0.00029264
H        -4.41147368     1.37259122    -0.79105359     0.00057938     0.00038110    -0.00022898
H        -2.13703971    -0.24188697     0.70503779     0.00014465     0.00099554    -0.00065997
C        -1.80687159     1.67936733    -0.17824416     0.00038855     0.00046817     0.00011287
H        -2.15195901     2.51489477    -0.79998295     0.00042142    -0.00037244     0.00028470
N        -0.57302261     1.72394332     0.37628241    -0.00033807    -0.00021033    -0.00025999
H         0.08397568     2.52153745     0.21063215     0.00002772     0.00029569     0.00092079
H        -0.22452917     0.80862458     0.83288387     0.00067793     0.00058588     0.00046566
    14
  Step:     2            Position(A)                                  Velocity(au)
C        -5.96450042    -0.85344090    -0.04606966    -0.00018064    -0.00006964     0.00004301
C        -4.64367079    -0.70152855     0.18558038     0.00011374     0.00001451    -0.00005610
H        -6.47951711    -0.01202611    -0.54795404    -0.00056542     0.00033124     0.00038973
H        -6.65231185    -1.67239764     0.37684734     0.00007168    -0.00026388     0.00014712
H        -4.04718972    -1.49735092     0.68002629     0.00004044     0.00002175     0.00067196
C        -3.95327860     0.53211116    -0.15149066    -0.00015093     0.00001617    -0.00029658
C        -2.59869220     0.58886248     0.11754348     0.00007530    -0.00035475     0.00031908
H        -4.40482624     1.37511825    -0.79205548     0.00063056     0.00008212     0.00004137
H        -2.13586164    -0.23017073     0.69729769     0.00008657     0.00110508    -0.00072759
C        -1.80257314     1.68459909    -0.17707865     0.00039179     0.00048194     0.00010125
H        -2.14713978     2.51065140    -0.79647113     0.00045145    -0.00037832     0.00034083
N        -0.57650638     1.72157142     0.37351195    -0.00029416    -0.00022089    -0.00024529
H         0.08336582     2.52338349     0.22099065    -0.00015007     0.00003402     0.00097123
H        -0.21775773     0.81785219     0.83681847     0.00055222     0.00108612     0.00025547
    14
  Step:     3            Position(A)                                  Velocity(au)
C        -5.96685809    -0.85423627    -0.04558426    -0.00024838    -0.00007489     0.00004578
C        -4.64218557    -0.70131051     0.18499013     0.00015546     0.00002502    -0.00005202
H        -6.48571601    -0.00913066    -0.54363843    -0.00056243     0.00019073     0.00040334
H        -6.64995593    -1.67409093     0.37763532     0.00035477    -0.00004849    -0.00000201
H        -4.04710155    -1.49654960     0.68710734    -0.00002744     0.00013065     0.00061712
C        -3.95531984     0.53222311    -0.15490090    -0.00021873     0.00000305    -0.00032515
C        -2.59759973     0.58494461     0.12115619     0.00012275    -0.00035368     0.00033682
H        -4.39767895     1.37438782    -0.79014853     0.00066638    -0.00020575     0.00029630
H        -2.13514574    -0.21771118     0.68912043     0.00006553     0.00112342    -0.00073406
C        -1.79830039     1.68991063    -0.17602907     0.00038387     0.00048248     0.00009194
H        -2.14208277     2.50661820    -0.79252663     0.00046382    -0.00033207     0.00036207
N        -0.57945793     1.71911088     0.37091622    -0.00024197    -0.00022607    -0.00022862
H         0.08069260     2.52228178     0.23187957    -0.00033968    -0.00023103     0.00101521
H        -0.21244823     0.83238544     0.83847284     0.00041821     0.00153716     0.00005871
    14
  Step:     4            Position(A)                                  Velocity(au)
C        -5.96993429    -0.85507933    -0.04506812    -0.00031060    -0.00007798     0.00004858
C        -4.64026991    -0.70098127     0.18444239     0.00019156     0.00003519    -0.00004868
H        -6.49182141    -0.00785349    -0.53913017    -0.00055069     0.00003954     0.00042289
H        -6.64455063    -1.67345849     0.37680331     0.00062190     0.00015306    -0.00014491
H        -4.04778999    -1.49449272     0.69352694    -0.00009858     0.00024758     0.00055351
C        -3.95806368     0.53217794    -0.15860385    -0.00027902    -0.00001345    -0.00034952
C        -2.59600676     0.58112513     0.12491203     0.00016642    -0.00033629     0.00034490
H        -4.39024801     1.37061701    -0.78557344     0.00067801    -0.00046457     0.00052243
H        -2.13442799    -0.20559378     0.68123882     0.00009086     0.00103774    -0.00066993
C        -1.79417530     1.69515432    -0.17506721     0.00036508     0.00046958     0.00008540
H        -2.13699292     2.50338682    -0.78855009     0.00045724    -0.00023216     0.00034670
N        -0.58179994     1.71662574     0.36851054    -0.00018422    -0.00022492    -0.00021130
H         0.07593473     2.51832924     0.24320024    -0.00052116    -0.00047469     0.00104804
H        -0.20860855     0.85148048     0.83810286     0.00029204     0.00190096    -0.00010373
    14
  Step:     5            Position(A)                                  Velocity(au)
C        -5.97365298    -0.85594224    -0.04452158    -0.00036461    -0.00007815     0.00005124
C        -4.63799476    -0.70054063     0.18392521     0.00022052     0.00004579    -0.00004676
H        -6.49776336    -0.00826575    -0.53438688    -0.00053504    -0.00011388     0.00044411
H        -6.63635059    -1.67074241     0.37446524     0.00085840     0.00032390    -0.00027297
H        -4.04925813    -1.49113341     0.69921653    -0.00016702     0.00036497     0.00048615
C        -3.96142399     0.53192882    -0.16254724    -0.00033128    -0.00003521    -0.00036852
C        -2.59395890     0.57758765     0.12870159     0.00020591    -0.00030221     0.00034303
H        -4.38284610     1.36422457    -0.77871947     0.00065662    -0.00067532     0.00070597
H        -2.13315809    -0.19500869     0.67446448     0.00016736     0.00084423    -0.00053200
C        -1.79031356     1.70018362    -0.17416071     0.00033620     0.00044366     0.00008189
H        -2.13207976     2.50153918    -0.78494182     0.00043246    -0.00008247     0.00029701
N        -0.58348805     1.71419024     0.36629356    -0.00012415    -0.00021655    -0.00019504
H         0.06929133     2.51189713     0.25480745    -0.00067453    -0.00067199     0.00106598
H        -0.20605929     0.87397267     0.83620356     0.00019158     0.00213940    -0.00020932
    14
  Step:     6            Position(A)                                  Velocity(au)
C        -5.97791080    -0.85678895    -0.04394714    -0.00040816    -0.00007463     0.00005351
C        -4.63544560    -0.69997963     0.18341946     0.00024130     0.00005766    -0.00004689
H        -6.50352646    -0.01034481    -0.52941435    -0.00052050    -0.00026102     0.00046253
H        -6.62577157    -1.66637265     0.37083164     0.00104953     0.00044650    -0.00037709
H        -4.05144398    -1.48650835     0.70416245    -0.00022698     0.00047528     0.00041995
C        -3.96531104     0.53140769    -0.16666596    -0.00037543    -0.00006419    -0.00038104
C        -2.59150205     0.57451363     0.13241651     0.00024172    -0.00025238     0.00033183
H        -4.37588322     1.35584309    -0.77012907     0.00059361    -0.00081860     0.00083330
H        -2.13076672    -0.18712460     0.66960034     0.00029217     0.00055275    -0.00032657
C        -1.78682030     1.70486033    -0.17327565     0.00029832     0.00040581     0.00008141
H        -2.12753195     2.50158261    -0.78205242     0.00039262     0.00010717     0.00021987
N        -0.58451604     1.71188836     0.36424370    -0.00006533    -0.00020021    -0.00018171
H         0.06117813     2.50362814     0.26652062    -0.00078082    -0.00079905     0.00106640
H        -0.20441747     0.89828403     0.83352362     0.00013496     0.00221786    -0.00023570
    14
  Step:     7            Position(A)                                  Velocity(au)
C        -5.98258236    -0.85757488    -0.04335091    -0.00043960    -0.00006668     0.00005501
C        -4.63271590    -0.69927921     0.18289936     0.00025352     0.00007180    -0.00004964
H        -6.50915032    -0.01397604    -0.52426806    -0.00051202    -0.00039370     0.00047370
H        -6.61339001    -1.66097444     0.36621563     0.00118128     0.00050329    -0.00044802
H        -4.05422383    -1.48073584     0.70840367    -0.00027312     0.00057131     0.00035953
C        -3.96963724     0.53052458    -0.17088318    -0.00041192    -0.00010232    -0.00038612
C        -2.58867083     0.57206643     0.13596104     0.00027541    -0.00018921     0.00031301
H        -4.36985964     1.34631603    -0.76048953     0.00048164    -0.00087647     0.00089242
H        -2.12676640    -0.18291621     0.66732024     0.00045259     0.00018943    -0.00007131
C        -1.78378716     1.70906158    -0.17237976     0.00025277     0.00035770     0.00008366
H        -2.12349039     2.50388380    -0.78013179     0.00034306     0.00032146     0.00012637
N        -0.58491732     1.70981025     0.36231823    -0.00001115    -0.00017576    -0.00017309
H         0.05220936     2.49441627     0.27813695    -0.00082372    -0.00083509     0.00104798
H        -0.20310670     0.92249261     0.83104711     0.00013714     0.00211269    -0.00016499
    14
  Step:     8            Position(A)                                  Velocity(au)
C        -5.98752784    -0.85824769    -0.04274363    -0.00045802    -0.00005370     0.00005530
C        -4.62989941    -0.69840892     0.18233356     0.00025750     0.00008923    -0.00005543
H        -6.51472793    -0.01895780    -0.51905133    -0.00051427    -0.00050440     0.00047345
H        -6.59992887    -1.65536218     0.36103028     0.00124176     0.00047831    -0.00047731
H        -4.05741909    -1.47400994     0.71202778    -0.00030092     0.00064663     0.00030900
C        -3.97432262     0.52916926    -0.17511300    -0.00044159    -0.00015112    -0.00038316
C        -2.58547690     0.57037430     0.13926412     0.00030931    -0.00011655     0.00028919
H        -4.36534635     1.33666871    -0.75060574     0.00031617    -0.00083587     0.00087542
H        -2.12086548    -0.18298049     0.66804024     0.00062687    -0.00020532     0.00020608
C        -1.78129056     1.71268570    -0.17144549     0.00020097     0.00030148     0.00008809
H        -2.12002675     2.50861511    -0.77928793     0.00029059     0.00054124     0.00003045
N        -0.58476000     1.70804331     0.36045709     0.00003585    -0.00014409    -0.00017027
H         0.04315764     2.48535891     0.28944723    -0.00079218    -0.00076578     0.00101099
H        -0.20141734     0.94450322     0.82991423     0.00020449     0.00182126     0.00000978
    14
  Step:     9            Position(A)                                  Velocity(au)
C        -5.99260241    -0.85874971    -0.04214106    -0.00046347    -0.00003546     0.00005400
C        -4.62708265    -0.69732719     0.18168678     0.00025410     0.00011079    -0.00006449
H        -6.52040105    -0.02501075    -0.51391049    -0.00053133    -0.00058669     0.00045825
H        -6.58622406    -1.65051042     0.35577361     0.00122373     0.00036025    -0.00045894
H        -4.06080703    -1.46658958     0.71516366    -0.00030704     0.00069609     0.00027164
C        -3.97929783     0.52721854    -0.17926554    -0.00046525    -0.00021104    -0.00037216
C        -2.58190414     0.56951668     0.14228760     0.00034555    -0.00003919     0.00026343
H        -4.36294289     1.32802984    -0.74133802     0.00009771    -0.00069368     0.00078188
H        -2.11305241    -0.18740804     0.67182861     0.00078852    -0.00058414     0.00047305
C        -1.77939047     1.71565711    -0.17045269     0.00014451     0.00023977     0.00009391
H        -2.11713311     2.51572454    -0.77946566     0.00024228     0.00074608    -0.00005323
N        -0.58413297     1.70665799     0.35859326     0.00007479    -0.00010751    -0.00017316
H         0.03487885     2.47766327     0.30025436    -0.00068356    -0.00058745     0.00095738
H        -0.19863319     0.96233610     0.83126097     0.00032940     0.00137063     0.00027784
    14
  Step:    10            Position(A)                                  Velocity(au)
C        -5.99766706    -0.85902349    -0.04156230    -0.00045692    -0.00001239     0.00005099
C        -4.62434044    -0.69598528     0.18092282     0.00024435     0.00013670    -0.00007671
H        -6.52635189    -0.03179276    -0.50902626    -0.00056633    -0.00063579     0.00042557
H        -6.57315738    -1.64748096     0.35099012     0.00112765     0.00014686    -0.00039170
H        -4.06413616    -1.45878167     0.71797041    -0.00028977     0.00071639     0.00024951
C        -3.98450081     0.52455225    -0.18325475    -0.00048310    -0.00028073    -0.00035391
C        -2.57791738     0.56951701     0.14502720     0.00038486     0.00003778     0.00023851
H        -4.36320884     1.32149320    -0.73350064    -0.00016618    -0.00046132     0.00062167
H        -2.10361502    -0.19575974     0.67838904     0.00091269    -0.00090277     0.00069911
C        -1.77812902     1.71793104    -0.16939095     0.00008508     0.00017554     0.00010017
H        -2.11472638     2.52493708    -0.78045248     0.00020417     0.00091703    -0.00011174
N        -0.58312391     1.70569137     0.35666898     0.00010692    -0.00006957    -0.00018009
H         0.02820346     2.47250735     0.31039184    -0.00050631    -0.00031079     0.00089064
H        -0.19421107     0.97448837     0.83599242     0.00048797     0.00081908     0.00060759
    14
  Step:    11            Position(A)                                  Velocity(au)
C        -6.00259836    -0.85902080    -0.04102556    -0.00044012     0.00001418     0.00004664
C        -4.62173713    -0.69433655     0.18000858     0.00022890     0.00016624    -0.00009163
H        -6.53279055    -0.03891998    -0.50460038    -0.00062102    -0.00064917     0.00037428
H        -6.56155449    -1.64729758     0.34720443     0.00096410    -0.00015098    -0.00028126
H        -4.06714637    -1.45091727     0.72062218    -0.00024943     0.00070668     0.00024313
C        -3.98986660     0.52107708    -0.18700793    -0.00049450    -0.00035655    -0.00033009
C        -2.57348462     0.57034321     0.14750553     0.00042590     0.00010969     0.00021637
H        -4.36657844     1.31793769    -0.72773785    -0.00046019    -0.00016677     0.00041573
H        -2.09308557    -0.20715790     0.68712297     0.00098189    -0.00112886     0.00086202
C        -1.77752912     1.71949736    -0.16826127     0.00002448     0.00011198     0.00010584
H        -2.11266646     2.53578629    -0.78191008     0.00018024     0.00103911    -0.00013579
N        -0.58179389     1.70513603     0.35465341     0.00013556    -0.00003427    -0.00018811
H         0.02380230     2.47086406     0.31973874    -0.00028091     0.00003750     0.00081522
H        -0.18795796     0.98025499     0.84455325     0.00064385     0.00024603     0.00095074
    14
  Step:    12            Position(A)                                  Velocity(au)
C        -6.00729552    -0.85871334    -0.04054187    -0.00041541     0.00004196     0.00004190
C        -4.61933277    -0.69234837     0.17891834     0.00020792     0.00019770    -0.00010841
H        -6.53993795    -0.04599452    -0.50083826    -0.00069545    -0.00062706     0.00030493
H        -6.55206593    -1.65078391     0.34483698     0.00075400    -0.00050734    -0.00014092
H        -4.06959282    -1.44332174     0.72328935    -0.00018852     0.00066896     0.00025116
C        -3.99531885     0.51675196    -0.19047605    -0.00049844    -0.00043304    -0.00030320
C        -2.56859994     0.57191658     0.14976070     0.00046584     0.00017295     0.00019792
H        -4.37327633     1.31784478    -0.72440578    -0.00076276     0.00014834     0.00019339
H        -2.08213440    -0.22045563     0.69724737     0.00098865    -0.00124602     0.00095074
C        -1.77759348     1.72038090    -0.16707560    -0.00003543     0.00005204     0.00011007
H        -2.11078339     2.54766959    -0.78342308     0.00017185     0.00110297    -0.00012078
N        -0.58015818     1.70494171     0.35255378     0.00016511    -0.00000480    -0.00019375
H         0.02205810     2.47332782     0.32822630    -0.00003745     0.00041740     0.00073568
H        -0.18012560     0.97987082     0.85679163     0.00075810    -0.00026726     0.00125376
    14
  Step:    13            Position(A)                                  Velocity(au)
C        -6.01168618    -0.85810296    -0.04010894    -0.00038558     0.00006794     0.00003810
C        -4.61718838    -0.69001142     0.17763689     0.00018130     0.00022876    -0.00012602
H        -6.54800475    -0.05263817    -0.49792941    -0.00078748    -0.00057309     0.00021998
H        -6.54505932    -1.65839655     0.34412150     0.00052574    -0.00088358     0.00000999
H        -4.07127059    -1.43628256     0.72611682    -0.00011176     0.00060810     0.00027024
C        -4.00077082     0.51160359    -0.19364111    -0.00049434    -0.00050395    -0.00027616
C        -2.56329355     0.57412692     0.15183551     0.00050150     0.00022545     0.00018327
H        -4.38326527     1.32118292    -0.72350717    -0.00104991     0.00043696    -0.00001368
H        -2.07145685    -0.23441704     0.70792218     0.00093484    -0.00125289     0.00096484
C        -1.77830432     1.72063582    -0.16585322    -0.00009278    -0.00000203     0.00011246
H        -2.10890696     2.55991588    -0.78455238     0.00017790     0.00110530    -0.00006666
N        -0.57818172     1.70503096     0.35041482     0.00019967     0.00001739    -0.00019412
H         0.02298311     2.47999556     0.33583315     0.00018990     0.00078235     0.00065571
H        -0.17137300     0.97440813     0.87198168     0.00080044    -0.00065770     0.00147191
    14
  Step:    14            Position(A)                                  Velocity(au)
C        -6.01573092    -0.85722703    -0.03970833    -0.00035369     0.00008900     0.00003664
C        -4.61536640    -0.68734373     0.17616144     0.00014901     0.00025688    -0.00014326
H        -6.55716551    -0.05853193    -0.49602581    -0.00089258    -0.00049442     0.00012380
H        -6.54056439    -1.67011381     0.34505552     0.00030936    -0.00123539     0.00015001
H        -4.07203777    -1.43001844     0.72920137    -0.00002567     0.00053143     0.00029513
C        -4.00613345     0.50572720    -0.19651767    -0.00048228    -0.00056353    -0.00025171
C        -2.55762866     0.57684874     0.15376999     0.00053024     0.00026631     0.00017197
H        -4.39624510     1.32740413    -0.72470515    -0.00129991     0.00065694    -0.00017843
H        -2.06168309    -0.24786502     0.71835516     0.00082874    -0.00115901     0.00091161
C        -1.77962332     1.72033659    -0.16461541    -0.00014568    -0.00004873     0.00011302
H        -2.10689142     2.57185022    -0.78488132     0.00019539     0.00104815     0.00002296
N        -0.57579003     1.70532219     0.34830694     0.00024189     0.00003283    -0.00018764
H         0.02621254     2.49044315     0.34257112     0.00037002     0.00108844     0.00057754
H        -0.16261438     0.96548239     0.88899243     0.00075636    -0.00089163     0.00157880
    14
  Step:    15            Position(A)                                  Velocity(au)
C        -6.01942389    -0.85615591    -0.03930736    -0.00032259     0.00010260     0.00003855
C        -4.61392846    -0.68439157     0.17450277     0.00011122     0.00027955    -0.00015889
H        -6.56753163    -0.06345455    -0.49522100    -0.00100390    -0.00040136     0.00002250
H        -6.53829142    -1.68542313     0.34740328     0.00013026    -0.00152213     0.00026023
H        -4.07183223    -1.42465641     0.73257331     0.00006211     0.00044780     0.00031932
C        -4.01132156     0.49927524    -0.19914764    -0.00046265    -0.00060739    -0.00023190
C        -2.55169346     0.57995303     0.15559776     0.00055012     0.00029552     0.00016341
H        -4.41170318     1.33555481    -0.72741069    -0.00149709     0.00077951    -0.00028359
H        -2.05332661    -0.25977263     0.72786539     0.00068189    -0.00098006     0.00080246
C        -1.78149129     1.71956982    -0.16338061    -0.00019222    -0.00008724     0.00011218
H        -2.10463238     2.58284622    -0.78405005     0.00022010     0.00093779     0.00014178
N        -0.57288981     1.70574915     0.34630984     0.00029250     0.00004336    -0.00017413
H         0.03107791     2.50380724     0.34846801     0.00048096     0.00130277     0.00050204
H        -0.15482624     0.95490204     0.90652102     0.00062766    -0.00096472     0.00156848
    14
  Step:    16            Position(A)                                  Velocity(au)
C        -6.02278827    -0.85498256    -0.03886499    -0.00029456     0.00010734     0.00004424
C        -4.61293315    -0.68122803     0.17268546     0.00006828     0.00029444    -0.00017168
H        -6.57912771    -0.06731248    -0.49553348    -0.00111284    -0.00030623    -0.00007667
H        -6.53771477    -1.70341325     0.35074851     0.00000467    -0.00171469     0.00032794
H        -4.07067896    -1.42022185     0.73618701     0.00014377     0.00036629     0.00033594
C        -4.01625477     0.49243942    -0.20159085    -0.00043584    -0.00063278    -0.00021792
C        -2.54559377     0.58331375     0.15734494     0.00055980     0.00031350     0.00015690
H        -4.42899688     1.34445740    -0.73090931    -0.00163344     0.00079262    -0.00032316
H        -2.04676547    -0.26930566     0.73591051     0.00050665    -0.00073428     0.00065037
C        -1.78382849     1.71842812    -0.16216133    -0.00023058    -0.00011719     0.00011053
H        -2.10207623     2.59236609    -0.78177964     0.00024728     0.00078341     0.00028185
N        -0.56939094     1.70627069     0.34449755     0.00035039     0.00005125    -0.00015457
H         0.03673454     2.51894382     0.35355420     0.00051312     0.00140807     0.00042919
H        -0.14888306     0.94437718     0.92330599     0.00042819    -0.00089404     0.00145123
    14
  Step:    17            Position(A)                                  Velocity(au)
C        -6.02586785    -0.85380767    -0.03833961    -0.00027106     0.00010316     0.00005345
C        -4.61243471    -0.67795010     0.17074705     0.00002061     0.00029961    -0.00018054
H        -6.59187707    -0.07015384    -0.49689833    -0.00121002    -0.00022171    -0.00016620
H        -6.53818926    -1.72293518     0.35457753    -0.00006140    -0.00179908     0.00034795
H        -4.06868689    -1.41664309     0.73992259     0.00021224     0.00029494     0.00033878
C        -4.02085633     0.48543200    -0.20391517    -0.00040210    -0.00063856    -0.00021017
C        -2.53944672     0.58681136     0.15903034     0.00055849     0.00032091     0.00015182
H        -4.44743771     1.35289496    -0.73448042    -0.00170781     0.00069929    -0.00030054
H        -2.04224259    -0.27583651     0.74209341     0.00031484    -0.00044033     0.00046828
C        -1.78653558     1.71700614    -0.16096260    -0.00025907    -0.00013852     0.00010877
H        -2.09922264     2.59998473    -0.77788414     0.00027214     0.00059602     0.00043441
N        -0.56522437     1.70687033     0.34292840     0.00041315     0.00005848    -0.00013060
H         0.04230334     2.53461137     0.35785739     0.00046868     0.00140269     0.00035878
H        -0.14545882     0.93534322     0.93826942     0.00017798    -0.00070806     0.00124702
    14
  Step:    18            Position(A)                                  Velocity(au)
C        -6.02871832    -0.85272584    -0.03769565    -0.00025287     0.00009104     0.00006545
C        -4.61248227    -0.67467350     0.16873591    -0.00003127     0.00029368    -0.00018463
H        -6.60559929    -0.07216281    -0.49916939    -0.00128650    -0.00015911    -0.00023924
H        -6.53905791    -1.74277148     0.35836057    -0.00007048    -0.00177542     0.00032169
H        -4.06603591    -1.41376950     0.74359846     0.00026190     0.00023971     0.00032314
C        -4.02505153     0.47846960    -0.20618874    -0.00036166    -0.00062493    -0.00020842
C        -2.53337576     0.59033428     0.16066636     0.00054580     0.00031856     0.00014761
H        -4.46635857     1.35975566    -0.73748413    -0.00172410     0.00051308    -0.00022524
H        -2.03987780    -0.27893875     0.74615505     0.00011716    -0.00011634     0.00026851
C        -1.78949623     1.71539764    -0.15978177    -0.00027632    -0.00015145     0.00010758
H        -2.09612260     2.60540511    -0.77227600     0.00029017     0.00038779     0.00059042
N        -0.56035253     1.70755012     0.34164043     0.00047770     0.00006641    -0.00010413
H         0.04698785     2.54963031     0.36140315     0.00035888     0.00129761     0.00029079
H        -0.14498952     0.92888705     0.95058694    -0.00010130    -0.00043908     0.00097997
    14
  Step:    19            Position(A)                                  Velocity(au)
C        -6.03139977    -0.85181595    -0.03690783    -0.00024012     0.00007263     0.00007922
C        -4.61311886    -0.67152532     0.16670793    -0.00008676     0.00027600    -0.00018345
H        -6.62002173    -0.07363478    -0.50213215    -0.00133490    -0.00012683    -0.00029051
H        -6.53973108    -1.76177592     0.36161515    -0.00003068    -0.00165423     0.00025516
H        -4.06295732    -1.41139894     0.74699195     0.00028908     0.00020390     0.00028638
C        -4.02876825     0.47176038    -0.20847480    -0.00031482    -0.00059308    -0.00021209
C        -2.52750637     0.59378048     0.16225955     0.00052169     0.00030743     0.00014372
H        -4.48515571     1.36411947    -0.73940800    -0.00168895     0.00025314    -0.00010956
H        -2.03967943    -0.27838171     0.74796757    -0.00007662     0.00021993     0.00006282
C        -1.79258062     1.71369290    -0.15860898    -0.00028129    -0.00015641     0.00010760
H        -2.09287471     2.60846847    -0.76496755     0.00029722     0.00017167     0.00074078
N        -0.55477371     1.70832313     0.34065032     0.00054078     0.00007577    -0.00007708
H         0.05015454     2.56299912     0.36421902     0.00020046     0.00111216     0.00022563
H        -0.14767494     0.92573749     0.95970814    -0.00038884    -0.00011917     0.00067508
    14
  Step:    20            Position(A)                                  Velocity(au)
C        -6.03397139    -0.85113703    -0.03596250    -0.00023258     0.00004970     0.00009376
C        -4.61438030    -0.66863557     0.16472258    -0.00014512     0.00024671    -0.00017686
H        -6.63480285    -0.07493754    -0.50552493    -0.00135032    -0.00012947    -0.00031687
H        -6.53972911    -1.77896102     0.36394269     0.00004730    -0.00145191     0.00015667
H        -4.05971164    -1.40930873     0.74986357     0.00029209     0.00018804     0.00022804
C        -4.03193881     0.46549484    -0.21082867    -0.00026213    -0.00054497    -0.00022036
C        -2.52196280     0.59705986     0.16381059     0.00048640     0.00028875     0.00013960
H        -4.50330762     1.36529351    -0.73988099    -0.00161021    -0.00005936     0.00003366
H        -2.04155393    -0.27412726     0.74752940    -0.00025741     0.00055073    -0.00013724
C        -1.79564992     1.71197588    -0.15742775    -0.00027338    -0.00015412     0.00010939
H        -2.08962027     2.60916078    -0.75607006     0.00028966    -0.00003893     0.00087657
N        -0.54852185     1.70920763     0.33995407     0.00059925     0.00008688    -0.00005130