     6
  Step:   600            Position(A)                                  Velocity(au)
C         0.15217097    -0.14487229    -0.05044012    -0.00002950     0.00140990     0.00063125
N        -0.24573777     0.13769249     1.40884380     0.00019313    -0.00080310    -0.00036508
H        -0.60329130    -1.06912242    -0.41968119     0.00231951    -0.00421118     0.00427510
H        -0.30577088     0.65108350     2.32208572    -0.00048475     0.00222273    -0.00179118
H         0.77080015    -1.15610128     0.62003234    -0.00531433    -0.00264074    -0.00021168
H         0.52703265     0.71744613    -0.60723860     0.00114741    -0.00101107    -0.00472100
