     6
  Step:     0            Position(A)                                  Velocity(au)
C        -0.04038161     0.00952252     0.02678303    -0.00012356    -0.00015978     0.00028242
N        -0.03125179    -0.04299043     1.28489466     0.00017112     0.00012565    -0.00024233
H         0.92199650     0.05962850    -0.52425589     0.00054806     0.00034189    -0.00032574
H         0.75330850    -0.14744791     1.88762558    -0.00115340    -0.00017851     0.00010209
H        -0.96405198    -0.16074760     1.85681485    -0.00049779    -0.00066614     0.00021860
H        -1.00871585     0.06272779    -0.50263913     0.00019755     0.00066066     0.00000721
     6
  Step:     1            Position(A)                                  Velocity(au)
C        -0.04174396     0.00778295     0.02907367    -0.00012397    -0.00015854     0.00013042
N        -0.02964561    -0.04162396     1.28304702     0.00011985     0.00012457    -0.00009230
H         0.92816571     0.06346981    -0.52858701     0.00055636     0.00035965    -0.00044986
H         0.74246367    -0.14975228     1.88999992    -0.00079889    -0.00024823     0.00035369
H        -0.96746035    -0.16789063     1.85792834    -0.00011388    -0.00063766    -0.00002599
H        -1.00671783     0.07007405    -0.50341587     0.00016818     0.00068440    -0.00014925
     6
  Step:     2            Position(A)                                  Velocity(au)
C        -0.04309368     0.00605416     0.02963623    -0.00012122    -0.00015796    -0.00002956
N        -0.02862985    -0.04026528     1.28287532     0.00006548     0.00012430     0.00006116
H         0.93416788     0.06749662    -0.53409749     0.00051959     0.00037564    -0.00054241
H         0.73583130    -0.15287836     1.89536319    -0.00040402    -0.00032598     0.00063162
H        -0.96654334    -0.17469769     1.85624635     0.00027891    -0.00060652    -0.00028228
H        -1.00503649     0.07770046    -0.50590436     0.00014007     0.00071180    -0.00030460
     6
  Step:     3            Position(A)                                  Velocity(au)
C        -0.04439587     0.00432732     0.02842697    -0.00011530    -0.00015830    -0.00018941
N        -0.02821310    -0.03890465     1.28438502     0.00001266     0.00012495     0.00021226
H         0.93953279     0.07168759    -0.54045334     0.00044304     0.00038956    -0.00060628
H         0.73362489    -0.15688369     1.90381777    -0.00001156    -0.00040560     0.00090024
H        -0.96135872    -0.18115936     1.85175303     0.00065259    -0.00057661    -0.00052998
H        -1.00365364     0.08564604    -0.51007962     0.00011386     0.00074261    -0.00045653
     6
  Step:     4            Position(A)                                  Velocity(au)
C        -0.04561601     0.00259112     0.02549243    -0.00010628    -0.00015973    -0.00034117
N        -0.02835283    -0.03753178     1.28751885    -0.00003407     0.00012656     0.00035533
H         0.94386026     0.07601890    -0.54736110     0.00033362     0.00040122    -0.00064558
H         0.73557840    -0.16175155     1.91505763     0.00033771    -0.00048031     0.00112449
H        -0.95226658    -0.18731215     1.84465210     0.00097857    -0.00055271    -0.00074859
H        -1.00254553     0.09394653    -0.51589173     0.00009007     0.00077649    -0.00060271
     6
  Step:     5            Position(A)                                  Velocity(au)
C        -0.04672094     0.00083289     0.02096328    -0.00009437    -0.00016233    -0.00047778
N        -0.02895854    -0.03613591     1.29215846    -0.00007063     0.00012924     0.00048492
H         0.94683126     0.08046494    -0.55457663     0.00019897     0.00041047    -0.00066498
H         0.74101297    -0.16739145     1.92841805     0.00061214    -0.00054403     0.00127699
H        -0.93995065    -0.19325098     1.83537626     0.00122572    -0.00054096    -0.00091662
H        -1.00168326     0.10263319    -0.52326514     0.00006926     0.00081297    -0.00074075
     6
  Step:     6            Position(A)                                  Velocity(au)
C        -0.04768053    -0.00096016     0.01504008    -0.00007994    -0.00016606    -0.00059375
N        -0.02989807    -0.03470450     1.29812736    -0.00009360     0.00013323     0.00059601
H         0.94821310     0.08499864    -0.56190890     0.00004712     0.00041719    -0.00066939
H         0.74897018    -0.17365325     1.94299413     0.00079323    -0.00059233     0.00134239
H        -0.92545161    -0.19914662     1.82459938     0.00136068    -0.00054912    -0.00101219
H        -1.00103034     0.11173191    -0.53209710     0.00005234     0.00085157    -0.00086805
     6
  Step:     7            Position(A)                                  Velocity(au)
C        -0.04846980    -0.00279988     0.00797395    -0.00006357    -0.00017078    -0.00068544
N        -0.03100631    -0.03322120     1.30519726    -0.00010053     0.00013897     0.00068443
H         0.94786202     0.08959180    -0.56922079    -0.00011377     0.00042130    -0.00066366
H         0.75836645    -0.18034970     1.95778543     0.00087592    -0.00062295     0.00131806
H        -0.91018312    -0.20526411     1.81323264     0.00135167    -0.00058624    -0.00101584
H        -1.00053828     0.12126281    -0.54225542     0.00004062     0.00089171    -0.00098183
     6
  Step:     8            Position(A)                                  Velocity(au)
C        -0.04907121    -0.00469629     0.00004468    -0.00004603    -0.00017631    -0.00075120
N        -0.03209726    -0.03166418     1.31310051    -0.00009029     0.00014696     0.00074746
H         0.94572416     0.09421546    -0.57642764    -0.00027542     0.00042279    -0.00065246
H         0.76813267    -0.18728153     1.97182918     0.00086601    -0.00063576     0.00121171
H        -0.89588129    -0.21197175     1.80237588     0.00117683    -0.00066105    -0.00091571
H        -1.00014162     0.13123970    -0.55357660     0.00003585     0.00093274    -0.00107921
     6
  Step:     9            Position(A)                                  Velocity(au)
C        -0.04947687    -0.00665703    -0.00846005    -0.00002830    -0.00018242    -0.00079116
N        -0.03298159    -0.03000612     1.32154945    -0.00006373     0.00015758     0.00078442
H         0.94183663     0.09884111    -0.58349454    -0.00042953     0.00042164    -0.00064013
H         0.77731218    -0.19425812     1.98429394     0.00077682    -0.00063241     0.00103808
H        -0.88443776    -0.21972582     1.79319964     0.00083553    -0.00077927    -0.00071389
H        -0.99975392     0.14166830    -0.56586513     0.00004012     0.00097398    -0.00115720
     6
  Step:    10            Position(A)                                  Velocity(au)
C        -0.04969040    -0.00868712    -0.01726339    -0.00001148    -0.00018887    -0.00080688
N        -0.03349154    -0.02821672     1.33026120    -0.00002412     0.00017086     0.00079687
H         0.93632743     0.10343956    -0.59043166    -0.00056784     0.00041779    -0.00063053
H         0.78512708    -0.20111666     1.99453906     0.00062593    -0.00061594     0.00081557
H        -0.87760237    -0.22901980     1.78675817     0.00035817    -0.00094021    -0.00043090
H        -0.99926386     0.15254727    -0.57889250     0.00005571     0.00101466    -0.00121288
     6
  Step:    11            Position(A)                                  Velocity(au)
C        -0.04972794    -0.01078889    -0.02611210     0.00000331    -0.00019540    -0.00080095
N        -0.03350929    -0.02626828     1.33898246     0.00002287     0.00018625     0.00078838
H         0.92941411     0.10798111    -0.59728860    -0.00068247     0.00041107    -0.00062686
H         0.79100561    -0.20773290     2.00213599     0.00043279    -0.00059024     0.00056382
H        -0.87660200    -0.24029472     1.78377278    -0.00019226    -0.00113443    -0.00010484
H        -0.99853526     0.16386584    -0.59239931     0.00008475     0.00105391    -0.00124357
     6
  Step:    12            Position(A)                                  Velocity(au)
C        -0.04961804    -0.01296196    -0.03478581     0.00001617    -0.00019241    -0.00087470
N        -0.03299123    -0.02414219     1.34750857     0.00006603     0.00020088     0.00084240
H         0.92139700     0.11243247    -0.60414545    -0.00082956     0.00027597    -0.00056092
H         0.79459519    -0.21402925     2.00687370     0.00020292    -0.00047183     0.00027327
H        -0.88180843    -0.25383763     1.78446469    -0.00066391    -0.00143276     0.00016159
H        -0.99740983     0.17560352    -0.60609790     0.00018036     0.00112993    -0.00115724
     6
  Step:    13            Position(A)                                  Velocity(au)
C        -0.04937427    -0.01499815    -0.04524794     0.00002658    -0.00017894    -0.00102984
N        -0.03206478    -0.02187373     1.35741159     0.00009826     0.00021204     0.00096306
H         0.91126596     0.11401838    -0.60955984    -0.00099580     0.00002878    -0.00043738
H         0.79544478    -0.21805515     2.00811436    -0.00004077    -0.00028066    -0.00004439
H        -0.89112629    -0.27163905     1.78730784    -0.00098068    -0.00178078     0.00033053
H        -0.99458944     0.18858532    -0.61771620     0.00033508     0.00121841    -0.00096018
     6
  Step:    14            Position(A)                                  Velocity(au)
C        -0.04903645    -0.01687668    -0.05731560     0.00003274    -0.00016388    -0.00116369
N        -0.03084169    -0.01950343     1.36857741     0.00011804     0.00021968     0.00106959
H         0.89961201     0.11306200    -0.61371393    -0.00109592    -0.00019558    -0.00034023
H         0.79370330    -0.22016921     2.00590261    -0.00025350    -0.00011920    -0.00033919
H        -0.90326263    -0.29279552     1.79169561    -0.00116342    -0.00205254     0.00043866
H        -0.99007939     0.20225848    -0.62710366     0.00048237     0.00126752    -0.00075605
     6
  Step:    15            Position(A)                                  Velocity(au)
C        -0.04865801    -0.01858345    -0.07070593     0.00003359    -0.00014776    -0.00127036
N        -0.02948238    -0.01706791     1.38081091     0.00012175     0.00022402     0.00115704
H         0.88729056     0.10973970    -0.61700306    -0.00110775    -0.00040584    -0.00028661
H         0.78989890    -0.22066288     2.00069398    -0.00040140     0.00001426    -0.00057805
H        -0.91657822    -0.31654231     1.79690439    -0.00119193    -0.00225489     0.00048096
H        -0.98403672     0.21631467    -0.63425619     0.00060892     0.00129415    -0.00055732
     6
  Step:    16            Position(A)                                  Velocity(au)
C        -0.04830162    -0.02010925    -0.08510721     0.00002852    -0.00013099    -0.00134854
N        -0.02817810    -0.01460253     1.39388996     0.00010740     0.00022534     0.00122378
H         0.87537784     0.10418343    -0.61998400    -0.00101415    -0.00060493    -0.00028891
H         0.78492196    -0.21985730     1.99325674    -0.00045283     0.00011570    -0.00073553
H        -0.92933846    -0.34212554     1.80221745    -0.00106777    -0.00238940     0.00046270
H        -0.97675820     0.23057059    -0.63929611     0.00070242     0.00130818    -0.00037502
     6
  Step:    17            Position(A)                                  Velocity(au)
C        -0.04803408    -0.02144908    -0.10020793     0.00001754    -0.00011393    -0.00139907
N        -0.02713277    -0.01213824     1.40758342     0.00007461     0.00022414     0.00126954
H         0.86510419     0.09650565    -0.62332361    -0.00080633    -0.00079474    -0.00035377
H         0.77999237    -0.21813174     1.98460289    -0.00038210     0.00018016    -0.00079419
H        -0.93993769    -0.36881506     1.80702690    -0.00080924    -0.00245990     0.00039623
H        -0.96866997     0.24493354    -0.64246050     0.00075181     0.00131733    -0.00021896
     6
  Step:    18            Position(A)                                  Velocity(au)
C        -0.04791784    -0.02260169    -0.11571449     0.00000162    -0.00009686    -0.00142416
N        -0.02654582    -0.00969896     1.42166365     0.00002465     0.00022108     0.00129524
H         0.85773784     0.08679700    -0.62772341    -0.00048891    -0.00097801    -0.00047954
H         0.77656274    -0.21591605     1.97588223    -0.00017659     0.00020493    -0.00074881
H        -0.94704217    -0.39594053     1.81088585    -0.00044441    -0.00247342     0.00029682
H        -0.96031083     0.25938968    -0.64408625     0.00074817     0.00132847    -0.00009721
     6
  Step:    19            Position(A)                                  Velocity(au)
C        -0.04799870    -0.02356814    -0.13136417    -0.00001713    -0.00007991    -0.00142709
N        -0.02659359    -0.00730160     1.43591924    -0.00003943     0.00021667     0.00130292
H         0.85440844     0.07510983    -0.63381453    -0.00008391    -0.00115902    -0.00065457
H         0.77612915    -0.21364858     1.96822120     0.00015521     0.00019245    -0.00061053
H        -0.94965997    -0.42292577     1.81352041    -0.00000536    -0.00243974     0.00017972
H        -0.95230239     0.27399643    -0.64458721     0.00068612     0.00134756    -0.00001529
     6
  Step:    20            Position(A)                                  Velocity(au)
C        -0.04829254    -0.02434982    -0.14693470    -0.00003551    -0.00006302    -0.00141178
N        -0.02740844    -0.00495886     1.45016755    -0.00011263     0.00021111     0.00129566
H         0.85590219     0.06144128    -0.64204343     0.00036908    -0.00134298    -0.00085776
H         0.77995817    -0.21170581     1.96252575     0.00057858     0.00015204    -0.00040781
H        -0.94715939    -0.44931459     1.81481758     0.00047520    -0.00237081     0.00005870
H        -0.94530062     0.28887023    -0.64442074     0.00056546     0.00137911     0.00002473
     6
  Step:    21            Position(A)                                  Velocity(au)
C        -0.04877553    -0.02494690    -0.16224961    -0.00004987    -0.00004606    -0.00138244
N        -0.02905764    -0.00268317     1.46426433    -0.00018835     0.00020431     0.00127707
H         0.86248285     0.04572953    -0.65257962     0.00081852    -0.00153441    -0.00106223
H         0.78878674    -0.21032240     1.95929950     0.00103528     0.00009925    -0.00018165
H        -0.93926398    -0.47479178     1.81480450     0.00096534    -0.00228039    -0.00005439
H        -0.93993178     0.30416709    -0.64404611     0.00039258     0.00142525     0.00002491
     6
  Step:    22            Position(A)                                  Velocity(au)
C        -0.04938365    -0.02535740    -0.17717823    -0.00005703    -0.00002879    -0.00134312
N        -0.03152896    -0.00048923     1.47810584    -0.00025924     0.00019611     0.00125064
H         0.87380878     0.02787309    -0.66528178     0.00121118    -0.00173532    -0.00124123
H         0.80260700    -0.20953450     1.95855174     0.00145542     0.00005257     0.00002444
H        -0.92604071    -0.49920239     1.81362763     0.00143424    -0.00218420    -0.00014940
H        -0.93671212     0.32005030    -0.64387589     0.00018120     0.00148487    -0.00000850
     6
  Step:    23            Position(A)                                  Velocity(au)
C        -0.05002318    -0.02557679    -0.19163282    -0.00005510    -0.00001101    -0.00129746
N        -0.03472892     0.00160709     1.49162440    -0.00031844     0.00018663     0.00121919
H         0.88897973     0.00776599    -0.67973384     0.00150328    -0.00194418    -0.00137378
H         0.82062680    -0.20917231     1.95983412     0.00177443     0.00002880     0.00017539
H        -0.90788719    -0.52257539     1.81153611     0.00185245    -0.00210013    -0.00021765
H        -0.93596765     0.33665147    -0.64423211    -0.00004841     0.00155323    -0.00006571
     6
  Step:    24            Position(A)                                  Velocity(au)
C        -0.05058900    -0.02559831    -0.20556255    -0.00004392     0.00000749    -0.00124840
N        -0.03849548     0.00359373     1.50477789    -0.00036078     0.00017652     0.00118443
H         0.90669599    -0.01465955    -0.69533577     0.00166784    -0.00215608    -0.00144802
H         0.84142609    -0.20890449     1.96238883     0.00194800     0.00003923     0.00025180
H        -0.88551480    -0.54514676     1.80886618     0.00219306    -0.00204775    -0.00025209
H        -0.93777120     0.35403024    -0.64531347    -0.00027191     0.00162240    -0.00013497
     6
  Step:    25            Position(A)                                  Velocity(au)
C        -0.05098404    -0.02541302    -0.21894403    -0.00002490     0.00002690    -0.00119800
N        -0.04262176     0.00546884     1.51753612    -0.00038341     0.00016692     0.00114696
H         0.92546700    -0.03940229    -0.71141199     0.00169633    -0.00236417    -0.00146135
H         0.86324309    -0.20831400     1.96534269     0.00195865     0.00008829     0.00025075
H        -0.85990980    -0.56737375     1.80602113     0.00243441    -0.00204683    -0.00024796
H        -0.94191628     0.37214456    -0.64718484    -0.00046463     0.00168259    -0.00020464
     6
  Step:    26            Position(A)                                  Velocity(au)
C        -0.05113369    -0.02500986    -0.23177111    -0.00000037     0.00004740    -0.00114742
N        -0.04688336     0.00724547     1.52986991    -0.00038595     0.00015917     0.00110663
H         0.94380638    -0.06638020    -0.72730560     0.00159536    -0.00256132    -0.00141824
H         0.88427520    -0.20697289     1.96787451     0.00181336     0.00017454     0.00018183
H        -0.83225745    -0.58992507     1.80344158     0.00256440    -0.00211398    -0.00020395
H        -0.94793585     0.39084007    -0.64979033    -0.00060546     0.00172406    -0.00026513
     6
  Step:    27            Position(A)                                  Velocity(au)
C        -0.05099210    -0.02437605    -0.24404602     0.00002709     0.00006909    -0.00109712
N        -0.05106506     0.00895101     1.54174586    -0.00037028     0.00015426     0.00106307
H         0.96036857    -0.09543600    -0.74243874     0.00138122    -0.00274135    -0.00132722
H         0.90291385    -0.20449557     1.96932056     0.00153627     0.00029291     0.00006142
H        -0.80380855    -0.61362110     1.80155923     0.00258527    -0.00225742    -0.00012356
H        -0.95516187     0.40986157    -0.65298510    -0.00067991     0.00173891    -0.00031017
     6
  Step:    28            Position(A)                                  Velocity(au)
C        -0.05054109    -0.02349828    -0.25577267     0.00005518     0.00009196    -0.00104704
N        -0.05498402     0.01062019     1.55312664    -0.00034022     0.00015226     0.00101608
H         0.97402329    -0.12635255    -0.75634097     0.00107479    -0.00289968    -0.00119835
H         0.91788397    -0.20056495     1.96921813     0.00116044     0.00043690    -0.00009208
H        -0.77569970    -0.63931040     1.80073840     0.00251642    -0.00247128    -0.00001573
H        -0.96281010     0.42888208    -0.65657594    -0.00068133     0.00172233    -0.00033709
     6
  Step:    29            Position(A)                                  Velocity(au)
C        -0.04978491    -0.02236420    -0.26695209     0.00008217     0.00011585    -0.00099682
N        -0.05850803     0.01228208     1.56397461    -0.00030090     0.00015200     0.00096580
H         0.98388160    -0.15887201    -0.76865501     0.00069785    -0.00303340    -0.00104163
H         0.92830062    -0.19493745     1.96730605     0.00072212     0.00060002    -0.00026102
H        -0.74875708    -0.66768501     1.80121518     0.00239280    -0.00273213     0.00010590
H        -0.97006720     0.44754085    -0.66035951    -0.00061038     0.00167289    -0.00034626
     6
  Step:    30            Position(A)                                  Velocity(au)
C        -0.04874357    -0.02096393    -0.27757998     0.00010686     0.00014046    -0.00094589
N        -0.06156683     0.01394541     1.57425539    -0.00025809     0.00015109     0.00091259
H         0.98929004    -0.19271392    -0.77912861     0.00027129    -0.00314119    -0.00086619
H         0.93368167    -0.18743826     1.96350787     0.00025787     0.00077632    -0.00042945
H        -0.72335252    -0.69908103     1.80305518     0.00225761    -0.00300073     0.00022540
H        -0.97616335     0.46547979    -0.66415094    -0.00047355     0.00159228    -0.00034024
     6
  Step:    31            Position(A)                                  Velocity(au)
C        -0.04744710    -0.01929135    -0.28764527     0.00012854     0.00016544    -0.00089362
N        -0.06415432     0.01558746     1.58393936    -0.00021735     0.00014655     0.00085681
H         0.98981660    -0.22759164    -0.78760458    -0.00018552    -0.00322317    -0.00068023
H         0.93394194    -0.17795393     1.95791109    -0.00019611     0.00096043    -0.00058311
H        -0.69936757    -0.73333180     1.80614631     0.00215149    -0.00322971     0.00032802
H        -0.98042707     0.48237505    -0.66780301    -0.00028121     0.00148459    -0.00032286
     6
  Step:    32            Position(A)                                  Velocity(au)
C        -0.04593141    -0.01734467    -0.29712970     0.00014680     0.00019037    -0.00083935
N        -0.06632178     0.01715146     1.59299986    -0.00018336     0.00013558     0.00079855
H         0.98523145    -0.26322685    -0.79400993    -0.00065477    -0.00328073    -0.00049111
H         0.92939141    -0.16642705     1.95075128    -0.00060337     0.00114738    -0.00070896
H        -0.67628445    -0.76973703     1.81023136     0.00210291    -0.00337473     0.00040322
H        -0.98231536     0.49795812    -0.67121402    -0.00004590     0.00135559    -0.00029839
     6
  Step:    33            Position(A)                                  Velocity(au)
C        -0.04423563    -0.01512662    -0.30600759     0.00016139     0.00021486    -0.00078238
N        -0.06816575     0.01855348     1.60140917    -0.00015964     0.00011629     0.00073751
H         0.97549226    -0.29936381    -0.79834865    -0.00111983    -0.00331662    -0.00030569
H         0.92074213    -0.15285278     1.94240116    -0.00092697     0.00133262    -0.00079502
H        -0.65336238    -0.80716042     1.81496741     0.00212344    -0.00340443     0.00044610
H        -0.98143129     0.51203116    -0.67433087     0.00021869     0.00121218    -0.00027127
     6
  Step:    34            Position(A)                                  Velocity(au)
C        -0.04240064    -0.01264417    -0.31424567     0.00017222     0.00023855    -0.00072201
N        -0.06981431     0.01969547     1.60913427    -0.00014852     0.00008802     0.00067309
H         0.96073311    -0.33578437    -0.80069738    -0.00156501    -0.00333503    -0.00013047
H         0.90911218    -0.13727333     1.93335860    -0.00113092     0.00151248    -0.00083084
H        -0.62983020    -0.84421544     1.81999074     0.00220913    -0.00330523     0.00045713
H        -0.97753106     0.52447691    -0.67714851     0.00049851     0.00106205    -0.00024580
     6
  Step:    35            Position(A)                                  Velocity(au)
C        -0.04046807    -0.00990788    -0.32180291     0.00017924     0.00026114    -0.00065753
N        -0.07141481     0.02047910     1.61613421    -0.00015118     0.00005123     0.00060458
H         0.94125462    -0.37232393    -0.80120293    -0.00197554    -0.00334164     0.00002817
H         0.89600104    -0.11976437     1.92422491    -0.00118448     0.00168510    -0.00080887
H        -0.60503341    -0.87946866     1.82496809     0.00234568    -0.00308057     0.00044047
H        -0.97052545     0.53526549    -0.67970813     0.00077941     0.00091345    -0.00022615
     6
  Step:    36            Position(A)                                  Velocity(au)
C        -0.03847949    -0.00693117    -0.32863033     0.00018254     0.00028240    -0.00058820
N        -0.07312166     0.02081617     1.62236065    -0.00016760     0.00000707     0.00053149
H         0.91751445    -0.40888904    -0.80008106    -0.00233789    -0.00334366     0.00016413
H         0.88319944    -0.10040851     1.91566303    -0.00106972     0.00185164    -0.00072660
H        -0.57851397    -0.91160872     1.82962690     0.00251430    -0.00274657     0.00040213
H        -0.96047988     0.54446041    -0.68209603     0.00104727     0.00077521    -0.00021646
     6
  Step:    37            Position(A)                                  Velocity(au)
C        -0.03647476    -0.00372977    -0.33467084     0.00018239     0.00030213    -0.00051329
N        -0.07508138     0.02063381     1.62776156    -0.00019613    -0.00004297     0.00045377
H         0.89010878    -0.44547300    -0.79761225    -0.00264088    -0.00334950     0.00027193
H         0.87259881    -0.07925614     1.90832916    -0.00079118     0.00201691    -0.00058888
H        -0.55002837    -0.93955507     1.83376546     0.00269618    -0.00232710     0.00034848
H        -0.94761435     0.55222467    -0.68444356     0.00128804     0.00065667    -0.00022087
     6
  Step:    38            Position(A)                                  Velocity(au)
C        -0.03448941    -0.00032161    -0.33985957     0.00017936     0.00032007    -0.00043214
N        -0.07741237     0.01987617     1.63228770    -0.00023316    -0.00009730     0.00037200
H         0.85974020    -0.48216573    -0.79413197    -0.00287709    -0.00336783     0.00034739
H         0.86589087    -0.05628479     1.90278019    -0.00038319     0.00218842    -0.00040917
H        -0.51952989    -0.96251847     1.83725054     0.00287495    -0.00184999     0.00028538
H        -0.93230149     0.55882630    -0.68692791     0.00148816     0.00056753    -0.00024357
     6
  Step:    39            Position(A)                                  Velocity(au)
C        -0.03255088     0.00327238    -0.34412478     0.00017441     0.00033586    -0.00034421
N        -0.08018223     0.01850525     1.63589966    -0.00027322    -0.00015413     0.00028730
H         0.82716682    -0.51915075    -0.79001239    -0.00304486    -0.00340603     0.00038853
H         0.86421578    -0.03138035     1.89937785     0.00009043     0.00237338    -0.00020850
H        -0.48713324    -0.98002708     1.84000865     0.00303756    -0.00134499     0.00021786
H        -0.91505798     0.56464037    -0.68977213     0.00163535     0.00051736    -0.00028866
     6
  Step:    40            Position(A)                                  Velocity(au)
C        -0.03067383     0.00702607    -0.34738992     0.00016891     0.00034887    -0.00024920
N        -0.08338956     0.01650423     1.63857295    -0.00030977    -0.00021122     0.00020110
H         0.79312813    -0.55667912    -0.78563218    -0.00314977    -0.00346783     0.00039648
H         0.86786921    -0.00436248     1.89821890     0.00054763     0.00257447    -0.00001185
H        -0.45307742    -0.99194279     1.84201667     0.00317430    -0.00084338     0.00015017
H        -0.89652504     0.57014463    -0.69324293     0.00171992     0.00051485    -0.00035983
     6
  Step:    41            Position(A)                                  Velocity(au)
C        -0.02885575     0.01090448    -0.34957655     0.00016449     0.00035805    -0.00014708
N        -0.08695914     0.01388441     1.64029906    -0.00033666    -0.00026556     0.00011469
H         0.75825956    -0.59501610    -0.78133870    -0.00320510    -0.00355078     0.00037587
H         0.87619628     0.02494111     1.89911860     0.00090763     0.00278633     0.00015685
H        -0.41768945    -0.99847766     1.84329392     0.00327891    -0.00037807     0.00008583
H        -0.87743138     0.57590380    -0.69764416     0.00173689     0.00056632    -0.00045979
     6
  Step:    42            Position(A)                                  Velocity(au)
C        -0.02707530     0.01485918    -0.35060755     0.00016275     0.00036196    -0.00003800
N        -0.09075468     0.01069455     1.64108209    -0.00034958    -0.00031328     0.00002896
H         0.72301036    -0.63435930    -0.77740931    -0.00322992    -0.00364432     0.00033397
H         0.88772534     0.05659375     1.90165038     0.00111059     0.00299443     0.00027871
H        -0.38134495    -1.00021382     1.84389432     0.00334946     0.00001620     0.00002728
H        -0.85852715     0.58253401    -0.70330170     0.00168839     0.00067399    -0.00058963
     6
  Step:    43            Position(A)                                  Velocity(au)
C        -0.02529522     0.01882315    -0.35040789     0.00016472     0.00035855     0.00007825
N        -0.09460683     0.00703080     1.64093267    -0.00034723    -0.00034945    -0.00005575
H         0.68759893    -0.67474256    -0.77403245    -0.00324404    -0.00372840     0.00027737
H         0.90049246     0.09045007     1.90521599     0.00112983     0.00317424     0.00033999
H        -0.34441354    -0.99812326     1.84389068     0.00339110     0.00030360    -0.00002611
H        -0.84049459     0.59064857    -0.71054353     0.00158562     0.00083418    -0.00074895
     6
  Step:    44            Position(A)                                  Velocity(au)
C        -0.02347170     0.02270306    -0.34889576     0.00016997     0.00034407     0.00020415
N        -0.09835111     0.00304973     1.63986250    -0.00033228    -0.00036686    -0.00013937
H         0.65204070    -0.71592524    -0.77134141    -0.00325342    -0.00376578     0.00020350
H         0.91244257     0.12603642     1.90908822     0.00097821     0.00327898     0.00032360
H        -0.30715817    -0.99357206     1.84332311     0.00341943     0.00045059    -0.00008474
H        -0.82383877     0.60078328    -0.71968649     0.00144795     0.00103433    -0.00093835
     6