|===============================================================================
|
|  DFTB+ release 20.1
|
|  Copyright (C) 2006 - 2020  DFTB+ developers group
|
|===============================================================================
|
|  When publishing results obtained with DFTB+, please cite the following
|  reference:
|
|  * DFTB+, a software package for efficient approximate density functional
|    theory based atomistic simulations, J. Chem. Phys. 152, 124101 (2020).
|    [doi: 10.1063/1.5143190]
|
|  You should also cite additional publications crediting the parametrization
|  data you use. Please consult the documentation of the SK-files for the
|  references.
|
|===============================================================================

Reading input file 'dftb_in.hsd'
Parser version: 8

--------------------------------------------------------------------------------
Reading SK-files:
Done.


Processed input in HSD format written to 'dftb_pin.hsd'

Starting initialization...
--------------------------------------------------------------------------------
OpenMP threads:              1
Chosen random seed:          452094993
Mode:                        Static calculation
Self consistent charges:     Yes
SCC-tolerance:                 0.100000E-05
Max. scc iterations:                   1000
Shell resolved Hubbard:      No
Spin polarisation:           No
Nr. of up electrons:             6.000000
Nr. of down electrons:           6.000000
Periodic boundaries:         No
Electronic solver:           Relatively robust
Maximal SCC-cycles:                    1000
Initial charges:             Set automatically (system chrg:   0.100E+01)
Included shells:             C:  s, p
                             N:  s, p
                             H:  s
Spin coupling constants:     C   1(s)-1(s):  -0.455900E-01
                             C   1(s)-2(p):  -0.293000E-01
                             C   2(p)-1(s):  -0.293000E-01
                             C   2(p)-2(p):  -0.275500E-01
                             N   1(s)-1(s):  -0.468700E-01
                             N   1(s)-2(p):  -0.317000E-01
                             N   2(p)-1(s):  -0.317000E-01
                             N   2(p)-2(p):  -0.307200E-01
                             H   1(s)-1(s):  -0.792500E-01
Range separated hybrid:      Yes
  Screening parameter omega:   0.300000E+00
  Range separated algorithm:   MatrixBased
Extra options:
                             Mulliken analysis
                             Force calculation
Force type                   original
                             Eigenvector printing


REKS Calcuation:             Yes
SSR(2,2) Calcuation:         Yes
Energy Functional:           (PPS+OSS)/2
Number of Core Orbitals:                  5
Number of Active Orbitals:                2
Number of Basis:                         12
Number of States:                         2
State-Averaging Weight:          0.500000
                                 0.500000
State of Interest:                        1
Initial Guess:               Diagonalize H0 matrix
Newton-Raphson for FON opt:  Yes
NR max. Iterations:                      50
Level Shifting:              Yes
Shift Value:                     0.300000
W Scale Factor:              C  =    3.200000
                             N  =    3.200000
                             H  =    3.200000
Transition Dipole:           No
Gradient of Microstate:      No
CP-REKS Solver:              Preconditioned Conjugate-Gradient
CG max. Iterations:                     100
CG Tolerance:                  0.100000E-07
Memory for A and Hxc:        Direct Updating Without Saving
Non-Adiabatic Coupling:      Yes

--------------------------------------------------------------------------------

***  Geometry step: 0

  iSCC       reks energy        Diff energy         x_a       SCC error   
    1       -6.1210505040       0.0000000000     0.987756    1.04421499
    2       -6.1351570180      -0.0141065141     0.999992    0.06430393
    3       -6.1395278899      -0.0043708719     1.000000    0.04210310
    4       -6.1404202346      -0.0008923447     1.000000    0.01377213
    5       -6.1406855918      -0.0002653571     1.000000    0.00757632
    6       -6.1407812972      -0.0000957054     1.000000    0.00434433
    7       -6.1408199344      -0.0000386373     1.000000    0.00258488
    8       -6.1408368299      -0.0000168955     1.000000    0.00157968
    9       -6.1408446883      -0.0000078584     1.000000    0.00098492
   10       -6.1408485266      -0.0000038382     1.000000    0.00062388
   11       -6.1408504756      -0.0000019490     1.000000    0.00042844
   12       -6.1408514963      -0.0000010208     1.000000    0.00031456
   13       -6.1408520442      -0.0000005479     1.000000    0.00023122
   14       -6.1408523441      -0.0000002999     1.000000    0.00017021
   15       -6.1408525109      -0.0000001667     1.000000    0.00012549
   16       -6.1408526048      -0.0000000939     1.000000    0.00009266
   17       -6.1408526582      -0.0000000534     1.000000    0.00006853
   18       -6.1408526888      -0.0000000307     1.000000    0.00005076
   19       -6.1408527065      -0.0000000177     1.000000    0.00003765
   20       -6.1408527168      -0.0000000103     1.000000    0.00002797
   21       -6.1408527229      -0.0000000060     1.000000    0.00002149
   22       -6.1408527264      -0.0000000035     1.000000    0.00001680
   23       -6.1408527285      -0.0000000021     1.000000    0.00001311
   24       -6.1408527297      -0.0000000012     1.000000    0.00001023
   25       -6.1408527305      -0.0000000007     1.000000    0.00000797
   26       -6.1408527309      -0.0000000004     1.000000    0.00000621
   27       -6.1408527312      -0.0000000003     1.000000    0.00000484
   28       -6.1408527314      -0.0000000002     1.000000    0.00000377
   29       -6.1408527314      -0.0000000001     1.000000    0.00000293
   30       -6.1408527315      -0.0000000001     1.000000    0.00000231
   31       -6.1408527315      -0.0000000000     1.000000    0.00000185
   32       -6.1408527316      -0.0000000000     1.000000    0.00000149
   33       -6.1408527316      -0.0000000000     1.000000    0.00000120
   34       -6.1408527316      -0.0000000000     1.000000    0.00000096
  
--------------------------------------------------
 Final SA-REKS(2,2) energy:      -6.14085273
  
 State     Energy      FON(1)    FON(2)   Spin
  PPS   -6.11818645   2.000000  0.000000  0.00
  OSS   -6.16351901   1.000000  1.000000  0.00
 Trip   -6.17357720   1.000000  1.000000  1.00
--------------------------------------------------

 Lagrangian Wab:  -0.01910639 -0.01910635

--------------------------------------------------
 SSR: 2SI-2SA-REKS(2,2) Hamiltonian matrix
               PPS           OSS
   PPS    -6.11818645   -0.02701980
   OSS    -0.02701980   -6.16351901
--------------------------------------------------

----------------------------------------------------------------
 SSR: 2SI-2SA-REKS(2,2) states
                    E_n       C_{PPS}    C_{OSS}
 SSR state  1   -6.17612071   0.422678   0.906280
 SSR state  2   -6.10558476  -0.906280   0.422678
----------------------------------------------------------------

 unrelaxed SSR FONs for S0:  1.178656  0.821344

Total Energy:                       -6.1761207051 H         -168.0608 eV
Extrapolated to 0:                  -6.1761207051 H         -168.0608 eV

----------------------------------------------------------------------------------
 Solving CP-REKS equation for  1 state vector...
----------------------------------------------------------------------------------
  CG solver: Constructing Y initial guess
  CG solver: Iteration    1    eps =    0.000904833168
  CG solver: Iteration    2    eps =    0.000024150647
  CG solver: Iteration    3    eps =    0.000003848691
  CG solver: Iteration    4    eps =    0.000000069398
  CG solver: Iteration    5    eps =    0.000000005391
  Convergence reached in CG solver after    5 iterations
  CG solver: Calculating converged R, Z, Q2 matrix
----------------------------------------------------------------------------------

----------------------------------------------------------------------------------
 Solving CP-REKS equation for SI between  1 and  2 state vectors...
----------------------------------------------------------------------------------
  CG solver: Constructing Y initial guess
  CG solver: Iteration    1    eps =    0.000830479829
  CG solver: Iteration    2    eps =    0.000268996325
  CG solver: Iteration    3    eps =    0.000009121512
  CG solver: Iteration    4    eps =    0.000000275631
  CG solver: Iteration    5    eps =    0.000000015284
  CG solver: Iteration    6    eps =    0.000000001949
  Convergence reached in CG solver after    6 iterations
  CG solver: Calculating converged R, Z, Q2 matrix
----------------------------------------------------------------------------------

--------------------------------------------------
 Gradient Information
--------------------------------------------------
           1 st state (SSR)
    -0.14185537    -0.11570719    -0.24229923
     0.02473290    -0.04455959    -0.01287987
     0.13004872     0.09256771     0.12895749
    -0.02149328     0.04937970     0.04992767
     0.01459523     0.01632845     0.06129321
    -0.00602819     0.00199093     0.01500072

           2 st state (SSR)
    -0.13000697    -0.12076353    -0.26303359
     0.02982011    -0.04049218    -0.01778489
     0.13343818     0.08670581     0.13071035
    -0.00568934     0.06092656     0.05488327
     0.00042410     0.00666239     0.07133869
    -0.02798608     0.00696094     0.02388616
--------------------------------------------------
 Coupling Information
--------------------------------------------------
 between  1 and  2 states
--------------------------------------------------
 g vector - difference gradient
     0.00818933    -0.00799500    -0.04812978
     0.00558437     0.00989704     0.02642053
    -0.00922596     0.00317139     0.00723294
    -0.00643212    -0.00193873     0.00582375
    -0.00038551    -0.00109913     0.00438338
     0.00226989    -0.00203556     0.00426919

 h vector - derivative coupling
    -0.00086281    -0.00340689    -0.02684304
     0.00136452     0.00564787     0.02536474
    -0.00995151     0.00648606     0.00492357
    -0.01570991    -0.00916221     0.00165122
     0.00892513     0.00538634    -0.00287889
     0.01623458    -0.00495118    -0.00221760

 G vector - GDV
    -0.00592420     0.00252817     0.01036718
    -0.00254361    -0.00203371     0.00245251
    -0.00169473     0.00293095    -0.00087643
    -0.00790197    -0.00577343    -0.00247780
     0.00708556     0.00483303    -0.00502274
     0.01097894    -0.00248500    -0.00444272

 H vector - DCV - non-adiabatic coupling
    -0.08108717     0.11787982     0.76734327
    -0.07308765    -0.15895748    -0.51807797
     0.19088115    -0.09354381    -0.12342181
     0.21300327     0.10453895    -0.07829995
    -0.07713400    -0.03713941    -0.02137922
    -0.17257559     0.06722192    -0.02616432
--------------------------------------------------


--------------------------------------------------------------------------------
DFTB+ running times                          cpu [s]             wall clock [s]
--------------------------------------------------------------------------------
SCC                                    +     0.02  ( 58.8%)      0.02  ( 54.8%)
Post-SCC processing                    +     0.01  ( 36.5%)      0.01  ( 32.3%)
--------------------------------------------------------------------------------
Missing                                +     0.00  (  4.7%)      0.00  ( 12.9%)
Total                                  =     0.03  (100.0%)      0.03  (100.0%)
--------------------------------------------------------------------------------
