|===============================================================================
|
|  DFTB+ release 20.1
|
|  Copyright (C) 2006 - 2020  DFTB+ developers group
|
|===============================================================================
|
|  When publishing results obtained with DFTB+, please cite the following
|  reference:
|
|  * DFTB+, a software package for efficient approximate density functional
|    theory based atomistic simulations, J. Chem. Phys. 152, 124101 (2020).
|    [doi: 10.1063/1.5143190]
|
|  You should also cite additional publications crediting the parametrization
|  data you use. Please consult the documentation of the SK-files for the
|  references.
|
|===============================================================================

Reading input file 'dftb_in.hsd'
Parser version: 8

--------------------------------------------------------------------------------
Reading SK-files:
Done.


Processed input in HSD format written to 'dftb_pin.hsd'

Starting initialization...
--------------------------------------------------------------------------------
OpenMP threads:              1
Chosen random seed:          511924838
Mode:                        Static calculation
Self consistent charges:     Yes
SCC-tolerance:                 0.100000E-05
Max. scc iterations:                   1000
Shell resolved Hubbard:      No
Spin polarisation:           No
Nr. of up electrons:             6.000000
Nr. of down electrons:           6.000000
Periodic boundaries:         No
Electronic solver:           Relatively robust
Maximal SCC-cycles:                    1000
Initial charges:             Set automatically (system chrg:   0.100E+01)
Included shells:             C:  s, p
                             N:  s, p
                             H:  s
Spin coupling constants:     C   1(s)-1(s):  -0.455900E-01
                             C   1(s)-2(p):  -0.293000E-01
                             C   2(p)-1(s):  -0.293000E-01
                             C   2(p)-2(p):  -0.275500E-01
                             N   1(s)-1(s):  -0.468700E-01
                             N   1(s)-2(p):  -0.317000E-01
                             N   2(p)-1(s):  -0.317000E-01
                             N   2(p)-2(p):  -0.307200E-01
                             H   1(s)-1(s):  -0.792500E-01
Range separated hybrid:      Yes
  Screening parameter omega:   0.300000E+00
  Range separated algorithm:   MatrixBased
Extra options:
                             Mulliken analysis
                             Force calculation
Force type                   original
                             Eigenvector printing


REKS Calcuation:             Yes
SSR(2,2) Calcuation:         Yes
Energy Functional:           (PPS+OSS)/2
Number of Core Orbitals:                  5
Number of Active Orbitals:                2
Number of Basis:                         12
Number of States:                         2
State-Averaging Weight:          0.500000
                                 0.500000
State of Interest:                        1
Initial Guess:               Diagonalize H0 matrix
Newton-Raphson for FON opt:  Yes
NR max. Iterations:                      50
Level Shifting:              Yes
Shift Value:                     0.300000
W Scale Factor:              C  =    3.000000
                             N  =    3.000000
                             H  =    3.000000
Transition Dipole:           No
Gradient of Microstate:      No
CP-REKS Solver:              Preconditioned Conjugate-Gradient
CG max. Iterations:                     100
CG Tolerance:                  0.100000E-07
Memory for A and Hxc:        Direct Updating Without Saving
Non-Adiabatic Coupling:      Yes

--------------------------------------------------------------------------------

***  Geometry step: 0

  iSCC       reks energy        Diff energy         x_a       SCC error   
    1       -6.2638704796       0.0000000000     0.998483    1.17856514
    2       -6.2777084981      -0.0138380185     0.999448    0.11256893
    3       -6.2815714585      -0.0038629603     0.999712    0.05322680
    4       -6.2832056183      -0.0016341598     0.999814    0.02729195
    5       -6.2840439979      -0.0008383797     0.999861    0.01497119
    6       -6.2845574196      -0.0005134217     0.999884    0.00845848
    7       -6.2849162911      -0.0003588715     0.999898    0.00583048
    8       -6.2851867178      -0.0002704266     0.999906    0.00547919
    9       -6.2853978309      -0.0002111131     0.999911    0.00502149
   10       -6.2855648662      -0.0001670353     0.999915    0.00453067
   11       -6.2856973258      -0.0001324596     0.999917    0.00404402
   12       -6.2858020292      -0.0001047034     0.999919    0.00358089
   13       -6.2858843178      -0.0000822886     0.999920    0.00315120
   14       -6.2859485567      -0.0000642389     0.999921    0.00275946
   15       -6.2859983624      -0.0000498057     0.999922    0.00240693
   16       -6.2860367256      -0.0000383632     0.999923    0.00209284
   17       -6.2860660974      -0.0000293719     0.999923    0.00184496
   18       -6.2860884636      -0.0000223662     0.999924    0.00164377
   19       -6.2861054135      -0.0000169499     0.999924    0.00145723
   20       -6.2861182047      -0.0000127912     0.999924    0.00128634
   21       -6.2861278221      -0.0000096175     0.999924    0.00113130
   22       -6.2861350304      -0.0000072082     0.999924    0.00099177
   23       -6.2861404181      -0.0000053877     0.999924    0.00086703
   24       -6.2861444355      -0.0000040174     0.999924    0.00075614
   25       -6.2861474250      -0.0000029895     0.999924    0.00065803
   26       -6.2861496458      -0.0000022207     0.999925    0.00057159
   27       -6.2861512929      -0.0000016471     0.999925    0.00049570
   28       -6.2861525130      -0.0000012201     0.999925    0.00042927
   29       -6.2861534158      -0.0000009028     0.999925    0.00037128
   30       -6.2861540832      -0.0000006673     0.999925    0.00032077
   31       -6.2861545760      -0.0000004929     0.999925    0.00027686
   32       -6.2861549398      -0.0000003638     0.999925    0.00023876
   33       -6.2861552081      -0.0000002683     0.999925    0.00020574
   34       -6.2861554059      -0.0000001978     0.999925    0.00017718
   35       -6.2861555517      -0.0000001457     0.999925    0.00015249
   36       -6.2861556590      -0.0000001074     0.999925    0.00013118
   37       -6.2861557381      -0.0000000790     0.999925    0.00011280
   38       -6.2861557962      -0.0000000582     0.999925    0.00009695
   39       -6.2861558391      -0.0000000428     0.999925    0.00008330
   40       -6.2861558706      -0.0000000315     0.999925    0.00007155
   41       -6.2861558937      -0.0000000232     0.999925    0.00006145
   42       -6.2861559108      -0.0000000170     0.999924    0.00005275
   43       -6.2861559233      -0.0000000125     0.999924    0.00004528
   44       -6.2861559325      -0.0000000092     0.999924    0.00003886
   45       -6.2861559393      -0.0000000068     0.999924    0.00003335
   46       -6.2861559443      -0.0000000050     0.999924    0.00002861
   47       -6.2861559480      -0.0000000037     0.999924    0.00002454
   48       -6.2861559507      -0.0000000027     0.999924    0.00002105
   49       -6.2861559526      -0.0000000020     0.999924    0.00001806
   50       -6.2861559541      -0.0000000015     0.999924    0.00001549
   51       -6.2861559552      -0.0000000011     0.999924    0.00001328
   52       -6.2861559559      -0.0000000008     0.999924    0.00001139
   53       -6.2861559565      -0.0000000006     0.999924    0.00000977
   54       -6.2861559569      -0.0000000004     0.999924    0.00000837
   55       -6.2861559573      -0.0000000003     0.999924    0.00000718
   56       -6.2861559575      -0.0000000002     0.999924    0.00000616
   57       -6.2861559577      -0.0000000002     0.999924    0.00000528
   58       -6.2861559578      -0.0000000001     0.999924    0.00000452
   59       -6.2861559579      -0.0000000001     0.999924    0.00000388
   60       -6.2861559579      -0.0000000001     0.999924    0.00000333
   61       -6.2861559580      -0.0000000000     0.999924    0.00000285
   62       -6.2861559580      -0.0000000000     0.999924    0.00000244
   63       -6.2861559580      -0.0000000000     0.999924    0.00000210
   64       -6.2861559581      -0.0000000000     0.999924    0.00000180
   65       -6.2861559581      -0.0000000000     0.999924    0.00000154
   66       -6.2861559581      -0.0000000000     0.999924    0.00000132
   67       -6.2861559581      -0.0000000000     0.999924    0.00000113
   68       -6.2861559581      -0.0000000000     0.999924    0.00000097
  
--------------------------------------------------
 Final SA-REKS(2,2) energy:      -6.28615596
  
 State     Energy      FON(1)    FON(2)   Spin
  PPS   -6.40862638   1.999849  0.000151  0.00
  OSS   -6.16368553   1.000000  1.000000  0.00
 Trip   -6.24635688   1.000000  1.000000  1.00
--------------------------------------------------

 Lagrangian Wab:   0.00826748  0.00826713

--------------------------------------------------
 SSR: 2SI-2SA-REKS(2,2) Hamiltonian matrix
               PPS           OSS
   PPS    -6.40862638    0.01158994
   OSS     0.01158994   -6.16368553
--------------------------------------------------

----------------------------------------------------------------
 SSR: 2SI-2SA-REKS(2,2) states
                    E_n       C_{PPS}    C_{OSS}
 SSR state  1   -6.40917357  -0.998887   0.047159
 SSR state  2   -6.16313835  -0.047159  -0.998887
----------------------------------------------------------------

 unrelaxed SSR FONs for S0:  1.997625  0.002375

Total Energy:                       -6.4091735662 H         -174.4025 eV
Extrapolated to 0:                  -6.4091735662 H         -174.4025 eV

----------------------------------------------------------------------------------
 Solving CP-REKS equation for  1 state vector...
----------------------------------------------------------------------------------
  CG solver: Constructing Y initial guess
  CG solver: Iteration    1    eps =    0.000183681157
  CG solver: Iteration    2    eps =    0.000062182578
  CG solver: Iteration    3    eps =    0.000030914717
  CG solver: Iteration    4    eps =    0.000001245541
  CG solver: Iteration    5    eps =    0.000000016183
  CG solver: Iteration    6    eps =    0.000000008204
  Convergence reached in CG solver after    6 iterations
  CG solver: Calculating converged R, Z, Q2 matrix
----------------------------------------------------------------------------------

----------------------------------------------------------------------------------
 Solving CP-REKS equation for SI between  1 and  2 state vectors...
----------------------------------------------------------------------------------
  CG solver: Constructing Y initial guess
  CG solver: Iteration    1    eps =    0.004611762834
  CG solver: Iteration    2    eps =    0.007627918579
  CG solver: Iteration    3    eps =    0.000830177458
  CG solver: Iteration    4    eps =    0.000009887774
  CG solver: Iteration    5    eps =    0.000001406942
  CG solver: Iteration    6    eps =    0.000000030890
  CG solver: Iteration    7    eps =    0.000000001149
  Convergence reached in CG solver after    7 iterations
  CG solver: Calculating converged R, Z, Q2 matrix
----------------------------------------------------------------------------------

--------------------------------------------------
 Gradient Information
--------------------------------------------------
           1 st state (SSR)
    -0.00016142     0.00185202    -0.02373935
     0.00309726    -0.00329021     0.02488839
     0.01327196    -0.00269794     0.00492394
     0.01368894    -0.00529013    -0.00139939
    -0.01627473     0.00503360    -0.00849241
    -0.01362202     0.00439265     0.00381883

           2 st state (SSR)
     0.00129536    -0.00208914     0.08329431
    -0.00375169     0.00720883    -0.09615726
    -0.01473822    -0.00920240     0.01996946
    -0.01169679     0.00186915    -0.00945009
     0.01305263    -0.00428518    -0.01615408
     0.01583870     0.00649874     0.01849767
--------------------------------------------------
 Coupling Information
--------------------------------------------------
 between  1 and  2 states
--------------------------------------------------
 g vector - difference gradient
    -0.00076247     0.00239083    -0.05732784
     0.00359761    -0.00549457     0.06364557
     0.01564558     0.00253058    -0.00737315
     0.01448391    -0.00353974     0.00411432
    -0.01663503     0.00458393     0.00392574
    -0.01632960    -0.00047103    -0.00698463

 h vector - derivative coupling
    -0.00032574     0.00434773    -0.03774422
     0.00166786    -0.00234157     0.03014049
     0.01667382    -0.00777917     0.00193612
     0.01832667     0.00059062     0.00075012
    -0.02013892    -0.00101740     0.00082196
    -0.01620368     0.00619979     0.00409552

 G vector - GDV
    -0.00072839     0.00197058    -0.05351683
     0.00342447    -0.00524952     0.06052283
     0.01400509     0.00325223    -0.00752276
     0.01269287    -0.00357964     0.00402535
    -0.01466368     0.00465939     0.00383083
    -0.01473036    -0.00105304    -0.00733942

 H vector - DCV - non-adiabatic coupling
    -0.00161003     0.01850809    -0.17467988
     0.00812641    -0.01157892     0.14633153
     0.07345974    -0.03050843     0.00501092
     0.07970296     0.00103441     0.00461075
    -0.08785975    -0.00236147     0.00482925
    -0.07181932     0.02490633     0.01389744
--------------------------------------------------


--------------------------------------------------------------------------------
DFTB+ running times                          cpu [s]             wall clock [s]
--------------------------------------------------------------------------------
SCC                                    +     0.03  ( 72.5%)      0.03  ( 69.6%)
Post-SCC processing                    +     0.01  ( 24.8%)      0.01  ( 23.9%)
  Force calculation                          0.01  ( 24.4%)      0.01  ( 21.7%)
--------------------------------------------------------------------------------
Missing                                +     0.00  (  2.7%)      0.00  (  6.5%)
Total                                  =     0.04  (100.0%)      0.05  (100.0%)
--------------------------------------------------------------------------------
