 Fermi distribution function

Calculation with static geometry


********************************************************************************
 iSCC Total electronic   Diff electronic      SCC error    
    9   -0.54062680E+01   -0.37589487E-10    0.70619876E-06
********************************************************************************

 Total charge:     1.00000000

 Atomic gross charges (e)
 Atom           Charge
    1       0.19677638
    2      -0.08001474
    3       0.17938723
    4       0.28740394
    5       0.26588002
    6       0.15056717

Nr. of electrons (up):     12.00000000
Atom populations (up)
 Atom       Population
    1       3.80322362
    2       5.08001474
    3       0.82061277
    4       0.71259606
    5       0.73411998
    6       0.84943283

l-shell populations (up)
 Atom Sh.   l       Population
    1   1   0       1.32250772
    1   2   1       2.48071591
    2   1   0       1.43581943
    2   2   1       3.64419531
    3   1   0       0.82061277
    4   1   0       0.71259606
    5   1   0       0.73411998
    6   1   0       0.84943283

Orbital populations (up)
 Atom Sh.   l   m       Population  Label
    1   1   0   0       1.32250772  s
    1   2   1  -1       0.57660572  p_y
    1   2   1   0       0.87573408  p_z
    1   2   1   1       1.02837611  p_x
    2   1   0   0       1.43581943  s
    2   2   1  -1       1.34547506  p_y
    2   2   1   0       1.09308381  p_z
    2   2   1   1       1.20563644  p_x
    3   1   0   0       0.82061277  s
    4   1   0   0       0.71259606  s
    5   1   0   0       0.73411998  s
    6   1   0   0       0.84943283  s

Fermi level:                        -0.4935024186 H          -13.4289 eV
Band energy:                        -8.9083818563 H         -242.4094 eV
TS:                                  0.0000000000 H            0.0000 eV
Band free energy (E-TS):            -8.9083818563 H         -242.4094 eV
Extrapolated E(0K):                 -8.9083818563 H         -242.4094 eV
Input / Output electrons (q):     12.0000000000     12.0000000000

Energy H0:                          -5.5392099839 H         -150.7296 eV
Energy SCC:                          0.1329419349 H            3.6175 eV
Total Electronic energy:            -5.4062680491 H         -147.1120 eV
Repulsive energy:                    0.1819537518 H            4.9512 eV
Total energy:                       -5.2243142973 H         -142.1608 eV
Extrapolated to 0:                  -5.2243142973 H         -142.1608 eV
Total Mermin free energy:           -5.2243142973 H         -142.1608 eV
Force related energy:               -5.2243142973 H         -142.1608 eV

SCC converged

Excitation Energy:                   0.1420542138 H            3.8655 eV

Total Forces
    1      0.008440773152      0.004120428462      0.028665831900
    2      0.007802093664     -0.009664191018     -0.050045446922
    3     -0.012271466796      0.004113045070      0.006092879749
    4     -0.012694257801     -0.001389678482      0.002596294190
    5      0.002535401870      0.008201557112      0.006954301501
    6      0.006187455912     -0.005381161145      0.005736139583

Maximal derivative component:        0.500454E-01 au


