     6
  Step:     0            Position(A)                                  Velocity(au)
C        -0.03877272     0.01205954     0.01255832     0.00000511     0.00014462     0.00019243
N        -0.04648111    -0.05414341     1.30182593     0.00016197    -0.00012452    -0.00027889
H         0.97417638    -0.02729092    -0.52790630    -0.00065973    -0.00045632     0.00023875
H         0.81213899    -0.08406978     1.79659502    -0.00168732     0.00054771    -0.00010091
H        -0.91365218    -0.05309887     1.92041977    -0.00054194     0.00048195     0.00105383
H        -0.97766490     0.10337530    -0.53734393     0.00057722    -0.00056619     0.00039090
     6
  Step:     1            Position(A)                                  Velocity(au)
C        -0.03864137     0.01366053     0.01420037     0.00001868     0.00014867     0.00010556
N        -0.04490437    -0.05552904     1.29920914     0.00011899    -0.00012935    -0.00019705
H         0.96612967    -0.03228625    -0.52544572    -0.00079195    -0.00045867     0.00020234
H         0.79569830    -0.07807863     1.79709775    -0.00124430     0.00054885     0.00023610
H        -0.91846035    -0.04787370     1.93108232    -0.00030609     0.00047399     0.00086441
H        -0.97184645     0.09733291    -0.53417250     0.00046620    -0.00053816     0.00017754
     6
  Step:     2            Position(A)                                  Velocity(au)
C        -0.03836412     0.01531200     0.01486766     0.00003140     0.00015387     0.00001584
N        -0.04387803    -0.05697322     1.29751515     0.00006468    -0.00013527    -0.00011112
H         0.95685104    -0.03732511    -0.52347977    -0.00088223    -0.00046475     0.00014651
H         0.78491757    -0.07206259     1.80176009    -0.00068769     0.00055437     0.00063879
H        -0.92034857    -0.04272933     1.93933049    -0.00002274     0.00046672     0.00062404
H        -0.96746584     0.09160203    -0.53345999     0.00031959    -0.00050999    -0.00005390
     6
  Step:     3            Position(A)                                  Velocity(au)
C        -0.03795450     0.01702666     0.01454699     0.00004244     0.00016022    -0.00007345
N        -0.04348929    -0.05848834     1.29677808     0.00000630    -0.00014231    -0.00002258
H         0.94682922    -0.04245350    -0.52224047    -0.00092594    -0.00047549     0.00006806
H         0.78065379    -0.06595064     1.81107256    -0.00009696     0.00056769     0.00105805
H        -0.91895791    -0.03766331     1.94473432     0.00027992     0.00045952     0.00035569
H        -0.96485489     0.08617588    -0.53535157     0.00014963    -0.00048318    -0.00029283
     6
  Step:     4            Position(A)                                  Velocity(au)
C        -0.03743573     0.01881711     0.01326082     0.00005092     0.00016769    -0.00015914
N        -0.04374013    -0.06008663     1.29702126    -0.00004859    -0.00015039     0.00006763
H         0.93659430    -0.04772730    -0.52199079    -0.00092060    -0.00049172    -0.00003514
H         0.78279636    -0.05964331     1.82490694     0.00044212     0.00059010     0.00143722
H        -0.91422486    -0.03267638     1.94711196     0.00057566     0.00045240     0.00008186
H        -0.96419241     0.08103156    -0.53986628    -0.00002875    -0.00045908    -0.00052734
     6
  Step:     5            Position(A)                                  Velocity(au)
C        -0.03684052     0.02069517     0.01106545     0.00005607     0.00017617    -0.00023829
N        -0.04455239    -0.06177832     1.29825753    -0.00009356    -0.00015923     0.00015807
H         0.92668942    -0.05321081    -0.52300915    -0.00086663    -0.00051410    -0.00016352
H         0.79032605    -0.05304099     1.84251451     0.00085937     0.00062044     0.00172687
H        -0.90636432    -0.02776618     1.94652514     0.00083910     0.00044595    -0.00017506
H        -0.96548377     0.07613265    -0.54688804    -0.00019980    -0.00043872    -0.00074534
     6
  Step:     6            Position(A)                                  Velocity(au)
C        -0.03620917     0.02267106     0.00804766     0.00005734     0.00018547    -0.00030834
N        -0.04578702    -0.06357005     1.30047933    -0.00012417    -0.00016849     0.00024622
H         0.91763503    -0.05897413    -0.52556800    -0.00076801    -0.00054295    -0.00031532
H         0.80159667    -0.04607000     1.86268562     0.00111461     0.00065570     0.00189613
H        -0.89586798    -0.02292032     1.94328220     0.00104449     0.00044147    -0.00039218
H        -0.96856346     0.07143362    -0.55617201    -0.00034900    -0.00042270    -0.00093601
     6
  Step:     7            Position(A)                                  Velocity(au)
C        -0.03558608     0.02475260     0.00431992     0.00005460     0.00019534    -0.00036724
N        -0.04726874    -0.06546447     1.30364412    -0.00013807    -0.00017786     0.00032840
H         0.90988774    -0.06508899    -0.52990744    -0.00063271    -0.00057818    -0.00048618
H         0.81471023    -0.03869622     1.88399599     0.00119969     0.00069230     0.00193603
H        -0.88351403    -0.01810828     1.93794535     0.00116565     0.00044100    -0.00054654
H        -0.97311879     0.06688524    -0.56736498    -0.00046463    -0.00041111    -0.00109082
     6
  Step:     8            Position(A)                                  Velocity(au)
C        -0.03501479     0.02694439     0.00001367     0.00004815     0.00020545    -0.00041360
N        -0.04880749    -0.06746100     1.30766363    -0.00013462    -0.00018709     0.00040033
H         0.90379335    -0.07162291    -0.53620407    -0.00047273    -0.00061907    -0.00066895
H         0.82784208    -0.03092462     1.90503999     0.00113059     0.00072711     0.00185557
H        -0.87036725    -0.01327258     1.93132569     0.00117787     0.00044737    -0.00061698
H        -0.97872821     0.06243980    -0.58003569    -0.00053887    -0.00040360    -0.00120424
     6
  Step:     9            Position(A)                                  Velocity(au)
C        -0.03453273     0.02924722    -0.00472847     0.00003875     0.00021545    -0.00044682
N        -0.05021374    -0.06955744     1.31240214    -0.00011440    -0.00019612     0.00045813
H         0.89954590    -0.07863238    -0.54454207    -0.00030312    -0.00066428    -0.00085425
H         0.83944400    -0.02278938     1.92459010     0.00093625     0.00075803     0.00167444
H        -0.85774578    -0.00832124     1.92444767     0.00106283     0.00046378    -0.00058832
H        -0.98490753     0.05805573    -0.59371013    -0.00056797    -0.00039945    -0.00127392
     6
  Step:    10            Position(A)                                  Velocity(au)
C        -0.03416715     0.03165773    -0.00976135     0.00002741     0.00022495    -0.00046702
N        -0.05131025    -0.07175139     1.31768617    -0.00007912    -0.00020495     0.00049920
H         0.89716208    -0.08615527    -0.55489241    -0.00014022    -0.00071189    -0.00103136
H         0.84832426    -0.01434137     1.94167151     0.00064945     0.00078410     0.00141648
H        -0.84711582    -0.00312654     1.91845506     0.00081537     0.00049314    -0.00045682
H        -0.99115358     0.05370099    -0.60790519    -0.00055178    -0.00039774    -0.00130024
     6
  Step:    11            Position(A)                                  Velocity(au)
C        -0.03393307     0.03416853    -0.01494552     0.00001526     0.00023362    -0.00047500
N        -0.05194471    -0.07404117     1.32332305    -0.00003175    -0.00021364     0.00052282
H         0.89647825    -0.09420643    -0.56710498     0.00000044    -0.00075970    -0.00118953
H         0.85365196    -0.00563580     1.95557828     0.00030155     0.00080537     0.00110549
H        -0.83990802     0.00246711     1.91445385     0.00045036     0.00053688    -0.00023532
H        -0.99697872     0.04935450    -0.62215531    -0.00049299    -0.00039737    -0.00128577
     6
  Step:    12            Position(A)                                  Velocity(au)
C        -0.03383338     0.03676853    -0.02015283     0.00000329     0.00024113    -0.00047195
N        -0.05200490    -0.07642527     1.32912377     0.00002332    -0.00022214     0.00053029
H         0.89717180    -0.10277514    -0.58091566     0.00010626    -0.00080542    -0.00131927
H         0.85492119     0.00327758     1.96585620    -0.00007924     0.00082276     0.00076359
H        -0.83726330     0.00861867     1.91330696     0.00000584     0.00059364     0.00004506
H        -1.00193863     0.04500768    -0.63603392    -0.00039629    -0.00039720    -0.00123465
     6
  Step:    13            Position(A)                                  Velocity(au)
C        -0.03386105     0.03944365    -0.02527037    -0.00000774     0.00024725    -0.00045933
N        -0.05143444    -0.07890099     1.33492414     0.00008055    -0.00023027     0.00052442
H         0.89880287    -0.11182663    -0.59596661     0.00016897    -0.00084708    -0.00141333
H         0.85191841     0.01236375     1.97228335    -0.00046694     0.00083815     0.00041156
H        -0.83978026     0.01545403     1.91543952    -0.00046166     0.00065864     0.00033943
H        -1.00564842     0.04066504    -0.64916569    -0.00026755    -0.00039602    -0.00115185
     6
  Step:    14            Position(A)                                  Velocity(au)
C        -0.03400266     0.04217766    -0.03020152    -0.00001859     0.00025415    -0.00052844
N        -0.05024278    -0.08146283     1.34059655     0.00013651    -0.00024300     0.00057890
H         0.90086832    -0.12130673    -0.61183492     0.00013391    -0.00096697    -0.00138646
H         0.84470598     0.02161369     1.97485996    -0.00087426     0.00097704     0.00003293
H        -0.84736294     0.02302778     1.92073254    -0.00088397     0.00059914     0.00056877
H        -1.00779186     0.03634402    -0.66123287    -0.00005121    -0.00026077    -0.00096284
     6
  Step:    15            Position(A)                                  Velocity(au)
C        -0.03426771     0.04500369    -0.03683110    -0.00002911     0.00026142    -0.00068791
N        -0.04844809    -0.08421712     1.34758863     0.00018517    -0.00025971     0.00070374
H         0.90173240    -0.13298092    -0.62629799     0.00000875    -0.00113008    -0.00123550
H         0.83279237     0.03373827     1.97300386    -0.00127214     0.00120495    -0.00035868
H        -0.85911880     0.02856130     1.92788241    -0.00120363     0.00043473     0.00068294
H        -1.00676867     0.03496028    -0.67022956     0.00024062    -0.00001561    -0.00067105
     6
  Step:    16            Position(A)                                  Velocity(au)
C        -0.03463957     0.04789666    -0.04525087    -0.00003750     0.00026589    -0.00084518
N        -0.04619178    -0.08714443     1.35599229     0.00021873    -0.00027445     0.00082718
H         0.90105983    -0.14602939    -0.63886386    -0.00014026    -0.00123597    -0.00104981
H         0.81687544     0.04797436     1.96701304    -0.00158109     0.00138742    -0.00069860
H        -0.87369466     0.03253841     1.93567315    -0.00139586     0.00029677     0.00069464
H        -1.00252779     0.03600259    -0.67591338     0.00052436     0.00019739    -0.00036971
     6
  Step:    17            Position(A)                                  Velocity(au)
C        -0.03508811     0.05082052    -0.05532111    -0.00004267     0.00026685    -0.00098591
N        -0.04366285    -0.09022127     1.36568471     0.00023340    -0.00028731     0.00093542
H         0.89866398    -0.16002008    -0.64926468    -0.00029973    -0.00130889    -0.00084680
H         0.79820302     0.06409066     1.95772056    -0.00175186     0.00156232    -0.00094254
H        -0.88965592     0.03505371     1.94307900    -0.00145923     0.00016147     0.00061979
H        -0.99529734     0.03927859    -0.67831770     0.00077579     0.00039803    -0.00008123
     6
  Step:    18            Position(A)                                  Velocity(au)
C        -0.03557307     0.05373448    -0.06681958    -0.00004365     0.00026405    -0.00110446
N        -0.04108571    -0.09342999     1.37645645     0.00022662    -0.00029919     0.00102224
H         0.89450269    -0.17466382    -0.65738928    -0.00045681    -0.00135968    -0.00063994
H         0.77855014     0.08215306     1.94639324    -0.00174007     0.00175567    -0.00105494
H        -0.90561810     0.03607089     1.94923217    -0.00140385     0.00002076     0.00047519
H        -0.98555586     0.04471022    -0.67769042     0.00097157     0.00059449     0.00017508
     6
  Step:    19            Position(A)                                  Velocity(au)
C        -0.03604294     0.05659715    -0.07948320    -0.00003933     0.00025754    -0.00119807
N        -0.03870515    -0.09676659     1.38804811     0.00019766    -0.00031148     0.00108447
H         0.88867045    -0.18976562    -0.66326465    -0.00059925    -0.00139607    -0.00044134
H         0.76013561     0.10249937     1.93464176    -0.00151706     0.00199128    -0.00101395
H        -0.92036792     0.03550795     1.95347462    -0.00124901    -0.00012735     0.00028124
H        -0.97404238     0.05228426    -0.67448751     0.00108710     0.00079185     0.00038020
     6
  Step:    20            Position(A)                                  Velocity(au)
C        -0.03643346     0.05936865    -0.09302975    -0.00002859     0.00024752    -0.00126566
N        -0.03676149    -0.10024429     1.40018128     0.00014869    -0.00032559     0.00112196
H         0.88139293    -0.20520551    -0.66704439    -0.00071552    -0.00142465    -0.00026199
H         0.74536151     0.12571616     1.92421116    -0.00108803     0.00228705    -0.00082323
H        -0.93294262     0.03328490     1.95538476    -0.00101976    -0.00028136     0.00005963
H        -0.96177337     0.06203342    -0.66937273     0.00109754     0.00099405     0.00051608
     6
  Step:    21            Position(A)                                  Velocity(au)
C        -0.03666830     0.06201212    -0.10717200    -0.00001055     0.00023430    -0.00130727
N        -0.03545218    -0.10388941     1.41259324     0.00008569    -0.00034206     0.00113768
H         0.87301710    -0.22093256    -0.66899626    -0.00079523    -0.00145162    -0.00011162
H         0.73633282     0.15253298     1.91663205    -0.00050709     0.00264603    -0.00052034
H        -0.94267703     0.02935269     1.95477908    -0.00074456    -0.00043768    -0.00016850
H        -0.95003164     0.07403090    -0.66319721     0.00098175     0.00120485     0.00056831
     6
  Step:    22            Position(A)                                  Velocity(au)
C        -0.03666429     0.06449436    -0.12162868     0.00001485     0.00021820    -0.00132392
N        -0.03488686    -0.10772755     1.42507020     0.00001821    -0.00035996     0.00113697
H         0.86399576    -0.23696238    -0.66948637    -0.00082975    -0.00148292     0.00000170
H         0.73426791     0.18360318     1.91282773     0.00012450     0.00304834    -0.00017238
H        -0.94923125     0.02370975     1.95169854    -0.00045408    -0.00059157    -0.00038346
H        -0.94029567     0.08839193    -0.65693987     0.00072923     0.00142822     0.00053035
     6
  Step:    23            Position(A)                                  Velocity(au)
C        -0.03634341     0.06678572    -0.13613533     0.00004632     0.00019955    -0.00131772
N        -0.03505380    -0.11176417     1.43746660    -0.00004250    -0.00037674     0.00112586
H         0.85486475    -0.25337436    -0.66895898    -0.00081327    -0.00152400     0.00007222
H         0.73905642     0.21922129     1.91286089     0.00068368     0.00345148     0.00014374
H        -0.95261081     0.01641089     1.94639019    -0.00018036    -0.00073777    -0.00056740
H        -0.93407832     0.10527598    -0.65159473     0.00034848     0.00166783     0.00040806
     6
  Step:    24            Position(A)                                  Velocity(au)
C        -0.03565087     0.06885990    -0.15045628     0.00008081     0.00017868    -0.00129181
N        -0.03581664    -0.11596945     1.44970059    -0.00008642    -0.00038909     0.00110904
H         0.84620401    -0.27030285    -0.66790643    -0.00074420    -0.00157913     0.00009728
H         0.74922467     0.25911102     1.91597225     0.00106439     0.00380232     0.00036694
H        -0.95317700     0.00756964     1.93928563     0.00004438    -0.00087107    -0.00070471
H        -0.93267205     0.12487898    -0.64801276    -0.00012665     0.00192571     0.00022210
     6
  Step:    25            Position(A)                                  Velocity(au)
C        -0.03457550     0.07069470    -0.16439605     0.00011372     0.00015604    -0.00125021
N        -0.03694444    -0.12027622     1.46172899    -0.00010708    -0.00039411     0.00108870
H         0.83858392    -0.28792082    -0.66683090    -0.00062641    -0.00165055     0.00007797
H         0.76234189     0.30240439     1.92088833     0.00120722     0.00405467     0.00046822
H        -0.95164000    -0.00264553     1.93097325     0.00019007    -0.00098708    -0.00078295
H        -0.93684893     0.14740464    -0.64673584    -0.00063810     0.00220026     0.00000542
     6
  Step:    26            Position(A)                                  Velocity(au)
C        -0.03316299     0.07227365    -0.17780699     0.00013993     0.00013226    -0.00119739
N        -0.03815916    -0.12459128     1.47351789    -0.00010227    -0.00039018     0.00106482
H         0.83250018    -0.30641169    -0.66620075    -0.00047007    -0.00173745     0.00001954
H         0.77563483     0.34781462     1.92621540     0.00110555     0.00418184     0.00045045
H        -0.94901875    -0.01402453     1.92215707     0.00023280    -0.00108287    -0.00079447
H        -0.94663170     0.17301392    -0.64789418    -0.00111465     0.00248473    -0.00020443
     6
  Step:    27            Position(A)                                  Velocity(au)
C        -0.03151418     0.07358804    -0.19059131     0.00015522     0.00010804    -0.00113764
N        -0.03918176    -0.12881224     1.48502395    -0.00007345    -0.00037711     0.00103636
H         0.82830014    -0.32593096    -0.66640348    -0.00029167    -0.00183533    -0.00006886
H         0.78652798     0.39389021     1.93074286     0.00079153     0.00417882     0.00033685
H        -0.94654710    -0.02633535     1.91359270     0.00016009    -0.00115776    -0.00073852
H        -0.96123411     0.20176292    -0.65120804    -0.00148902     0.00276741    -0.00037486
     6
  Step:    28            Position(A)                                  Velocity(au)
C        -0.02976715     0.07463729    -0.20269504     0.00015744     0.00008405    -0.00107440
N        -0.03976600    -0.13284134     1.49619018    -0.00002462    -0.00035563     0.00100235
H         0.82611938    -0.34656310    -0.66770724    -0.00011220    -0.00193599    -0.00017535
H         0.79295113     0.43923421     1.93358456     0.00031522     0.00405645     0.00015752
H        -0.94551658    -0.03935276     1.90600048    -0.00002342    -0.00121383    -0.00062299
H        -0.97920692     0.23355634    -0.65609491    -0.00171367     0.00303393    -0.00048551
     6
  Step:    29            Position(A)                                  Velocity(au)
C        -0.02806977     0.07542680    -0.21409589     0.00014686     0.00006065    -0.00100999
N        -0.03972038    -0.13659243     1.50695219     0.00003861    -0.00032688     0.00096258
H         0.82584545    -0.36828437    -0.67023962     0.00004574    -0.00202859    -0.00028713
H         0.79342411     0.48263273     1.93418890    -0.00027167     0.00383356    -0.00005948
H        -0.94705950    -0.05289010     1.89996368    -0.00029267    -0.00125574    -0.00046453
H        -0.99872385     0.26813604    -0.66182961    -0.00176802     0.00327053    -0.00053007
     6
  Step:    30            Position(A)                                  Velocity(au)
C        -0.02655432     0.07596417    -0.22479058     0.00012563     0.00003788    -0.00094568
N        -0.03892130    -0.13999240     1.51724847     0.00010977    -0.00029200     0.00091771
H         0.82712006    -0.39094243    -0.67398886     0.00016164    -0.00210147    -0.00039251
H         0.78700773     0.52310078     1.93228325    -0.00092412     0.00353104    -0.00029186
H        -0.95191934    -0.06682455     1.89583806    -0.00060396    -0.00128976    -0.00028630
H        -1.01788578     0.30510535    -0.66769131    -0.00165602     0.00346660    -0.00051332
     6
  Step:    31            Position(A)                                  Velocity(au)
C        -0.02532146     0.07625553    -0.23478452     0.00009684     0.00001551    -0.00088194
N        -0.03731895    -0.14298045     1.52702884     0.00018220    -0.00025211     0.00086891
H         0.82938161    -0.41425813    -0.67882663     0.00022019    -0.00214420    -0.00048254
H         0.77320712     0.55988099     1.92780383    -0.00160553     0.00316909    -0.00052310
H        -0.96027220    -0.08110617     1.89370022    -0.00090270    -0.00132205    -0.00011350
H        -1.03495243     0.34397455    -0.67305953    -0.00139790     0.00361582    -0.00044626
     6
  Step:    32            Position(A)                                  Velocity(au)
C        -0.02443584     0.07630356    -0.24408477     0.00006361    -0.00000676    -0.00081874
N        -0.03493527    -0.14550783     1.53625753     0.00024982    -0.00020839     0.00081738
H         0.83193708    -0.43785083    -0.68454527     0.00021312    -0.00214931    -0.00055182
H         0.75188362     0.59243061     1.92083934    -0.00228602     0.00276724    -0.00074087
H        -0.97166765    -0.09574703     1.89335506    -0.00113541    -0.00135714     0.00003193
H        -1.04846747     0.38420838    -0.67745403    -0.00102131     0.00371577    -0.00034172
     6
  Step:    33            Position(A)                                  Velocity(au)
C        -0.02392995     0.07610758    -0.25269600     0.00002854    -0.00002920    -0.00075575
N        -0.03185366    -0.14753943     1.54491062     0.00030771    -0.00016225     0.00076392
H         0.83404406    -0.46127838    -0.69089883     0.00013921    -0.00211315    -0.00059845
H         0.72319610     0.62041955     1.91159592    -0.00293949     0.00234602    -0.00093507
H        -0.98511157    -0.11079615     1.89439874    -0.00126109    -0.00139715     0.00013517
H        -1.05729545     0.42526417    -0.68053535    -0.00055491     0.00376697    -0.00021174
     6
  Step:    34            Position(A)                                  Velocity(au)
C        -0.02381144     0.07566479    -0.26061829    -0.00000645    -0.00005190    -0.00069252
N        -0.02820348    -0.14905736     1.55296969     0.00035242    -0.00011550     0.00070868
H         0.83498246    -0.48407993    -0.69763757     0.00000309    -0.00203586    -0.00062330
H         0.68757669     0.64375438     1.90038297    -0.00354089     0.00192964    -0.00109621
H        -0.99925639    -0.12631226     1.89631217    -0.00125784    -0.00144212     0.00018994
H        -1.06060714     0.46661803    -0.68208618    -0.00002500     0.00377187    -0.00006636
     6
  Step:    35            Position(A)                                  Velocity(au)
C        -0.02407109     0.07497215    -0.26784617    -0.00004008    -0.00007483    -0.00062851
N        -0.02414370    -0.15006616     1.56041429     0.00038189    -0.00007046     0.00065119
H         0.83411166    -0.50581664    -0.70453463    -0.00018647    -0.00192081    -0.00062911
H         0.64573243     0.66263407     1.88761429    -0.00406469     0.00154852    -0.00121442
H        -1.01262926    -0.14234536     1.89855397    -0.00112353    -0.00149104     0.00019746
H        -1.05784241     0.50778106    -0.68198716     0.00054529     0.00373429     0.00008633
     6
  Step:    36            Position(A)                                  Velocity(au)
C        -0.02468828     0.07402764    -0.27436813    -0.00007148    -0.00009788    -0.00056317
N        -0.01984885    -0.15059882     1.56721561     0.00039520    -0.00002999     0.00059050
H         0.83090311    -0.52610130    -0.71140059    -0.00041842    -0.00177371    -0.00061967
H         0.59865380     0.67763125     1.87381518    -0.00448551     0.00124075    -0.00127945
H        -1.02383584    -0.15893170     1.90063201    -0.00087184    -0.00154298     0.00016418
H        -1.04867786     0.54831267    -0.68019765     0.00113566     0.00365912     0.00023985
     6
  Step:    37            Position(A)                                  Velocity(au)
C        -0.02563488     0.07283091    -0.28016652    -0.00010006    -0.00012087    -0.00049593
N        -0.01549803    -0.15072231     1.57333264     0.00039241     0.00000273     0.00052549
H         0.82495798    -0.54462002    -0.71809117    -0.00068063    -0.00160193    -0.00059924
H         0.54760333     0.68977779     1.85962391    -0.00478163     0.00105001    -0.00128193
H        -1.03170237    -0.17610106     1.90214576    -0.00052663    -0.00159806     0.00009936
H        -1.03299764     0.58783141    -0.67674004     0.00172805     0.00355236     0.00038893
     6
  Step:    38            Position(A)                                  Velocity(au)
C        -0.02687731     0.07138337    -0.28521748    -0.00012536    -0.00014369    -0.00042623
N        -0.01126411    -0.15053900     1.57871169     0.00037473     0.00002485     0.00045515
H         0.81601299    -0.56114669    -0.72451009    -0.00096082    -0.00141389    -0.00057217
H         0.49404651     0.70060218     1.84577042    -0.00494156     0.00101768    -0.00121622
H        -1.03535689    -0.19389231     1.90280563    -0.00011714    -0.00165801     0.00001337
H        -1.01087352     0.62602736    -0.67168911     0.00230590     0.00342120     0.00052910
     6
  Step:    39            Position(A)                                  Velocity(au)
C        -0.02837740     0.06968746    -0.28949117    -0.00014697    -0.00016629    -0.00035355
N        -0.00730015    -0.15017873     1.58328992     0.00034475     0.00003486     0.00037897
H         0.80393826    -0.57555147    -0.73060849    -0.00124696    -0.00121871    -0.00054278
H         0.43949721     0.71204146     1.83301675    -0.00497141     0.00116803    -0.00108401
H        -1.03426507    -0.21237323     1.90243833     0.00032518    -0.00172656    -0.00008304
H        -0.98255173     0.66267674    -0.66516493     0.00285369     0.00327436     0.00065648
     6
  Step:    40            Position(A)                                  Velocity(au)
C        -0.03009256     0.06774556    -0.29295198    -0.00016448    -0.00018874    -0.00027738
N        -0.00372213    -0.14977638     1.58700228     0.00030660     0.00003399     0.00029713
H         0.78873338    -0.58780834    -0.73638447    -0.00152745    -0.00102619    -0.00051531
H         0.38528732     0.72615507     1.82205566    -0.00489825     0.00149022    -0.00089712
H        -1.02824290    -0.23166406     1.90098892     0.00076823    -0.00180968    -0.00017886
H        -0.94844365     0.69766028    -0.65732734     0.00335666     0.00312237     0.00076768
     6
  Step:    41            Position(A)                                  Velocity(au)
C        -0.03197565     0.06555842    -0.29555949    -0.00017747    -0.00021127    -0.00019743
N        -0.00059266    -0.14943505     1.58979010     0.00026544     0.00002704     0.00021052
H         0.77052234    -0.59800129    -0.74188193    -0.00179120    -0.00084665    -0.00049382
H         0.33233871     0.74464288     1.81339047    -0.00476409     0.00192696    -0.00067689
H        -1.01745862    -0.25196355     1.89852547     0.00118014    -0.00191612    -0.00026228
H        -0.90911843     0.73098456    -0.64837050     0.00380108     0.00297760     0.00086012
     6
  Step:    42            Position(A)                                  Velocity(au)
C        -0.03397504     0.06312365    -0.29727123    -0.00018549    -0.00023425    -0.00011390
N         0.00208498    -0.14918479     1.59160788     0.00022605     0.00002208     0.00012044
H         0.74954753    -0.60633053    -0.74718766    -0.00202771    -0.00069096    -0.00048165
H         0.28106381     0.76831108     1.80724744    -0.00460922     0.00238083    -0.00044837
H        -1.00242510    -0.27358290     1.89525110     0.00153107    -0.00205903    -0.00031965
H        -0.86528770     0.76280102    -0.63851046     0.00417483     0.00285379     0.00093328
     6
  Step:    43            Position(A)                                  Velocity(au)
C        -0.03603351     0.06043377    -0.29805122    -0.00021124    -0.00025431     0.00003764
N         0.00435253    -0.14895208     1.59242487     0.00024890    -0.00002189     0.00002289
H         0.72616223    -0.61311746    -0.75241896    -0.00222877    -0.00058970    -0.00060254
H         0.23150311     0.79672812     1.80358143    -0.00494561     0.00293983    -0.00042066
H        -0.98396360    -0.29700883     1.89153248     0.00167887    -0.00188545    -0.00052982
H        -0.81778594     0.79341669    -0.62795320     0.00455381     0.00286988     0.00078641
     6
  Step:    44            Position(A)                                  Velocity(au)
C        -0.03833629     0.05757853    -0.29706383    -0.00020847    -0.00026035     0.00015669
N         0.00690792    -0.14921014     1.59215310     0.00023031    -0.00003215    -0.00006942
H         0.70123688    -0.61857843    -0.75912187    -0.00225873    -0.00038905    -0.00065103
H         0.17889254     0.83030766     1.79997393    -0.00465958     0.00310255    -0.00029536
H        -0.96489411    -0.31765446     1.88532855     0.00167353    -0.00174544    -0.00066151
H        -0.76739102     0.82355391    -0.61942794     0.00452835     0.00258109     0.00070554
     6