     6
  Step:     0            Position(A)                                  Velocity(au)
C        -0.03631776     0.02742041     0.01160675    -0.00001373    -0.00003008     0.00017814
N        -0.04403223    -0.06459237     1.30318050    -0.00003682     0.00002403    -0.00015978
H         0.94923545    -0.00836575    -0.51881539     0.00041100     0.00012745    -0.00023118
H         0.83080819    -0.09667986     1.79250502    -0.00024274    -0.00010206     0.00018572
H        -0.96250977    -0.01963017     1.89885689     0.00057864    -0.00000148     0.00022561
H        -0.98581975     0.02575304    -0.52826662    -0.00007167     0.00000058    -0.00008247
     6
  Step:     1            Position(A)                                  Velocity(au)
C        -0.03644133     0.02714145     0.01316270    -0.00000825    -0.00002078     0.00010259
N        -0.04466501    -0.06436579     1.30187894    -0.00007708     0.00001717    -0.00007597
H         0.95361496    -0.00696660    -0.52192245     0.00037391     0.00012913    -0.00032740
H         0.82943708    -0.09783313     1.79593368    -0.00001447    -0.00010908     0.00043340
H        -0.95391734    -0.01963687     1.90010749     0.00097347     0.00000141     0.00000996
H        -0.98715514     0.02568923    -0.53029213    -0.00016345    -0.00001246    -0.00028268
     6
  Step:     2            Position(A)                                  Velocity(au)
C        -0.03649831     0.02696576     0.01385118    -0.00000175    -0.00001132     0.00002107
N        -0.04571855    -0.06421669     1.30151845    -0.00011175     0.00000987     0.00001067
H         0.95741546    -0.00554081    -0.52597786     0.00030637     0.00013228    -0.00040514
H         0.83049169    -0.09906619     1.80198653     0.00018647    -0.00011597     0.00065562
H        -0.94121321    -0.01959933     1.89907483     0.00131468     0.00000739    -0.00018059
H        -0.98939559     0.02548037    -0.53445087    -0.00023378    -0.00002600    -0.00046928
     6
  Step:     3            Position(A)                                  Velocity(au)
C        -0.03647957     0.02689380     0.01362375     0.00000540    -0.00000194    -0.00006313
N        -0.04710982    -0.06414983     1.30211241    -0.00013704     0.00000215     0.00009659
H         0.96031738    -0.00407267    -0.53078566     0.00021174     0.00013682    -0.00046598
H         0.83351643    -0.10037023     1.81027659     0.00033558    -0.00012151     0.00083509
H        -0.92515610    -0.01947526     1.89615682     0.00156988     0.00001813    -0.00032249
H        -0.99226946     0.02512037    -0.54055843    -0.00027724    -0.00004014    -0.00063654
     6
  Step:     4            Position(A)                                  Velocity(au)
C        -0.03638013     0.02692327     0.01246999     0.00001283     0.00000710    -0.00014650
N        -0.04871658    -0.06416973     1.30363158    -0.00014972    -0.00000598     0.00017768
H         0.96204775    -0.00254771    -0.53617201     0.00009497     0.00014260    -0.00051224
H         0.83783324    -0.10172436     1.82025564     0.00041783    -0.00012479     0.00096049
H        -0.90686913    -0.01920281     1.89201975     0.00170610     0.00003552    -0.00039114
H        -0.99546079     0.02460221    -0.54837634    -0.00029116    -0.00005495    -0.00078036
     6
  Step:     5            Position(A)                                  Velocity(au)
C        -0.03619898     0.02704921     0.01041867     0.00002015     0.00001559    -0.00022556
N        -0.05038531    -0.06428056     1.30599941    -0.00014749    -0.00001446     0.00024966
H         0.96239512    -0.00095295    -0.54199189    -0.00003779     0.00014951    -0.00054676
H         0.84265718    -0.10310025     1.83128914     0.00042852    -0.00012538     0.00102741
H        -0.88783181    -0.01869827     1.88759999     0.00169412     0.00006157    -0.00036392
H        -0.99863913     0.02391819    -0.55763040    -0.00027534    -0.00007049    -0.00089826
     6
  Step:     6            Position(A)                                  Velocity(au)
C        -0.03593937     0.02726434     0.00753536     0.00002695     0.00002333    -0.00029719
N        -0.05194328    -0.06448614     1.30909343    -0.00012940    -0.00002327     0.00030882
H         0.96122106     0.00072307    -0.54813347    -0.00017944     0.00015739    -0.00057271
H         0.84720787    -0.10446734     1.84273210     0.00037198    -0.00012329     0.00103770
H        -0.86980695    -0.01785594     1.88405835     0.00151612     0.00009805    -0.00022594
H        -1.00148448     0.02306010    -0.56802755    -0.00023160    -0.00008680    -0.00098915
     6
  Step:     7            Position(A)                                  Velocity(au)
C        -0.03560942     0.02755964     0.00391716     0.00003275     0.00003020    -0.00035882
N        -0.05321625    -0.06478967     1.31275536    -0.00009641    -0.00003232     0.00035274
H         0.95846964     0.00249031    -0.55452102    -0.00032210     0.00016607    -0.00059346
H         0.85079503    -0.10579751     1.85399089     0.00025907    -0.00011893     0.00099810
H        -0.85466382    -0.01655325     1.88265710     0.00117564     0.00014593     0.00002248
H        -1.00370582     0.02201929    -0.57927004    -0.00016319    -0.00010385    -0.00105317
     6
  Step:     8            Position(A)                                  Velocity(au)
C        -0.03522293     0.02792499    -0.00031442     0.00003701     0.00003612    -0.00040864
N        -0.05405236    -0.06519314     1.31681021    -0.00005175    -0.00004144     0.00038101
H         0.95417459     0.00435620    -0.56111655    -0.00045745     0.00017544    -0.00061242
H         0.85287561    -0.10706910     1.86456754     0.00010489    -0.00011296     0.00091871
H        -0.84408754    -0.01466349     1.88455012     0.00070504     0.00020464     0.00035976
H        -1.00505463     0.02078815    -0.59106760    -0.00007432    -0.00012170    -0.00109134
     6
  Step:     9            Position(A)                                  Velocity(au)
C        -0.03479981     0.02834988    -0.00502259     0.00003916     0.00004109    -0.00044561
N        -0.05434845    -0.06569624     1.32109074    -0.00000083    -0.00005038     0.00039534
H         0.94846214     0.00632834    -0.56791886    -0.00057706     0.00018548    -0.00063285
H         0.85308972    -0.10826876     1.87408952    -0.00007332    -0.00010624     0.00081161
H        -0.83923983    -0.01207646     1.89052762     0.00016490     0.00027162     0.00074279
H        -1.00533177     0.01935689    -0.60314524     0.00003032    -0.00014049    -0.00110537
     6
  Step:    10            Position(A)                                  Velocity(au)
C        -0.03436624     0.02882395    -0.01006299     0.00003866     0.00004514    -0.00046933
N        -0.05407049    -0.06629519     1.32545902     0.00004974    -0.00005876     0.00039889
H         0.94155028     0.00841398    -0.57496141    -0.00067288     0.00019622    -0.00065770
H         0.85127163    -0.10939333     1.88232302    -0.00025772    -0.00009975     0.00068973
H        -0.84047993    -0.00872133     1.90080002    -0.00036722     0.00034250     0.00111485
H        -1.00439133     0.01771464    -0.61524968     0.00014581    -0.00016034    -0.00109742
     6
  Step:    11            Position(A)                                  Velocity(au)
C        -0.03395398     0.02933744    -0.01529011     0.00003509     0.00004833    -0.00047994
N        -0.05326023    -0.06698174     1.32981730     0.00009351    -0.00006619     0.00039522
H         0.93374171     0.01062094    -0.58230740    -0.00073785     0.00020774    -0.00068929
H         0.84745149    -0.11045093     1.88917868    -0.00043073    -0.00009454     0.00056624
H        -0.84727354    -0.00458357     1.91491714    -0.00081618     0.00041200     0.00141994
H        -1.00214179     0.01584908    -0.62715345     0.00026712    -0.00018141    -0.00107004
     6
  Step:    12            Position(A)                                  Velocity(au)
C        -0.03359866     0.02988136    -0.02056254     0.00002820     0.00005075    -0.00047796
N        -0.05202469    -0.06774316     1.33410527     0.00012555    -0.00007229     0.00038715
H         0.92540829     0.01295866    -0.59004094    -0.00076679     0.00022027    -0.00072893
H         0.84184850    -0.11146149     1.89471059    -0.00057575    -0.00009170     0.00045390
H        -0.85833533     0.00029186     1.93186389    -0.00112728     0.00047520     0.00161665
H        -0.99854764     0.01374598    -0.63865877     0.00038903    -0.00020390    -0.00102608
     6
  Step:    13            Position(A)                                  Velocity(au)
C        -0.03333707     0.03044763    -0.02574651     0.00001629     0.00005751    -0.00056339
N        -0.05051353    -0.06856325     1.33828691     0.00014463    -0.00008215     0.00045407
H         0.91696660     0.01543978    -0.59825409    -0.00080365     0.00034437    -0.00068716
H         0.83485582    -0.11245696     1.89910862    -0.00072340    -0.00020660     0.00032912
H        -0.87193488     0.00581231     1.95028440    -0.00124536     0.00064069     0.00164661
H        -0.99363102     0.01138832    -0.64960095     0.00056847    -0.00032214    -0.00088504
     6
  Step:    14            Position(A)                                  Velocity(au)
C        -0.03324226     0.03113942    -0.03288777    -0.00000005     0.00006844    -0.00073971
N        -0.04886073    -0.06954033     1.34403889     0.00014998    -0.00009547     0.00059918
H         0.90782700     0.02049231    -0.60507395    -0.00084397     0.00055971    -0.00056486
H         0.82602273    -0.11598130     1.90191068    -0.00085709    -0.00041574     0.00019694
H        -0.88558002     0.01430809     1.96788655    -0.00117666     0.00087977     0.00150741
H        -0.98611133     0.00669866    -0.65802078     0.00079412    -0.00051268    -0.00065146
     6
  Step:    15            Position(A)                                  Velocity(au)
C        -0.03333816     0.03194495    -0.04192914    -0.00001813     0.00007797    -0.00090347
N        -0.04723247    -0.07065176     1.35139520     0.00014030    -0.00010640     0.00074011
H         0.89850305     0.02768455    -0.61061143    -0.00083030     0.00074595    -0.00045985
H         0.81610524    -0.12155213     1.90341706    -0.00090778    -0.00059316     0.00010449
H        -0.89767650     0.02505889     1.98326182    -0.00097930     0.00106553     0.00125934
H        -0.97625817     0.00017247    -0.66385281     0.00098362    -0.00066882    -0.00042295
     6
  Step:    16            Position(A)                                  Velocity(au)
C        -0.03363883     0.03284512    -0.05265294    -0.00003685     0.00008562    -0.00104389
N        -0.04579132    -0.07186806     1.36023022     0.00011641    -0.00011447     0.00086586
H         0.88966260     0.03681138    -0.61513411    -0.00075164     0.00091841    -0.00038381
H         0.80616340    -0.12895778     1.90419661    -0.00085348    -0.00075748     0.00007132
H        -0.90700413     0.03761860     1.99543693    -0.00068802     0.00121630     0.00093953
H        -0.96459274    -0.00793307    -0.66727356     0.00111464    -0.00080681    -0.00022025
     6
  Step:    17            Position(A)                                  Velocity(au)
C        -0.03414441     0.03381801    -0.06476625    -0.00005473     0.00009125    -0.00115594
N        -0.04468587    -0.07315596     1.37033756     0.00008006    -0.00011944     0.00097093
H         0.88205942     0.04777658    -0.61900798    -0.00060342     0.00108535    -0.00034342
H         0.79743374    -0.13812343     1.90497722    -0.00068555    -0.00091902     0.00010654
H        -0.91272831     0.05166788     2.00381588    -0.00033745     0.00134195     0.00058079
H        -0.95187336    -0.01747795    -0.66867130     0.00116592    -0.00093588    -0.00006206
     6
  Step:    18            Position(A)                                  Velocity(au)
C        -0.03483605     0.03484143    -0.07794134    -0.00006978     0.00009496    -0.00123777
N        -0.04403982    -0.07448103     1.38147123     0.00003420    -0.00012136     0.00105311
H         0.87646160     0.06055543    -0.62264701    -0.00038872     0.00125234    -0.00034023
H         0.79116564    -0.14906311     1.90652739    -0.00041237    -0.00108423     0.00020738
H        -0.91438653     0.06697632     2.00814272     0.00003903     0.00145013     0.00021280
H        -0.93908591    -0.02840719    -0.66863122     0.00111827    -0.00106335     0.00003501
     6
  Step:    19            Position(A)                                  Velocity(au)
C        -0.03567104     0.03589547    -0.09184490    -0.00007979     0.00009705    -0.00128995
N        -0.04393763    -0.07581092     1.39337642    -0.00001684    -0.00012061     0.00111262
H         0.87355540     0.07517384    -0.62645109    -0.00011993     0.00142318    -0.00036999
H         0.78841230    -0.16184302     1.90951412    -0.00006202    -0.00125601     0.00035806
H        -0.91187456     0.08339214     2.00847135     0.00040858     0.00154829    -0.00013690
H        -0.92740898    -0.04074087    -0.66790536     0.00095811    -0.00119582     0.00005871
     6
  Step:    20            Position(A)                                  Velocity(au)
C        -0.03658156     0.03696450    -0.10616156    -0.00008271     0.00009796    -0.00131501
N        -0.04440826    -0.07711963     1.40581186    -0.00006739    -0.00011801     0.00115125
H         0.87383788     0.09169026    -0.63074129     0.00018132     0.00159987    -0.00042306
H         0.78980893    -0.17654080     1.91436071     0.00031969    -0.00143329     0.00053188
H        -0.90544801     0.10084809     2.00514778     0.00073782     0.00164503    -0.00044208
H        -0.91812536    -0.05456799    -0.66734693     0.00068321    -0.00133901     0.00000483
     6
  Step:    21            Position(A)                                  Velocity(au)
C        -0.03748045     0.03803856    -0.12061322    -0.00007738     0.00009820    -0.00131700
N        -0.04541197    -0.07839264     1.41856220    -0.00011101    -0.00011483     0.00117150
H         0.87752210     0.11017397    -0.63570632     0.00048641     0.00178238    -0.00048607
H         0.79540603    -0.19319900     1.92115002     0.00067730    -0.00161105     0.00069712
H        -0.89573342     0.11938030     1.99880007     0.00099266     0.00175102    -0.00067774
H        -0.91246250    -0.07003428    -0.66779976     0.00030827    -0.00149672    -0.00011945
     6
  Step:    22            Position(A)                                  Velocity(au)
C        -0.03827432     0.03911277    -0.13497335    -0.00006407     0.00009812    -0.00130098
N        -0.04683684    -0.07963184     1.43144061    -0.00014154    -0.00011274     0.00117575
H         0.88447893     0.13068317    -0.64137491     0.00076399     0.00196853    -0.00054462
H         0.80462627    -0.21178562     1.92961159     0.00095778    -0.00178115     0.00082480
H        -0.88373172     0.13915497     1.99032096     0.00114075     0.00187914    -0.00082183
H        -0.91138130    -0.08731163    -0.66996007    -0.00013229    -0.00166910    -0.00029443
     6
  Step:    23            Position(A)                                  Velocity(au)
C        -0.03888200     0.04018512    -0.14907469    -0.00004464     0.00009782    -0.00127231
N        -0.04850837    -0.08085896     1.44428406    -0.00015434    -0.00011353     0.00116591
H         0.89423576     0.15323932    -0.64762099     0.00098525     0.00215411    -0.00058620
H         0.81635924    -0.23216511     1.93919404     0.00112162    -0.00193399     0.00089509
H        -0.87077730     0.16049003     1.98082094     0.00115742     0.00204328    -0.00085913
H        -0.91535665    -0.10654909    -0.67424094    -0.00058761    -0.00185142    -0.00049068
     6
  Step:    24            Position(A)                                  Velocity(au)
C        -0.03925099     0.04125286    -0.16280753    -0.00002211     0.00009707    -0.00123575
N        -0.05021329    -0.08211555     1.45694704    -0.00014744    -0.00011879     0.00114345
H         0.90603311     0.17780838    -0.65419906     0.00112831     0.00233361    -0.00060221
H         0.82916390    -0.25409537     1.94919332     0.00114938    -0.00206069     0.00090017
H        -0.85841084     0.18385569     1.97152586     0.00103479     0.00225523    -0.00078679
H        -0.92423642    -0.12781496    -0.68069467    -0.00100019    -0.00203410    -0.00067571
     6
  Step:    25            Position(A)                                  Velocity(au)
C        -0.03936564     0.04230881    -0.17610905     0.00000030     0.00009538    -0.00119490
N        -0.05173394    -0.08345782     1.46929925    -0.00012221    -0.00012938     0.00111001
H         0.91891965     0.20429148    -0.66079550     0.00118069     0.00250118    -0.00058892
H         0.84150419    -0.27724672     1.95888703     0.00104188    -0.00215478     0.00084320
H        -0.84813918     0.20982761     1.96360847     0.00079086     0.00251956    -0.00061918
H        -0.93723763    -0.15104888    -0.68902342    -0.00131870    -0.00220451    -0.00082175
     6
  Step:    26            Position(A)                                  Velocity(au)
C        -0.03924450     0.04333939    -0.18894816     0.00001996     0.00009216    -0.00115194
N        -0.05288690    -0.08494607     1.48123066    -0.00008331    -0.00014500     0.00106782
H         0.93186286     0.23252651    -0.66708271     0.00113937     0.00265148    -0.00054697
H         0.85195701    -0.30123531     1.96764004     0.00081589    -0.00221298     0.00073493
H        -0.84110935     0.23897585     1.95798021     0.00047316     0.00282816    -0.00038866
H        -0.95308550    -0.17604280    -0.69867209    -0.00150860    -0.00234988    -0.00091149
     6
  Step:    27            Position(A)                                  Velocity(au)
C        -0.03892906     0.04432507    -0.20130991     0.00003537     0.00008699    -0.00110773
N        -0.05355644    -0.08663005     1.49265981    -0.00003776    -0.00016402     0.00101964
H         0.94384548     0.26229758    -0.67276153     0.00100911     0.00278023    -0.00048026
H         0.85935339    -0.32565979     1.97496497     0.00049822    -0.00223524     0.00058996
H        -0.83778783     0.27169913     1.95510584     0.00015197     0.00315776    -0.00013977
H        -0.97024108    -0.20245711    -0.70896393    -0.00155614    -0.00246003    -0.00093950
     6
  Step:    28            Position(A)                                  Velocity(au)
C        -0.03847071     0.04524253    -0.21318183     0.00004612     0.00007964    -0.00106208
N        -0.05371289    -0.08853441     1.50353734     0.00000668    -0.00018374     0.00096819
H         0.95393913     0.29334930    -0.67758942     0.00080011     0.00288454    -0.00039458
H         0.86285650    -0.35013549     1.98054656     0.00012045    -0.00222440     0.00042403
H        -0.83778481     0.30805784     1.95492250    -0.00009704     0.00347301     0.00008206
H        -0.98712899    -0.22986076    -0.71922538    -0.00146585    -0.00252879    -0.00090999
     6
  Step:    29            Position(A)                                  Velocity(au)
C        -0.03792018     0.04606730    -0.22454486     0.00005253     0.00007010    -0.00101418
N        -0.05341041    -0.09064975     1.51384077     0.00004320    -0.00020103     0.00091534
H         0.96134942     0.32540237    -0.68139379     0.00052565     0.00296279    -0.00029643
H         0.86198842    -0.37432272     1.98424138    -0.00028465    -0.00218567     0.00025238
H        -0.83991079     0.34767787     1.95690104    -0.00021288     0.00373515     0.00024209
H        -1.00230926    -0.25777921    -0.72887176    -0.00125453    -0.00255402    -0.00083297
     6
  Step:    30            Position(A)                                  Velocity(au)
C        -0.03732146     0.04677614    -0.23536891     0.00005532     0.00005855    -0.00096296
N        -0.05276771    -0.09293234     1.52356226     0.00006716    -0.00021308     0.00086177
H         0.96543862     0.35816600    -0.68407437     0.00020043     0.00301470    -0.00019231
H         0.85662931    -0.39795114     1.98606788    -0.00068486    -0.00212636     0.00008930
H        -0.84244202     0.38977135     1.96021867    -0.00016311     0.00391188     0.00032290
H        -1.01457416    -0.28573489    -0.73744808    -0.00094491    -0.00253692    -0.00072060
     6
  Step:    31            Position(A)                                  Velocity(au)
C        -0.03670997     0.04734827    -0.24561148     0.00005524     0.00004525    -0.00090734
N        -0.05194125    -0.09531127     1.53269361     0.00007617    -0.00021789     0.00080692
H         0.96573410     0.39135468    -0.68560088    -0.00016060     0.00304114    -0.00008827
H         0.84700585    -0.42084095     1.98619503    -0.00104950    -0.00205567    -0.00005204
H        -0.84347916     0.43325764     1.96396504     0.00005422     0.00398404     0.00032396
H        -1.02298091    -0.31327929    -0.74463625    -0.00056094    -0.00248090    -0.00058486
     6
  Step:    32            Position(A)                                  Velocity(au)
C        -0.03611300     0.04776614    -0.25521876     0.00005297     0.00003050    -0.00084636
N        -0.05110127    -0.09769908     1.54121507     0.00006975    -0.00021439     0.00074946
H         0.96192524     0.42469682    -0.68600540    -0.00054286     0.00304385     0.00001033
H         0.83366949    -0.44292281     1.98492948    -0.00135041    -0.00198438    -0.00015981
H        -0.84125576     0.47692990     1.96730587     0.00041818     0.00394691     0.00025642
H        -1.02684587    -0.34000938    -0.75024305    -0.00012544    -0.00239064    -0.00043642
     6
  Step:    33            Position(A)                                  Velocity(au)
C        -0.03555115     0.04801552    -0.26412725     0.00004906     0.00001460    -0.00077921
N        -0.05041532    -0.10000139     1.54908955     0.00004858    -0.00020227     0.00068782
H         0.95385804     0.45794483    -0.68537498    -0.00093239     0.00302546     0.00009878
H         0.81746307    -0.46425298     1.98269878    -0.00156364    -0.00192411    -0.00022426
H        -0.83433061     0.51960386     1.96957468     0.00089560     0.00380722     0.00013689
H        -1.02572518    -0.36557912    -0.75418375     0.00034074    -0.00227170    -0.00028445
     6
  Step:    34            Position(A)                                  Velocity(au)
C        -0.03503980     0.04808547    -0.27226551     0.00004395    -0.00000216    -0.00070524
N        -0.05003847    -0.10212411     1.55626247     0.00001413    -0.00018182     0.00062058
H         0.94152740     0.49088447    -0.68384430    -0.00131599     0.00298940     0.00017308
H         0.79946177    -0.48501636     1.98002334    -0.00167252    -0.00188574    -0.00023905
H        -0.82166283     0.56022015     1.97030053     0.00144996     0.00357902    -0.00001722
H        -1.01939161    -0.38970716    -0.75646586     0.00081846    -0.00213041    -0.00013690
     6
  Step:    35            Position(A)                                  Velocity(au)
C        -0.03458972     0.04796835    -0.27955565     0.00003807    -0.00001944    -0.00062390
N        -0.05010615    -0.10397898     1.56266588    -0.00003146    -0.00015383     0.00054682
H         0.92506816     0.52334371    -0.68158855    -0.00168135     0.00293992     0.00022983
H         0.78087339    -0.50550705     1.97746915    -0.00167135    -0.00187693    -0.00020306
H        -0.80261002     0.59790178     1.96919804     0.00204655     0.00328032    -0.00019005
H        -1.00781988    -0.41218597    -0.75717878     0.00128964    -0.00197403    -0.00000101
     6
  Step:    36            Position(A)                                  Velocity(au)
C        -0.03420702     0.04766018    -0.28591454     0.00003189    -0.00003689    -0.00053477
N        -0.05072665    -0.10548938     1.56822515    -0.00008527    -0.00011973     0.00046629
H         0.90474459     0.55520078    -0.67881642    -0.00201728     0.00288188     0.00026631
H         0.76289778    -0.52607786     1.97558092    -0.00156870    -0.00189918    -0.00012204
H        -0.77689055     0.63198349     1.96614286     0.00265429     0.00293152    -0.00036789
H        -0.99117822    -0.43289278    -0.75648786     0.00173667    -0.00181095     0.00011637
     6
  Step:    37            Position(A)                                  Velocity(au)
C        -0.03389214     0.04716140    -0.29125483     0.00002601    -0.00005403    -0.00043751
N        -0.05197167    -0.10659820     1.57286677    -0.00014356    -0.00008173     0.00037940
H         0.88093631     0.58639034    -0.67576253    -0.00231404     0.00282060     0.00028055
H         0.74655515    -0.54705526     1.97479921    -0.00138824    -0.00194535    -0.00000910
H        -0.74454229     0.66203439     1.96114984     0.00324548     0.00255538    -0.00053860
H        -0.96982695    -0.45180393    -0.75463304     0.00214182    -0.00165105     0.00020829
     6
  Step:    38            Position(A)                                  Velocity(au)
C        -0.03363807     0.04647819    -0.29548589     0.00002124    -0.00007025    -0.00033185
N        -0.05386731    -0.10727743     1.57652527    -0.00020191    -0.00004296     0.00028710
H         0.85412050     0.61690677    -0.67267886    -0.00256386     0.00276140     0.00027145
H         0.73252736    -0.56863605     1.97538184    -0.00116548    -0.00199929     0.00011665
H        -0.70588941     0.68788733     1.95435991     0.00379509     0.00217798    -0.00069083
H        -0.94432170    -0.46901267    -0.75193113     0.00248690    -0.00150604     0.00026745
     6
  Step:    39            Position(A)                                  Velocity(au)
C        -0.03342751     0.04562462    -0.29851470     0.00001864    -0.00008469    -0.00021766
N        -0.05638876    -0.10753804     1.57914767    -0.00025575    -0.00000730     0.00019058
H         0.82484691     0.64680118    -0.66982403    -0.00276173     0.00270890     0.00023911
H         0.72105804    -0.59079350     1.97735118    -0.00094058    -0.00203831     0.00023334
H        -0.66151750     0.70968189     1.94603665     0.00428054     0.00182955    -0.00081335
H        -0.91542120    -0.48475151    -0.74878210     0.00275357    -0.00138949     0.00028614
     6
  Step:    40            Position(A)                                  Velocity(au)
C        -0.03323026     0.04462534    -0.30024758     0.00001944    -0.00009631    -0.00009500
N        -0.05946227    -0.10743712     1.58069468    -0.00030111     0.00002100     0.00009102
H         0.79370243     0.67616911    -0.66744793    -0.00290585     0.00266601     0.00018504
H         0.71195027    -0.61322803     1.98048659    -0.00074946    -0.00203816     0.00032057
H        -0.61224446     0.72791215     1.93656631     0.00468304     0.00154390    -0.00089518
H        -0.88408209    -0.49941032    -0.74567133     0.00292497    -0.00131596     0.00025684
     6
  Step:    41            Position(A)                                  Velocity(au)
C        -0.03300221     0.04351771    -0.30059301     0.00002480    -0.00010389     0.00003568
N        -0.06297621    -0.10707866     1.58113883    -0.00033537     0.00003800    -0.00001061
H         0.76127589     0.70512529    -0.66577596    -0.00299786     0.00263297     0.00011244
H         0.70466218    -0.63538220     1.98436415    -0.00061642    -0.00197874     0.00036308
H        -0.55906700     0.74345766     1.92645297     0.00499048     0.00135487    -0.00092677
H        -0.85143179    -0.51354073    -0.74316312     0.00298865    -0.00129918     0.00017358
     6
  Step:    42            Position(A)                                  Velocity(au)
C        -0.03268771     0.04235248    -0.29946707     0.00003544    -0.00010636     0.00017325
N        -0.06679910    -0.10660581     1.58046259    -0.00035769     0.00004096    -0.00011337
H         0.72811841     0.73377039    -0.66498818    -0.00304273     0.00260655     0.00002648
H         0.69846496    -0.65651677     1.98842976    -0.00055093    -0.00184856     0.00035280
H        -0.50306823     0.75755261     1.91629142     0.00520106     0.00128854    -0.00090261
H        -0.81869955    -0.52783230    -0.74187386     0.00294089    -0.00134842     0.00003428
     6
  Step:    43            Position(A)                                  Velocity(au)
C        -0.03222693     0.04119095    -0.29680276     0.00005117    -0.00010308     0.00031559
N        -0.07080140    -0.10618252     1.57865869    -0.00036916     0.00002930    -0.00021611
H         0.69471038     0.76214846    -0.66519670    -0.00304783     0.00257983    -0.00006561
H         0.69260963    -0.67582308     1.99208231    -0.00054874    -0.00164677     0.00028883
H        -0.44528390     0.77164695     1.90670655     0.00532560     0.00135209    -0.00082437
H        -0.78709412    -0.54303995    -0.74241308     0.00279111    -0.00146401    -0.00015619
     6
  Step:    44            Position(A)                                  Velocity(au)
C        -0.03156821     0.04009735    -0.29256293     0.00007060    -0.00009434     0.00045928
N        -0.07487512    -0.10596480     1.57573466    -0.00037224     0.00000532    -0.00031715
H         0.66144126     0.79020917    -0.66642359    -0.00302162     0.00254309    -0.00015474
H         0.68646019    -0.69254291     1.99474855    -0.00059623    -0.00138267     0.00017623
H        -0.38656051     0.78713222     1.89825674     0.00538554     0.00152338    -0.00070327
H        -0.75763862    -0.55986038    -0.74529075     0.00256381    -0.00163367    -0.00038369
     6