     6
  Step:     0            Position(A)                                  Velocity(au)
C        -0.03897296     0.02567369     0.00912648     0.00008983    -0.00010742    -0.00020813
N        -0.03747699    -0.06527098     1.30971859    -0.00018869     0.00009423     0.00013113
H         0.91311809    -0.03025655    -0.55303674    -0.00091565     0.00054542     0.00050583
H         0.83881160    -0.09972919     1.85321537     0.00189121    -0.00055196     0.00088449
H        -0.98981233     0.03428161     1.79107325     0.00072330    -0.00030597    -0.00096318
H        -0.98985773     0.02702565    -0.50827289    -0.00014726     0.00028311     0.00023077
     6
  Step:     1            Position(A)                                  Velocity(au)
C        -0.03846732     0.02509814     0.00791591     0.00009458    -0.00010312    -0.00023319
N        -0.03853471    -0.06476451     1.31052728    -0.00019573     0.00009089     0.00016428
H         0.90817561    -0.02727871    -0.55044644    -0.00088267     0.00054320     0.00043528
H         0.84909194    -0.10273016     1.85816833     0.00184489    -0.00054451     0.00091211
H        -0.98542935     0.03260286     1.78577268     0.00086732    -0.00030658    -0.00096651
H        -0.99090581     0.02854789    -0.50732796    -0.00023668     0.00027361     0.00011499
     6
  Step:     2            Position(A)                                  Velocity(au)
C        -0.03793814     0.02454550     0.00657511     0.00009826    -0.00009896    -0.00025542
N        -0.03961853    -0.06427655     1.31151600    -0.00019806     0.00008737     0.00019647
H         0.90346078    -0.02431332    -0.54827426    -0.00083173     0.00054041     0.00035271
H         0.85899667    -0.10568673     1.86319488     0.00175439    -0.00053517     0.00091189
H        -0.98032286     0.03092732     1.78049854     0.00098488    -0.00030434    -0.00095171
H        -0.99244729     0.03001922    -0.50701480    -0.00032616     0.00026422     0.00000054
     6
  Step:     3            Position(A)                                  Velocity(au)
C        -0.03739177     0.02401491     0.00511995     0.00010070    -0.00009498    -0.00027467
N        -0.04070273    -0.06380814     1.31267795    -0.00019574     0.00008366     0.00022709
H         0.89907117    -0.02136320    -0.54658550    -0.00076347     0.00053719     0.00025864
H         0.86829614    -0.10858829     1.86815020     0.00162468    -0.00052391     0.00088682
H        -0.97464854     0.02927139     1.77535489     0.00107196    -0.00029899    -0.00091719
H        -0.99447603     0.03144017    -0.50732208    -0.00041319     0.00025493    -0.00011093
     6
  Step:     4            Position(A)                                  Velocity(au)
C        -0.03683531     0.02350535     0.00356705     0.00010181    -0.00009121    -0.00029085
N        -0.04176214    -0.06336034     1.31400296    -0.00018891     0.00007977     0.00025555
H         0.89509961    -0.01843026    -0.54544173    -0.00067909     0.00053375     0.00015396
H         0.87678935    -0.11142434     1.87290688     0.00146122    -0.00051083     0.00084021
H        -0.96858329     0.02765295     1.77045391     0.00112512    -0.00029029    -0.00086175
H        -0.99697235     0.03281109    -0.50822963    -0.00049540     0.00024571    -0.00021788
     6
  Step:     5            Position(A)                                  Velocity(au)
C        -0.03627632     0.02301563     0.00193332     0.00010153    -0.00008767    -0.00030396
N        -0.04277244    -0.06293416     1.31547788    -0.00017777     0.00007571     0.00028139
H         0.89163086    -0.01551529    -0.54489869    -0.00058037     0.00053032     0.00003989
H         0.88430570    -0.11418509     1.87735583     0.00126968    -0.00049610     0.00077551
H        -0.96232135     0.02609086     1.76591332     0.00114178    -0.00027814    -0.00078470
H        -0.99990376     0.03413221    -0.50970921    -0.00057060     0.00023653    -0.00031897
     6
  Step:     6            Position(A)                                  Velocity(au)
C        -0.03572255     0.02254443     0.00023550     0.00009985    -0.00008440    -0.00031408
N        -0.04371056    -0.06253050     1.31708715    -0.00016259     0.00007151     0.00030423
H         0.88873857    -0.01261778    -0.54500454    -0.00046959     0.00052714    -0.00008204
H         0.89070550    -0.11686184     1.88140674     0.00105559    -0.00047997     0.00069607
H        -0.95606894     0.02460442     1.76185329     0.00112038    -0.00026252    -0.00068594
H        -1.00322633     0.03540356    -0.51172565    -0.00063689     0.00022737    -0.00041310
     6
  Step:     7            Position(A)                                  Velocity(au)
C        -0.03518164     0.02209026    -0.00151017     0.00009683    -0.00008142    -0.00032135
N        -0.04455497    -0.06215013     1.31881334    -0.00014367     0.00006720     0.00032379
H         0.88648242    -0.00973592    -0.54579816    -0.00034952     0.00052446    -0.00021003
H         0.89587887    -0.11944734     1.88498735     0.00082421    -0.00046271     0.00060511
H        -0.95003791     0.02321273     1.75839296     0.00106066    -0.00024351    -0.00056602
H        -1.00688637     0.03662507    -0.51423824    -0.00069269     0.00021821    -0.00049940
     6
  Step:     8            Position(A)                                  Velocity(au)
C        -0.03466074     0.02165156    -0.00328837     0.00009258    -0.00007874    -0.00032594
N        -0.04528609    -0.06179362     1.32063786    -0.00012143     0.00006280     0.00033994
H         0.88490570    -0.00686655    -0.54730768    -0.00022328     0.00052251    -0.00034204
H         0.89974379    -0.12193589     1.88804240     0.00058037    -0.00044460     0.00050560
H        -0.94443779     0.02193406     1.75564638     0.00096386    -0.00022135    -0.00042624
H        -1.01082236     0.03779646    -0.51720212    -0.00073678     0.00020901    -0.00057730
     6
  Step:     9            Position(A)                                  Velocity(au)
C        -0.03416630     0.02122667    -0.00508491     0.00008725    -0.00007637    -0.00032809
N        -0.04588673    -0.06146132     1.32254163    -0.00009633     0.00005838     0.00035263
H         0.88403357    -0.00400536    -0.54954948    -0.00009423     0.00052146    -0.00047591
H         0.90224405    -0.12432345     1.89053243     0.00032854    -0.00042594     0.00040027
H        -0.93946686     0.02078507     1.75371821     0.00083282    -0.00019638    -0.00026868
H        -1.01496693     0.03891734    -0.52056973    -0.00076826     0.00019972    -0.00064641
     6
  Step:    10            Position(A)                                  Velocity(au)
C        -0.03370382     0.02081391    -0.00688687     0.00008101    -0.00007431    -0.00032802
N        -0.04634260    -0.06115335     1.32450556    -0.00006893     0.00005396     0.00036190
H         0.88387214    -0.00114709    -0.55252750     0.00003416     0.00052146    -0.00060935
H         0.90334726    -0.12660766     1.89243258     0.00007285    -0.00040702     0.00029167
H        -0.93530337     0.01978019     1.75269943     0.00067197    -0.00016904    -0.00009619
H        -1.01924875     0.03998706    -0.52429205    -0.00078656     0.00019032    -0.00070657
     6
  Step:    11            Position(A)                                  Velocity(au)
C        -0.03327775     0.02041160    -0.00868268     0.00007407    -0.00007255    -0.00032596
N        -0.04664275    -0.06086950     1.32651110    -0.00003989     0.00004960     0.00036788
H         0.88440827     0.00171412    -0.55623296     0.00015845     0.00052255    -0.00074002
H         0.90304311    -0.12878775     1.89373156    -0.00018277    -0.00038811     0.00018220
H        -0.93209653     0.01893094     1.75266311     0.00048731    -0.00013993     0.00008763
H        -1.02359415     0.04100479    -0.52831964    -0.00079133     0.00018074    -0.00075774
     6
  Step:    12            Position(A)                                  Velocity(au)
C        -0.03289142     0.02001815    -0.01046209     0.00006661    -0.00007107    -0.00032213
N        -0.04678013    -0.06060928     1.32854053    -0.00000996     0.00004537     0.00037071
H         0.88561005     0.00458436    -0.56064431     0.00027531     0.00052471    -0.00086561
H         0.90134254    -0.13086456     1.89443099    -0.00043446    -0.00036949     0.00007419
H        -0.92995843     0.01824541     1.75366057     0.00028618    -0.00010968     0.00027852
H        -1.02792832     0.04196942    -0.53260319    -0.00078244     0.00017092    -0.00079996
     6
  Step:    13            Position(A)                                  Velocity(au)
C        -0.03254709     0.01963208    -0.01221604     0.00005884    -0.00006984    -0.00031673
N        -0.04675203    -0.06037189     1.33057722     0.00002003     0.00004131     0.00037058
H         0.88742805     0.00746948    -0.56572751     0.00038168     0.00052786    -0.00098383
H         0.89827771    -0.13284052     1.89454527    -0.00067821    -0.00035144    -0.00003001
H        -0.92895755     0.01772787     1.75571812     0.00007693    -0.00007903     0.00047169
H        -1.03217639     0.04287952    -0.53709405    -0.00075994     0.00016080    -0.00083332
     6
  Step:    14            Position(A)                                  Velocity(au)
C        -0.03224595     0.01925205    -0.01393649     0.00005093    -0.00006883    -0.00030990
N        -0.04656046    -0.06015614     1.33260562     0.00004918     0.00003749     0.00036767
H         0.88979690     0.01037472    -0.57143649     0.00047482     0.00053177    -0.00109249
H         0.89390286    -0.13471970     1.89410184    -0.00090976    -0.00033427    -0.00012791
H        -0.92911448     0.01737853     1.75883484    -0.00013140    -0.00004869     0.00066197
H        -1.03626449     0.04373336    -0.54174442    -0.00072409     0.00015036    -0.00085798
     6
  Step:    15            Position(A)                                  Velocity(au)
C        -0.03198825     0.01887694    -0.01561624     0.00004305    -0.00006798    -0.00030178
N        -0.04621246    -0.05996055     1.33461122     0.00007658     0.00003397     0.00036215
H         0.89263760     0.01330396    -0.57771403     0.00055243     0.00053621    -0.00118956
H         0.88829606    -0.13650804     1.89314182    -0.00112449    -0.00031831    -0.00021691
H        -0.93039919     0.01719367     1.76298109    -0.00032981    -0.00001941     0.00084411
H        -1.04012089     0.04452921    -0.54650754    -0.00067533     0.00013953    -0.00087407
     6
  Step:    16            Position(A)                                  Velocity(au)
C        -0.03177347     0.01850589    -0.01724871     0.00003532    -0.00006727    -0.00029247
N        -0.04571999    -0.05978326     1.33658037     0.00010132     0.00003082     0.00035414
H         0.89586004     0.01625987    -0.58449240     0.00061273     0.00054089    -0.00127318
H         0.88156102    -0.13821330     1.89172110    -0.00131746    -0.00030392    -0.00029421
H        -0.93273427     0.01716553     1.76809933    -0.00050987     0.00000812     0.00101305
H        -1.04367654     0.04526473    -0.55133775    -0.00061427     0.00012823    -0.00088179
     6
  Step:    17            Position(A)                                  Velocity(au)
C        -0.03160043     0.01813825    -0.01882786     0.00002785    -0.00006664    -0.00028205
N        -0.04509990    -0.05962210     1.33850004     0.00012254     0.00002809     0.00034375
H         0.89936593     0.01924342    -0.59169483     0.00065448     0.00054547    -0.00134183
H         0.87382903    -0.13984539     1.88991112    -0.00148345    -0.00029152    -0.00035688
H        -0.93599802     0.01728288     1.77410539    -0.00066407     0.00003331     0.00116415
H        -1.04686612     0.04593730    -0.55619044    -0.00054172     0.00011644    -0.00088135
     6
  Step:    18            Position(A)                                  Velocity(au)
C        -0.03146746     0.01777366    -0.02034802     0.00002073    -0.00006604    -0.00027060
N        -0.04437351    -0.05947458     1.34035765     0.00013947     0.00002584     0.00033105
H         0.90305173     0.02225373    -0.59923696     0.00067705     0.00054964    -0.00139431
H         0.86526033    -0.14141668     1.88779957    -0.00161717    -0.00028159    -0.00040197
H        -0.94003129     0.01753156     1.78089149    -0.00078639     0.00005567     0.00129348
H        -1.04962915     0.04654417    -0.56102239    -0.00045875     0.00010413    -0.00087307
     6
  Step:    19            Position(A)                                  Velocity(au)
C        -0.03137245     0.01741200    -0.02180387     0.00001403    -0.00006543    -0.00025821
N        -0.04356605    -0.05933792     1.34214084     0.00015150     0.00002411     0.00031611
H         0.90681192     0.02528812    -0.60702888     0.00068045     0.00055309    -0.00142987
H         0.85604406    -0.14294226     1.88549038    -0.00171365    -0.00027464    -0.00042669
H        -0.94464648     0.01789516     1.78833064    -0.00087266     0.00007488     0.00139808
H        -1.05191126     0.04708250    -0.56579210    -0.00036667     0.00009133    -0.00085736
     6
  Step:    20            Position(A)                                  Velocity(au)
C        -0.03131302     0.01705335    -0.02319051     0.00000572    -0.00006296    -0.00028655
N        -0.04270576    -0.05920913     1.34383748     0.00015834     0.00002116     0.00033020
H         0.91054244     0.02834231    -0.61497756     0.00064991     0.00061433    -0.00140636
H         0.84639579    -0.14444002     1.88310243    -0.00178585    -0.00033223    -0.00043731
H        -0.94963791     0.01835588     1.79628213    -0.00090024     0.00015745     0.00147323
H        -1.05366555     0.04754954    -0.57046050    -0.00023237     0.00001671    -0.00080364
     6
  Step:    21            Position(A)                                  Velocity(au)
C        -0.03130946     0.01671816    -0.02496177    -0.00000403    -0.00005834    -0.00035971
N        -0.04182104    -0.05910477     1.34577986     0.00015956     0.00001691     0.00037699
H         0.91397436     0.03205843    -0.62252779     0.00058544     0.00072118    -0.00132230
H         0.83636295    -0.14660367     1.88067091    -0.00183100    -0.00044275    -0.00043501
H        -0.95456764     0.01963039     1.80456657    -0.00086692     0.00028956     0.00151516
H        -1.05447213     0.04726665    -0.57464864    -0.00005691    -0.00010772    -0.00071023
     6
  Step:    22            Position(A)                                  Velocity(au)
C        -0.03135748     0.01640957    -0.02715977    -0.00001289    -0.00005335    -0.00043632
N        -0.04094507    -0.05902256     1.34799738     0.00015475     0.00001323     0.00042555
H         0.91700259     0.03630024    -0.62956868     0.00050451     0.00080819    -0.00122089
H         0.82619140    -0.14932564     1.87830230    -0.00182803    -0.00053935    -0.00041048
H        -0.95920401     0.02155110     1.81300129    -0.00079483     0.00039733     0.00152618
H        -1.05429349     0.04636093    -0.57829765     0.00012132    -0.00021418    -0.00060912
     6
  Step:    23            Position(A)                                  Velocity(au)
C        -0.03145186     0.01612856    -0.02978339    -0.00002072    -0.00004827    -0.00051087
N        -0.04011092    -0.05895861     1.35048243     0.00014407     0.00001031     0.00047124
H         0.91954946     0.04098947    -0.63601943     0.00041154     0.00088203    -0.00110668
H         0.81616202    -0.15256379     1.87613489    -0.00177279    -0.00062970    -0.00035999
H        -0.96335105     0.02402119     1.82143186    -0.00069022     0.00048908     0.00151056
H        -1.05313147     0.04489981    -0.58137981     0.00029626    -0.00030951    -0.00050484
     6
  Step:    24            Position(A)                                  Velocity(au)
C        -0.03158685     0.01587533    -0.03281425    -0.00002745    -0.00004320    -0.00058078
N        -0.03935044    -0.05890844     1.35321324     0.00012788     0.00000824     0.00051203
H         0.92155770     0.04606292    -0.64181781     0.00031023     0.00094474    -0.00098301
H         0.80656946    -0.15629537     1.87431780    -0.00166465    -0.00071643    -0.00028275
H        -0.96684361     0.02696443     1.82972082    -0.00055899     0.00056767     0.00147155
H        -1.05101441     0.04293520    -0.58388543     0.00046338    -0.00039569    -0.00040048
     6
  Step:    25            Position(A)                                  Velocity(au)
C        -0.03175624     0.01564955    -0.03622276    -0.00003300    -0.00003824    -0.00064436
N        -0.03869305    -0.05886721     1.35615954     0.00010678     0.00000706     0.00054673
H         0.92298911     0.05146423    -0.64691859     0.00020399     0.00099742    -0.00085310
H         0.79770524    -0.16050717     1.87299995    -0.00150610    -0.00080085    -0.00017989
H        -0.96954882     0.03031519     1.83774761    -0.00040730     0.00063472     0.00141252
H        -1.04799376     0.04051257    -0.58582017     0.00061875    -0.00047370    -0.00029878
     6
  Step:    26            Position(A)                                  Velocity(au)
C        -0.03195344     0.01545054    -0.03997132    -0.00003733    -0.00003346    -0.00070047
N        -0.03816440    -0.05882998     1.35928587     0.00008160     0.00000677     0.00057472
H         0.92382348     0.05714154    -0.65129336     0.00009607     0.00104098    -0.00072004
H         0.78984079    -0.16519065     1.87231967    -0.00130274    -0.00088365    -0.00005443
H        -0.97136755     0.03401445     1.84541008    -0.00024147     0.00069149     0.00133719
H        -1.04414176     0.03767366    -0.58720403     0.00075892    -0.00054418    -0.00020225
     6
  Step:    27            Position(A)                                  Velocity(au)
C        -0.03217157     0.01527728    -0.04401685    -0.00004039    -0.00002890    -0.00074847
N        -0.03778509    -0.05879191     1.36255433     0.00005337     0.00000731     0.00059588
H         0.92405806     0.06304712    -0.65493034    -0.00001052     0.00107637    -0.00058684
H         0.78320982    -0.17033938     1.87239427    -0.00106306    -0.00096509     0.00008894
H        -0.97223560     0.03800933     1.85262637    -0.00006776     0.00073920     0.00124950
H        -1.03954940     0.03445759    -0.58807059     0.00088093    -0.00060769    -0.00011321
     6
  Step:    28            Position(A)                                  Velocity(au)
C        -0.03240358     0.01512849    -0.04831329    -0.00004218    -0.00002460    -0.00078816
N        -0.03756961    -0.05874853     1.36592708     0.00002324     0.00000860     0.00061052
H         0.92370624     0.06913802    -0.65783386    -0.00011310     0.00110469    -0.00045628
H         0.77799271    -0.17594689     1.87331097    -0.00079784    -0.00104518     0.00024423
H        -0.97212279     0.04225307     1.85933619     0.00010795     0.00077914     0.00115351
H        -1.03432348     0.03090074    -0.58846581     0.00098253    -0.00066492    -0.00003367
     6
  Step:    29            Position(A)                                  Velocity(au)
C        -0.03264233     0.01500266    -0.05281391    -0.00004271    -0.00002061    -0.00081977
N        -0.03752567    -0.05869596     1.36936866    -0.00000756     0.00001051     0.00061935
H         0.92279575     0.07537711    -0.66002314    -0.00020940     0.00112725    -0.00033081
H         0.77430479    -0.18200509     1.87512027    -0.00051928    -0.00112368     0.00040465
H        -0.97103071     0.04670571     1.86550121     0.00028044     0.00081274     0.00105318
H        -1.02858298     0.02703609    -0.58844642     0.00106210    -0.00071669     0.00003471
     6
  Step:    30            Position(A)                                  Velocity(au)
C        -0.03288081     0.01489815    -0.05747359    -0.00004201    -0.00001694    -0.00084386
N        -0.03765404    -0.05863111     1.37284786    -0.00003784     0.00001289     0.00062332
H         0.92136640     0.08173424    -0.66153043    -0.00029761     0.00114552    -0.00021243
H         0.77219009    -0.18850315     1.87783260    -0.00023994    -0.00120023     0.00056323
H        -0.96898907     0.05133486     1.87110468     0.00044527     0.00084155     0.00095226
H        -1.02245536     0.02289223    -0.58807799     0.00111869    -0.00076401     0.00009063
     6
  Step:    31            Position(A)                                  Velocity(au)
C        -0.03311215     0.01481321    -0.06225059    -0.00004014    -0.00001359    -0.00086124
N        -0.03794882    -0.05855185     1.37633905    -0.00006653     0.00001556     0.00062351
H         0.91946764     0.08818721    -0.66239869    -0.00037638     0.00116104    -0.00010267
H         0.77162158    -0.19542692     1.88141870     0.00002837    -0.00127436     0.00071345
H        -0.96605140     0.05611651     1.87615006     0.00059883     0.00086717     0.00085408
H        -1.01607300     0.01849235    -0.58743289     0.00115189    -0.00080801     0.00013320
     6
  Step:    32            Position(A)                                  Velocity(au)
C        -0.03332980     0.01474607    -0.06710778    -0.00003714    -0.00001056    -0.00087278
N        -0.03839826    -0.05845709     1.37982272    -0.00009270     0.00001834     0.00062100
H         0.91715610     0.09472220    -0.66267896    -0.00044469     0.00117531    -0.00000260
H         0.77250743    -0.20275876     1.88581358     0.00027537    -0.00134554     0.00084968
H        -0.96229027     0.06103540     1.88065883     0.00073831     0.00089120     0.00076150
H        -1.00956975     0.01385344    -0.58658791     0.00116173    -0.00084988     0.00016187
     6
  Step:    33            Position(A)                                  Velocity(au)
C        -0.03352757     0.01469505    -0.07201299    -0.00003308    -0.00000783    -0.00087929
N        -0.03898573    -0.05834675     1.38328522    -0.00011562     0.00002105     0.00061671
H         0.91449358     0.10133355    -0.66242782    -0.00050180     0.00118961     0.00008708
H         0.77470177    -0.21047744     1.89092276     0.00049285    -0.00141310     0.00096740
H        -0.95779307     0.06608494     1.88466775     0.00086144     0.00091507     0.00067682
H        -1.00307855     0.00898607    -0.58562228     0.00114836    -0.00089073     0.00017636
     6
  Step:    34            Position(A)                                  Velocity(au)
C        -0.03369970     0.01465852    -0.07693870    -0.00002804    -0.00000537    -0.00088143
N        -0.03969091    -0.05822177     1.38671788    -0.00013471     0.00002351     0.00061135
H         0.91154571     0.10802265    -0.66170534    -0.00054708     0.00120498     0.00016597
H         0.77801769    -0.21855791     1.89662955     0.00067470    -0.00147623     0.00106324
H        -0.95265891     0.07126631     1.88822596     0.00096635     0.00094004     0.00060185
H        -0.99673053     0.00389469    -0.58461617     0.00111205    -0.00093151     0.00017660
     6
  Step:    35            Position(A)                                  Velocity(au)
C        -0.03384086     0.01463501    -0.08186098    -0.00002209    -0.00000316    -0.00087958
N        -0.04049077    -0.05808403     1.39011566    -0.00014955     0.00002558     0.00060532
H         0.90838120     0.11479653    -0.66057347    -0.00057991     0.00122209     0.00023379
H         0.78224005    -0.22697102     1.90280214     0.00081690    -0.00153396     0.00113494
H        -0.94699631     0.07658778     1.89139207     0.00105131     0.00096710     0.00053797
H        -0.99065390    -0.00142151    -0.58364917     0.00105317    -0.00097295     0.00016278
     6
  Step:    36            Position(A)                                  Velocity(au)
C        -0.03394633     0.01462320    -0.08675823    -0.00001535    -0.00000118    -0.00087393
N        -0.04136051    -0.05793622     1.39347555    -0.00015988     0.00002709     0.00059878
H         0.90507162     0.12166591    -0.65909530    -0.00059968     0.00124127     0.00029033
H         0.78713745    -0.23568288     1.90929990     0.00091723    -0.00158515     0.00118119
H        -0.94092221     0.08206288     1.89423178     0.00111473     0.00099689     0.00048620
H        -0.98497302    -0.00696721    -0.58279894     0.00097233    -0.00101546     0.00013530
     6
  Step:    37            Position(A)                                  Velocity(au)
C        -0.03401210     0.01462185    -0.09160999    -0.00000796     0.00000060    -0.00086452
N        -0.04227427    -0.05778178     1.39679523    -0.00016553     0.00002794     0.00059171
H         0.90169157     0.12864329    -0.65733471    -0.00060576     0.00126261     0.00033539
H         0.79247200    -0.24465389     1.91597869     0.00097512    -0.00162870     0.00120162
H        -0.93456114     0.08770842     1.89681579     0.00115520     0.00102987     0.00044728
H        -0.97980723    -0.01274923    -0.58213983     0.00087055    -0.00105922     0.00009489
     6
  Step:    38            Position(A)                                  Velocity(au)
C        -0.03403512     0.01462988    -0.09639609    -0.00000013     0.00000219    -0.00085132
N        -0.04320585    -0.05762471     1.40007199    -0.00016649     0.00002803     0.00058394
H         0.89831845     0.13574174    -0.65535631    -0.00059768     0.00128605     0.00036882
H         0.79800823    -0.25383988     1.92269572     0.00099151    -0.00166368     0.00119673
H        -0.92804385     0.09354409     1.89921811     0.00117167     0.00106635     0.00042165
H        -0.97526799    -0.01877558    -0.58174108     0.00074957    -0.00110426     0.00004266
     6
  Step:    39            Position(A)                                  Velocity(au)
C        -0.03401354     0.01464626    -0.10109637     0.00000791     0.00000360    -0.00083435
N        -0.04412945    -0.05746949     1.40330209    -0.00016288     0.00002728     0.00057527
H         0.89503151     0.14297389    -0.65322488    -0.00057525     0.00131144     0.00039063
H         0.80352049    -0.26319241     1.92931392     0.00096863    -0.00168940     0.00116784
H        -0.92150509     0.09959081     1.90151428     0.00116369     0.00110643     0.00040945
H        -0.97145468    -0.02505407    -0.58166451     0.00061202    -0.00115042    -0.00001985
     6
  Step:    40            Position(A)                                  Velocity(au)
C        -0.03394698     0.01467000    -0.10569092     0.00001588     0.00000483    -0.00081371
N        -0.04502033    -0.05732084     1.40648059    -0.00015496     0.00002567     0.00056551
H         0.89191008     0.15035143    -0.65100457    -0.00053865     0.00133861     0.00040103
H         0.80879893    -0.27266013     1.93570567     0.00090978    -0.00170553     0.00111697
H        -0.91508009     0.10586998     1.90377942     0.00113160     0.00115015     0.00041042
H        -0.96845000    -0.03159149    -0.58196226     0.00046136    -0.00119748    -0.00009068
     6
  Step:    41            Position(A)                                  Velocity(au)
C        -0.03383664     0.01470009    -0.11016053     0.00002347     0.00000588    -0.00078963
N        -0.04585558    -0.05718358     1.40960146    -0.00014313     0.00002320     0.00055452
H         0.88903136     0.15788505    -0.64875769    -0.00048852     0.00136744     0.00040047
H         0.81365480    -0.28219078     1.94175609     0.00081916    -0.00171215     0.00104670
H        -0.90889990     0.11240268     1.90608601     0.00107669     0.00119741     0.00042386
H        -0.96631541    -0.03839307    -0.58267464     0.00030188    -0.00124513    -0.00016752
     6
  Step:    42            Position(A)                                  Velocity(au)
C        -0.03368551     0.01473550    -0.11448733     0.00003037     0.00000674    -0.00076244
N        -0.04661474    -0.05706242     1.41265788    -0.00012789     0.00001991     0.00054222
H         0.88646798     0.16558450    -0.64654340    -0.00042598     0.00139778     0.00038967
H         0.81792430    -0.29173326     1.94736574     0.00070151    -0.00170969     0.00096000
H        -0.90308589     0.11920899     1.90850118     0.00100125     0.00124799     0.00044859
H        -0.96508710    -0.04546208    -0.58382839     0.00013842    -0.00129303    -0.00024781
     6
  Step:    43            Position(A)                                  Velocity(au)
C        -0.03349824     0.01477514    -0.11865537     0.00003629     0.00000739    -0.00073258
N        -0.04728043    -0.05696174     1.41564266    -0.00010984     0.00001588     0.00052861
H         0.88428523     0.17345860    -0.64441613    -0.00035262     0.00142953     0.00036965
H         0.82147070    -0.30123947     1.95245197     0.00056184    -0.00169890     0.00086002
H        -0.89774435     0.12630724     1.91108404     0.00090851     0.00130151     0.00048294
H        -0.96477322    -0.05279953    -0.58543562    -0.00002386    -0.00134079    -0.00032889
     6
  Step:    44            Position(A)                                  Velocity(au)
C        -0.03328110     0.01481781    -0.12265116     0.00004097     0.00000782    -0.00070051
N        -0.04783875    -0.05688547     1.41854868    -0.00008964     0.00001120     0.00051373
H         0.88253834     0.18151519    -0.64242402    -0.00027050     0.00146250     0.00034167
H         0.82418545    -0.31066588     1.95694977     0.00040527    -0.00168078     0.00074996
H        -0.89296150     0.13371307     1.91388310     0.00080246     0.00135745     0.00052481
H        -0.96535298    -0.06040382    -0.58749353    -0.00017980    -0.00138793    -0.00040814
     6