    14
  Step:   600            Position(A)                                  Velocity(au)
C        -5.17450842    -0.14211540     0.92199792     0.00040058     0.00019460    -0.00011843
C        -4.83875996    -0.54879426    -0.34932724    -0.00021849    -0.00008713    -0.00009725
H        -5.30457354     0.98169051     1.20084590    -0.00010946     0.00096455     0.00012184
H        -5.34455511    -0.85306285     1.71319695     0.00082711     0.00215049     0.00155763
H        -4.84841378    -1.65648666    -0.76520496     0.00267404     0.00031642    -0.00050527
C        -3.87490464     0.32538668    -1.19594174    -0.00011440     0.00000384     0.00005671
C        -2.59499966     0.75146138    -0.62225973     0.00000802     0.00001087     0.00008931
H        -4.01426670     0.55831278    -2.24456291    -0.00029868     0.00238829     0.00125106
H        -1.82909785     0.94743526    -1.42782489     0.00082809    -0.00146008    -0.00230642
C        -2.23634642     1.30386900     0.60583796     0.00017408    -0.00110408    -0.00019944
H        -3.05544453     1.47110030     1.30901922     0.00274978     0.00064084     0.00145433
N        -0.87298509     1.31223137     0.81735367    -0.00064555     0.00050637    -0.00013046
H        -0.21342863     2.11958354     1.23081408    -0.00097329    -0.00128939     0.00133274
H        -0.16919536     0.70035334     0.26208983     0.00029670     0.00095234     0.00211356
