     6
  Step:     0            Position(A)                                  Velocity(au)
C        -0.04074009     0.00243101     0.00289241     0.00006678     0.00005280     0.00026658
N        -0.05227118    -0.05093629     1.30577645     0.00009367    -0.00009945    -0.00019571
H         0.94540707     0.05458798    -0.49581663    -0.00037315    -0.00022621     0.00005229
H         0.87704744    -0.14396646     1.87520933    -0.00119055     0.00057610    -0.00000840
H        -0.85957476    -0.01863927     1.85571192     0.00025224     0.00038570    -0.00003746
H        -0.96397689     0.11710037    -0.52305837    -0.00078600     0.00001724    -0.00046331
     6
  Step:     1            Position(A)                                  Velocity(au)
C        -0.04034480     0.00271541     0.00428967     0.00007672     0.00005140     0.00024292
N        -0.05167557    -0.05148838     1.30478485     0.00012332    -0.00010249    -0.00016620
H         0.94341371     0.05339411    -0.49574047    -0.00035368    -0.00021036    -0.00002594
H         0.87001647    -0.14078619     1.87487840    -0.00137129     0.00058598    -0.00010843
H        -0.85886872    -0.01649638     1.85602512     0.00000733     0.00039861     0.00014996
H        -0.96864594     0.11725419    -0.52598681    -0.00091032     0.00003748    -0.00060063
     6
  Step:     2            Position(A)                                  Velocity(au)
C        -0.03990092     0.00299321     0.00554945     0.00008448     0.00005040     0.00021638
N        -0.05092233    -0.05205726     1.30395857     0.00015089    -0.00010558    -0.00013526
H         0.94153856     0.05228709    -0.49610040    -0.00033027    -0.00019450    -0.00010699
H         0.86204858    -0.13755709     1.87402331    -0.00153129     0.00059388    -0.00019865
H        -0.85949460    -0.01427941     1.85735219    -0.00023057     0.00041263     0.00033020
H        -0.97393381     0.11751032    -0.52962788    -0.00101141     0.00005455    -0.00072331
     6
  Step:     3            Position(A)                                  Velocity(au)
C        -0.03942082     0.00326664     0.00665629     0.00008993     0.00004980     0.00018705
N        -0.05002527    -0.05264307     1.30330548     0.00017547    -0.00010863    -0.00010288
H         0.93980153     0.05126687    -0.49691067    -0.00030349    -0.00017862    -0.00019037
H         0.85326860    -0.13429088     1.87270580    -0.00166591     0.00059934    -0.00027595
H        -0.86139046    -0.01198343     1.85963652    -0.00045318     0.00042720     0.00049714
H        -0.97970785     0.11785077    -0.53389769    -0.00108744     0.00006826    -0.00083003
     6
  Step:     4            Position(A)                                  Velocity(au)
C        -0.03891733     0.00353790     0.00759542     0.00009300     0.00004958     0.00015512
N        -0.04900306    -0.05324545     1.30283326     0.00019620    -0.00011156    -0.00006917
H         0.93821910     0.05033337    -0.49818265    -0.00027401    -0.00016275    -0.00027545
H         0.84382719    -0.13100161     1.87100498    -0.00177029     0.00060195    -0.00033708
H        -0.86445140    -0.00960675     1.86278980    -0.00065310     0.00044170     0.00064532
H        -0.98582797     0.11825691    -0.53870654    -0.00113736     0.00007853    -0.00091987
     6
  Step:     5            Position(A)                                  Velocity(au)
C        -0.03840336     0.00380908     0.00835326     0.00009373     0.00004973     0.00012085
N        -0.04787882    -0.05386352     1.30254872     0.00021232    -0.00011426    -0.00003438
H         0.93680384     0.04948637    -0.49992412    -0.00024262    -0.00014693    -0.00036147
H         0.83390158    -0.12770553     1.86901816    -0.00183963     0.00060135    -0.00037867
H        -0.86853542    -0.00715118     1.86669637    -0.00082420     0.00045549     0.00077024
H        -0.99215060     0.11870991    -0.54396110    -0.00116095     0.00008538    -0.00099236
     6
  Step:     6            Position(A)                                  Velocity(au)
C        -0.03789154     0.00408211     0.00891793     0.00009221     0.00005021     0.00008462
N        -0.04667951    -0.05449592     1.30245706     0.00022319    -0.00011666     0.00000113
H         0.93556390     0.04872545    -0.50213853    -0.00021019    -0.00013120    -0.00044757
H         0.82369474    -0.12442065     1.86686086    -0.00186950     0.00059728    -0.00039751
H        -0.87347127    -0.00462194     1.87121909    -0.00096195     0.00046799     0.00086859
H        -0.99853305     0.11919124    -0.54956672    -0.00115875     0.00008889    -0.00104749
     6
  Step:     7            Position(A)                                  Velocity(au)
C        -0.03739382     0.00435877     0.00927971     0.00008858     0.00005098     0.00004687
N        -0.04543512    -0.05514085     1.30256111     0.00022839    -0.00011869     0.00003686
H         0.93450257     0.04804988    -0.50482445    -0.00017764    -0.00011566    -0.00053282
H         0.81343303    -0.12116614     1.86466590    -0.00185622     0.00058964    -0.00039074
H        -0.87906752    -0.00202735     1.87620628    -0.00106356     0.00047867     0.00093841
H        -1.00483736     0.11968313    -0.55542970    -0.00113196     0.00008924    -0.00108561
     6
  Step:     8            Position(A)                                  Velocity(au)
C        -0.03692117     0.00464061     0.00943140     0.00008306     0.00005202     0.00000811
N        -0.04417761    -0.05579615     1.30286087     0.00022767    -0.00012031     0.00007226
H         0.93361799     0.04745847    -0.50797530    -0.00014593    -0.00010039    -0.00061627
H         0.80336071    -0.11796145     1.86258049    -0.00179735     0.00057850    -0.00035616
H        -0.88512202     0.00062172     1.88149895    -0.00112797     0.00048718     0.00097908
H        -1.01093315     0.12016883    -0.56145905    -0.00108234     0.00008665    -0.00110748
     6
  Step:     9            Position(A)                                  Velocity(au)
C        -0.03648336     0.00492897     0.00936862     0.00007590     0.00005329    -0.00003114
N        -0.04293972    -0.05645951     1.30335319     0.00022102    -0.00012149     0.00010677
H         0.93290307     0.04694955    -0.51157928    -0.00011602    -0.00008549    -0.00069704
H         0.79373273    -0.11482531     1.86076209    -0.00169199     0.00056414    -0.00029254
H        -0.89143091     0.00331255     1.88693772    -0.00115574     0.00049327     0.00099119
H        -1.01670066     0.12063293    -0.56756852    -0.00101211     0.00008140    -0.00111420
     6
  Step:    10            Position(A)                                  Velocity(au)
C        -0.03608874     0.00522499     0.00908985     0.00006737     0.00005474    -0.00007038
N        -0.04175372    -0.05712853     1.30403182     0.00020866    -0.00012225     0.00013986
H         0.93234560     0.04652087    -0.51561968    -0.00008881    -0.00007108    -0.00077432
H         0.78480486    -0.11177457     1.85937226    -0.00154116     0.00054701    -0.00019985
H        -0.89779692     0.00603140     1.89236924    -0.00114879     0.00049685     0.00097640
H        -1.02203284     0.12106157    -0.57367828    -0.00092373     0.00007378    -0.00110707
     6
  Step:    11            Position(A)                                  Velocity(au)
C        -0.03574416     0.00552963     0.00859636     0.00005774     0.00005636    -0.00010912
N        -0.04065016    -0.05780093     1.30488780     0.00019104    -0.00012263     0.00017110
H         0.93192861     0.04616965    -0.52007542    -0.00006511    -0.00005723    -0.00084741
H         0.77682243    -0.10882323     1.85856924    -0.00134793     0.00052774    -0.00007948
H        -0.90403589     0.00876422     1.89765122    -0.00110999     0.00049795     0.00093711
H        -1.02683622     0.12144253    -0.57971581    -0.00081978     0.00006410    -0.00108759
     6
  Step:    12            Position(A)                                  Velocity(au)
C        -0.03545494     0.00584368     0.00789203     0.00004729     0.00005811    -0.00014693
N        -0.03965667    -0.05847468     1.30591002     0.00016877    -0.00012268     0.00020020
H         0.93163091     0.04589260    -0.52492170    -0.00004561    -0.00004405    -0.00091574
H         0.77000852    -0.10598153     1.85849981    -0.00111746     0.00050706     0.00006570
H        -0.90998138     0.01149739     1.90265592    -0.00104292     0.00049669     0.00087621
H        -1.03103165     0.12176521    -0.58561684    -0.00070288     0.00005265    -0.00105730
     6
  Step:    13            Position(A)                                  Velocity(au)
C        -0.03522487     0.00616775     0.00698300     0.00003629     0.00005997    -0.00018343
N        -0.03879695    -0.05914806     1.30708606     0.00014265    -0.00012247     0.00022698
H         0.93142773     0.04568600    -0.53013074    -0.00003090    -0.00003158    -0.00097885
H         0.76455207    -0.10325538     1.85929064    -0.00085686     0.00048578     0.00023131
H        -0.91548776     0.01421820     1.90727252    -0.00095148     0.00049329     0.00079687
H        -1.03455423     0.12202070    -0.59132563    -0.00057550     0.00003973    -0.00101775
     6
  Step:    14            Position(A)                                  Velocity(au)
C        -0.03505639     0.00650234     0.00587741     0.00002497     0.00006191    -0.00021830
N        -0.03808996    -0.05981974     1.30840296     0.00011358    -0.00012205     0.00025144
H         0.93129155     0.04554580    -0.53567238    -0.00002139    -0.00001987    -0.00103635
H         0.76059762    -0.10064618     1.86104030    -0.00057488     0.00046469     0.00041167
H        -0.92043148     0.01691520     1.91140791    -0.00083965     0.00048798     0.00070227
H        -1.03735240     0.12220157    -0.59679471    -0.00043996     0.00002559    -0.00097034
     6
  Step:    15            Position(A)                                  Velocity(au)
C        -0.03495062     0.00684780     0.00458508     0.00001355     0.00006390    -0.00025125
N        -0.03754935    -0.06048876     1.30984797     0.00008254    -0.00012150     0.00027365
H         0.93119281     0.04546770    -0.54151449    -0.00001736    -0.00000899    -0.00108790
H         0.75823734    -0.09815099     1.86381263    -0.00028148     0.00044451     0.00060003
H        -0.92471088     0.01957836     1.91498658    -0.00071130     0.00048099     0.00059551
H        -1.03938697     0.12230179    -0.60198434    -0.00029839     0.00001049    -0.00091641
     6
  Step:    16            Position(A)                                  Velocity(au)
C        -0.03490753     0.00720433     0.00311734     0.00000223     0.00006592    -0.00028202
N        -0.03718320    -0.06115450     1.31140910     0.00005056    -0.00012086     0.00029377
H         0.93110084     0.04544707    -0.54762336    -0.00001897     0.00000106    -0.00113314
H         0.75750549    -0.09576307     1.86763181     0.00001274     0.00042583     0.00078892
H        -0.92824538     0.02219908     1.91794979    -0.00057019     0.00047257     0.00047956
H        -1.04063034     0.12231676    -0.60686185    -0.00015280    -0.00000536    -0.00085713
     6
  Step:    17            Position(A)                                  Velocity(au)
C        -0.03492607     0.00757197     0.00148679    -0.00000880     0.00006792    -0.00031035
N        -0.03699392    -0.06181659     1.31307540     0.00001864    -0.00012017     0.00031198
H         0.93098442     0.04547939    -0.55396344    -0.00002623     0.00001029    -0.00117168
H         0.75837731    -0.09347268     1.87247997     0.00029714     0.00040909     0.00097068
H        -0.93097511     0.02477017     1.92025513    -0.00041996     0.00046295     0.00035728
H        -1.04106562     0.12224290    -0.61140098    -0.00000509    -0.00002175    -0.00079356
     6
  Step:    18            Position(A)                                  Velocity(au)
C        -0.03500423     0.00795058    -0.00029264    -0.00001939     0.00006987    -0.00033599
N        -0.03697842    -0.06247484     1.31483705    -0.00001225    -0.00011943     0.00032845
H         0.93081262     0.04556009    -0.56049737    -0.00003903     0.00001867    -0.00120312
H         0.76077031    -0.09126811     1.87829723     0.00056160     0.00039453     0.00113781
H        -0.93285978     0.02728578     1.92187549    -0.00026414     0.00045233     0.00023143
H        -1.04068627     0.12207778    -0.61558119     0.00014282    -0.00003848    -0.00072669
     6
  Step:    19            Position(A)                                  Velocity(au)
C        -0.03513912     0.00833980    -0.00220569    -0.00002936     0.00007172    -0.00035867
N        -0.03712857    -0.06312909     1.31668505    -0.00004123    -0.00011864     0.00034327
H         0.93055551     0.04568462    -0.56718575    -0.00005709     0.00002623    -0.00122703
H         0.76454924    -0.08913675     1.88498444     0.00079714     0.00038222     0.00128354
H        -0.93387804     0.02974130     1.92279851    -0.00010621     0.00044094     0.00010468
H        -1.03949608     0.12182005    -0.61938726     0.00028897    -0.00005533    -0.00065746
     6
  Step:    20            Position(A)                                  Velocity(au)
C        -0.03532704     0.00873903    -0.00423573    -0.00003858     0.00007342    -0.00037812
N        -0.03743169    -0.06377913     1.31861087    -0.00006752    -0.00011778     0.00035647
H         0.93018496     0.04584841    -0.57398712    -0.00008002     0.00003294    -0.00124301
H         0.76953386    -0.08706612     1.89240822     0.00099637     0.00037202     0.00140221
H        -0.93402744     0.03213334     1.92302632     0.00005031     0.00042899    -0.00002026
H        -1.03750937     0.12146951    -0.62280911     0.00043135    -0.00007209    -0.00058681
     6
  Step:    21            Position(A)                                  Velocity(au)
C        -0.03556348     0.00914741    -0.00636474    -0.00004689     0.00007493    -0.00039408
N        -0.03787125    -0.06442464     1.32060595    -0.00009049    -0.00011684     0.00036797
H         0.92967536     0.04604695    -0.58085801    -0.00010726     0.00003882    -0.00125070
H         0.77550861    -0.08504475     1.90040783     0.00115384     0.00036371     0.00148955
H        -0.93332471     0.03445986     1.92257561     0.00020180     0.00041674    -0.00014069
H        -1.03475155     0.12102711    -0.62584180     0.00056781    -0.00008853    -0.00051575
     6
  Step:    22            Position(A)                                  Velocity(au)
C        -0.03584320     0.00956382    -0.00857329    -0.00005417     0.00007620    -0.00040631
N        -0.03842765    -0.06506517     1.32266108    -0.00010963    -0.00011578     0.00037764
H         0.92900441     0.04627574    -0.58775331    -0.00013812     0.00004388    -0.00124988
H         0.78223395    -0.08306288     1.90880348     0.00126629     0.00035692     0.00154296
H        -0.93180622     0.03672034     1.92147780     0.00034461     0.00040451    -0.00025385
H        -1.03125962     0.12049504    -0.62848584     0.00069616    -0.00010443    -0.00044532
     6
  Step:    23            Position(A)                                  Velocity(au)
C        -0.03616024     0.00998686    -0.01084074    -0.00006029     0.00007718    -0.00041463
N        -0.03907895    -0.06570008     1.32476605    -0.00012461    -0.00011458     0.00038525
H         0.92815381     0.04653038    -0.59462691    -0.00017181     0.00004814    -0.00124051
H         0.78945822    -0.08111288     1.91740533     0.00133260     0.00035127     0.00156148
H        -0.92952844     0.03891604     1.91977913     0.00047503     0.00039267    -0.00035706
H        -1.02708255     0.11987672    -0.63074754     0.00081420    -0.00011954    -0.00037667
     6
  Step:    24            Position(A)                                  Velocity(au)
C        -0.03650803     0.01041493    -0.01314546    -0.00006515     0.00007784    -0.00041891
N        -0.03980173    -0.06632866     1.32690926    -0.00013523    -0.00011323     0.00039056
H         0.92710981     0.04680655    -0.60143262    -0.00020745     0.00005161    -0.00122274
H         0.79692877    -0.07918939     1.92602220     0.00135371     0.00034635     0.00154577
H        -0.92656798     0.04105032     1.91754047     0.00058948     0.00038163    -0.00044772
H        -1.02228136     0.11917686    -0.63263941     0.00091979    -0.00013365    -0.00031097
     6
  Step:    25            Position(A)                                  Velocity(au)
C        -0.03687947     0.01084622    -0.01546524    -0.00006868     0.00007816    -0.00041912
N        -0.04057181    -0.06695012     1.32907766    -0.00014144    -0.00011175     0.00039336
H         0.92586366     0.04710013    -0.60812531    -0.00024411     0.00005435    -0.00119698
H         0.80440239    -0.07728933     1.93446976     0.00133232     0.00034181     0.00149790
H        -0.92302090     0.04312897     1.91483656     0.00068463     0.00037188    -0.00052349
H        -1.01692858     0.11840135    -0.63418046     0.00101101    -0.00014655    -0.00024943
     6
  Step:    26            Position(A)                                  Velocity(au)
C        -0.03726706     0.01127881    -0.01777776    -0.00007081     0.00007813    -0.00041533
N        -0.04136500    -0.06756372     1.33125686    -0.00014332    -0.00011014     0.00039345
H         0.92441175     0.04740722    -0.61466217    -0.00028088     0.00005640    -0.00116386
H         0.81165416    -0.07541159     1.94257769     0.00127254     0.00033732     0.00142108
H        -0.91900117     0.04516048     1.91175458     0.00075757     0.00036394    -0.00058240
H        -1.01110726     0.11755715    -0.63539623     0.00108617    -0.00015808    -0.00019324
     6
  Step:    27            Position(A)                                  Velocity(au)
C        -0.03766303     0.01171073    -0.02006114    -0.00007153     0.00007774    -0.00040771
N        -0.04215774    -0.06816888     1.33343145    -0.00014106    -0.00010846     0.00039073
H         0.92275561     0.04772426    -0.62100407    -0.00031686     0.00005785    -0.00112425
H         0.81848380    -0.07355665     1.95019490     0.00117948     0.00033268     0.00131935
H        -0.91463791     0.04715619     1.90839192     0.00080603     0.00035836    -0.00062296
H        -1.00490942     0.11665211    -0.63631879     0.00114398    -0.00016812    -0.00014354
     6
  Step:    28            Position(A)                                  Velocity(au)
C        -0.03805951     0.01214005    -0.02229442    -0.00007085     0.00007703    -0.00039651
N        -0.04292770    -0.06876521     1.33558542    -0.00013495    -0.00010675     0.00038517
H         0.92090156     0.04804804    -0.62711674    -0.00035128     0.00005876    -0.00107922
H         0.82472055    -0.07172613     1.95719352     0.00105883     0.00032774     0.00119720
H        -0.91007189     0.04913041     1.90485335     0.00082845     0.00035567    -0.00064426
H        -0.99843420     0.11569473    -0.63698637     0.00118352    -0.00017659    -0.00010134
     6
  Step:    29            Position(A)                                  Velocity(au)
C        -0.03844868     0.01256494    -0.02445811    -0.00006879     0.00007603    -0.00038206
N        -0.04365421    -0.06935268     1.33770270    -0.00012534    -0.00010510     0.00037685
H         0.91886022     0.04837585    -0.63297178    -0.00038348     0.00005924    -0.00102995
H         0.83022534    -0.06992225     1.96347083     0.00091642     0.00032247     0.00105928
H        -0.90545107     0.05110026     1.90124760     0.00082415     0.00035637    -0.00064605
H        -0.99178516     0.11469384    -0.63744260     0.00120441    -0.00018350    -0.00006749
     6
  Step:    30            Position(A)                                  Velocity(au)
C        -0.03882299     0.01298379    -0.02653458    -0.00006598     0.00007768    -0.00041443
N        -0.04431874    -0.06993162     1.33976779    -0.00011258    -0.00010679     0.00040485
H         0.91664571     0.04870550    -0.63854729    -0.00043453     0.00010725    -0.00092996
H         0.83489106    -0.06814735     1.96894950     0.00074278     0.00027121     0.00089377
H        -0.90092532     0.05308543     1.89768343     0.00081280     0.00041923    -0.00064816
H        -0.98506750     0.11365825    -0.63773539     0.00122958    -0.00023930    -0.00000315
     6
  Step:    31            Position(A)                                  Velocity(au)
C        -0.03918138     0.01342760    -0.02906043    -0.00006215     0.00008205    -0.00049546
N        -0.04490441    -0.07053863     1.34219860    -0.00009719    -0.00011175     0.00047094
H         0.91403468     0.04956690    -0.64329908    -0.00050461     0.00018791    -0.00078092
H         0.83847401    -0.06691047     1.97339617     0.00054286     0.00018946     0.00070138
H        -0.89642489     0.05575586     1.89404972     0.00079435     0.00052649    -0.00065393
H        -0.97813058     0.11203637    -0.63747755     0.00125856    -0.00032865     0.00009304
     6
  Step:    32            Position(A)                                  Velocity(au)
C        -0.03951358     0.01389550    -0.03203974    -0.00005663     0.00008610    -0.00057403
N        -0.04539862    -0.07117334     1.34500054    -0.00007966    -0.00011660     0.00053512
H         0.91103889     0.05079344    -0.64722433    -0.00057026     0.00024653    -0.00063349
H         0.84092287    -0.06604217     1.97674272     0.00033724     0.00013001     0.00050195
H        -0.89209912     0.05893540     1.89041742     0.00074879     0.00061147    -0.00064468
H        -0.97108333     0.11000658    -0.63670154     0.00126609    -0.00039366     0.00018018
     6
  Step:    33            Position(A)                                  Velocity(au)
C        -0.03981102     0.01438484    -0.03544228    -0.00004965     0.00008961    -0.00064606
N        -0.04579007    -0.07183496     1.34814788    -0.00006033    -0.00012128     0.00059370
H         0.90769475     0.05230774    -0.65034195    -0.00062801     0.00029363    -0.00049084
H         0.84222335    -0.06546504     1.97897668     0.00013199     0.00008201     0.00030328
H        -0.88810011     0.06255393     1.88688238     0.00067651     0.00068660    -0.00061799
H        -0.96405463     0.10765977    -0.63547442     0.00124949    -0.00044461     0.00025374
     6
  Step:    34            Position(A)                                  Velocity(au)
C        -0.04006590     0.01489229    -0.03922664    -0.00004132     0.00009247    -0.00071003
N        -0.04606974    -0.07252251     1.35160501    -0.00003965    -0.00012577     0.00064538
H         0.90405282     0.05405989    -0.65268455    -0.00067560     0.00033309    -0.00035527
H         0.84239117    -0.06512986     1.98011652    -0.00006773     0.00004158     0.00011042
H        -0.88457346     0.06657329     1.88354279     0.00057937     0.00075624    -0.00057420
H        -0.95718372     0.10506068    -0.63387887     0.00120730    -0.00048512     0.00031142
     6
  Step:    35            Position(A)                                  Velocity(au)
C        -0.04027100     0.01541414    -0.04334551    -0.00003178     0.00009466    -0.00076521
N        -0.04623136    -0.07323484     1.35533148    -0.00001815    -0.00013004     0.00068959
H         0.90017480     0.05601529    -0.65429639    -0.00071123     0.00036715    -0.00022878
H         0.84146948    -0.06500226     1.98020572    -0.00025716     0.00000657    -0.00007247
H        -0.88165124     0.07097144     1.88049111     0.00046041     0.00082269    -0.00051487
H        -0.95061641     0.10226001    -0.63200809     0.00113880    -0.00051733     0.00035171
     6
  Step:    36            Position(A)                                  Velocity(au)
C        -0.04041982     0.01594654    -0.04774876    -0.00002116     0.00009617    -0.00081135
N        -0.04627182    -0.07397074     1.35928490     0.00000358    -0.00013409     0.00072621
H         0.89613187     0.05814876    -0.65523243    -0.00073346     0.00039730    -0.00011311
H         0.83952716    -0.06505673     1.97930939    -0.00043193    -0.00002436    -0.00024177
H        -0.87944586     0.07573550     1.87780870     0.00032374     0.00088727    -0.00044246
H        -0.94450095     0.09929917    -0.62996185     0.00104406    -0.00054276     0.00037386
     6
  Step:    37            Position(A)                                  Velocity(au)
C        -0.04050676     0.01648566    -0.05238567    -0.00000964     0.00009701    -0.00084857
N        -0.04619151    -0.07472891     1.36342294     0.00002488    -0.00013793     0.00075545
H         0.89200256     0.06044207    -0.65555671    -0.00074115     0.00042475    -0.00000974
H         0.83665692    -0.06527367     1.97751183    -0.00058796    -0.00005209    -0.00039434
H        -0.87804411     0.08085747     1.87556122     0.00017433     0.00095068    -0.00036006
H        -0.93898333     0.09621252    -0.62784255     0.00092393    -0.00056265     0.00037774
     6
  Step:    38            Position(A)                                  Velocity(au)
C        -0.04052730     0.01702784    -0.05720671     0.00000256     0.00009725    -0.00087727
N        -0.04599452    -0.07550807     1.36770496     0.00004510    -0.00014156     0.00077776
H         0.88787115     0.06288295    -0.65534097    -0.00073347     0.00045052     0.00008018
H         0.83297386    -0.06563727     1.97491418    -0.00072153    -0.00007723    -0.00052744
H        -0.87750283     0.08633160     1.87379559     0.00001774     0.00101322    -0.00027116
H        -0.93420299     0.09302794    -0.62575165     0.00078003    -0.00057817     0.00036393
     6
  Step:    39            Position(A)                                  Velocity(au)
C        -0.04047825     0.01756972    -0.06216510     0.00001519     0.00009692    -0.00089807
N        -0.04568875    -0.07630694     1.37209314     0.00006357    -0.00014498     0.00079374
H         0.88382617     0.06546432    -0.65466290    -0.00070981     0.00047544     0.00015581
H         0.82861363    -0.06613458     1.97163214    -0.00082922    -0.00010025    -0.00063876
H        -0.87784633     0.09215245     1.87253838    -0.00014017     0.00107484    -0.00017942
H        -0.93028785     0.08976732    -0.62378561     0.00061480    -0.00059034     0.00033367
     6
  Step:    40            Position(A)                                  Velocity(au)
C        -0.04035801     0.01810829    -0.06721786     0.00002795     0.00009611    -0.00091168
N        -0.04528585    -0.07712417     1.37655316     0.00007965    -0.00014817     0.00080401
H         0.87995859     0.06818286    -0.65360412    -0.00066982     0.00050016     0.00021663
H         0.82373019    -0.06675478     1.96779366    -0.00090794    -0.00012149    -0.00072632
H        -0.87906541     0.09831331     1.87179554    -0.00029360     0.00113520    -0.00008836
H        -0.92734955     0.08644716    -0.62203203     0.00043138    -0.00060011     0.00028880
     6
  Step:    41            Position(A)                                  Velocity(au)
C        -0.04016672     0.01864092    -0.07232625     0.00004052     0.00009487    -0.00091883
N        -0.04480096    -0.07795836     1.38105432     0.00009275    -0.00015111     0.00080917
H         0.87636060     0.07103884    -0.65224839    -0.00061338     0.00052525     0.00026245
H         0.81849410    -0.06748864     1.96353683    -0.00095486    -0.00014120    -0.00078848
H        -0.88111866     0.10480494     1.87155361    -0.00043703     0.00119373    -0.00000122
H        -0.92547988     0.08307877    -0.62056678     0.00023357    -0.00060833     0.00023162
     6
  Step:    42            Position(A)                                  Velocity(au)
C        -0.03990650     0.01916533    -0.07745589     0.00005253     0.00009325    -0.00092022
N        -0.04425244    -0.07880790     1.38556928     0.00010231    -0.00015375     0.00080971
H         0.87312408     0.07403542    -0.65067981    -0.00054060     0.00055115     0.00029331
H         0.81309069    -0.06832809     1.95900801    -0.00096751    -0.00015956    -0.00082392
H        -0.88393504     0.11161439     1.87178196    -0.00056548     0.00124960     0.00007918
H        -0.92474696     0.07966884    -0.61945127     0.00002585    -0.00061575     0.00016486
     6
  Step:    43            Position(A)                                  Velocity(au)
C        -0.03958156     0.01967957    -0.08257645     0.00006360     0.00009129    -0.00091648
N        -0.04366135    -0.07967096     1.39007353     0.00010790    -0.00015603     0.00080603
H         0.87033902     0.07717796    -0.64898123    -0.00045193     0.00057814     0.00030956
H         0.80771716    -0.06926590     1.95435934    -0.00094400    -0.00017668    -0.00083176
H        -0.88741749     0.11872402     1.87243556    -0.00067465     0.00130185     0.00015053
H        -0.92519200     0.07622010    -0.61873044    -0.00018676    -0.00062294     0.00009158
     6
  Step:    44            Position(A)                                  Velocity(au)
C        -0.03919827     0.02018192    -0.08766119     0.00007334     0.00008905    -0.00090817
N        -0.04305092    -0.08054533     1.39454473     0.00010920    -0.00015787     0.00079845
H         0.86809168     0.08047322    -0.64723277    -0.00034827     0.00060638     0.00031181
H         0.80257890    -0.07029546     1.94974604    -0.00088326    -0.00019264    -0.00081173
H        -0.89144749     0.12611088     1.87345815    -0.00076108     0.00134941     0.00021109
H        -0.92682665     0.07273218    -0.61843147    -0.00039877    -0.00063037     0.00001500
     6