|===============================================================================
|
|  DFTB+ release 20.1
|
|  Copyright (C) 2006 - 2020  DFTB+ developers group
|
|===============================================================================
|
|  When publishing results obtained with DFTB+, please cite the following
|  reference:
|
|  * DFTB+, a software package for efficient approximate density functional
|    theory based atomistic simulations, J. Chem. Phys. 152, 124101 (2020).
|    [doi: 10.1063/1.5143190]
|
|  You should also cite additional publications crediting the parametrization
|  data you use. Please consult the documentation of the SK-files for the
|  references.
|
|===============================================================================

Reading input file 'dftb_in.hsd'
Parser version: 8

--------------------------------------------------------------------------------
Reading SK-files:
Done.


Processed input in HSD format written to 'dftb_pin.hsd'

Starting initialization...
--------------------------------------------------------------------------------
OpenMP threads:              1
Chosen random seed:          508636143
Mode:                        Static calculation
Self consistent charges:     Yes
SCC-tolerance:                 0.100000E-05
Max. scc iterations:                   1000
Shell resolved Hubbard:      No
Spin polarisation:           No
Nr. of up electrons:             6.000000
Nr. of down electrons:           6.000000
Periodic boundaries:         No
Electronic solver:           Relatively robust
Maximal SCC-cycles:                    1000
Initial charges:             Set automatically (system chrg:   0.100E+01)
Included shells:             C:  s, p
                             N:  s, p
                             H:  s
Spin coupling constants:     C   1(s)-1(s):  -0.455900E-01
                             C   1(s)-2(p):  -0.293000E-01
                             C   2(p)-1(s):  -0.293000E-01
                             C   2(p)-2(p):  -0.275500E-01
                             N   1(s)-1(s):  -0.468700E-01
                             N   1(s)-2(p):  -0.317000E-01
                             N   2(p)-1(s):  -0.317000E-01
                             N   2(p)-2(p):  -0.307200E-01
                             H   1(s)-1(s):  -0.792500E-01
Range separated hybrid:      Yes
  Screening parameter omega:   0.300000E+00
  Range separated algorithm:   MatrixBased
Extra options:
                             Mulliken analysis
                             Force calculation
Force type                   original
                             Eigenvector printing


REKS Calcuation:             Yes
SSR(2,2) Calcuation:         Yes
Energy Functional:           (PPS+OSS)/2
Number of Core Orbitals:                  5
Number of Active Orbitals:                2
Number of Basis:                         12
Number of States:                         2
State-Averaging Weight:          0.500000
                                 0.500000
State of Interest:                        1
Initial Guess:               Diagonalize H0 matrix
Newton-Raphson for FON opt:  Yes
NR max. Iterations:                      50
Level Shifting:              Yes
Shift Value:                     0.300000
W Scale Factor:              C  =    3.000000
                             N  =    3.000000
                             H  =    3.000000
Transition Dipole:           No
Gradient of Microstate:      No
CP-REKS Solver:              Preconditioned Conjugate-Gradient
CG max. Iterations:                     100
CG Tolerance:                  0.100000E-07
Memory for A and Hxc:        Direct Updating Without Saving
Non-Adiabatic Coupling:      Yes

--------------------------------------------------------------------------------

***  Geometry step: 0

  iSCC       reks energy        Diff energy         x_a       SCC error   
    1       -6.2631774380       0.0000000000     0.998596    1.18031131
    2       -6.2769639416      -0.0137865037     0.999483    0.11158127
    3       -6.2808547035      -0.0038907619     0.999728    0.05273334
    4       -6.2825338403      -0.0016791368     0.999824    0.02702767
    5       -6.2834161569      -0.0008823167     0.999868    0.01476647
    6       -6.2839656264      -0.0005494695     0.999891    0.00825284
    7       -6.2843511663      -0.0003855399     0.999904    0.00608066
    8       -6.2846396258      -0.0002884595     0.999912    0.00561703
    9       -6.2848616332      -0.0002220075     0.999917    0.00507200
   10       -6.2850340722      -0.0001724390     0.999921    0.00451440
   11       -6.2851679862      -0.0001339139     0.999923    0.00397814
   12       -6.2852715114      -0.0001035252     0.999925    0.00347975
   13       -6.2853510378      -0.0000795264     0.999927    0.00302659
   14       -6.2854117126      -0.0000606749     0.999928    0.00267211
   15       -6.2854576979      -0.0000459852     0.999928    0.00240098
   16       -6.2854923366      -0.0000346387     0.999929    0.00214087
   17       -6.2855182853      -0.0000259487     0.999929    0.00189670
   18       -6.2855376305      -0.0000193452     0.999930    0.00167127
   19       -6.2855519924      -0.0000143619     0.999930    0.00146584
   20       -6.2855626164      -0.0000106239     0.999930    0.00128058
   21       -6.2855704510      -0.0000078346     0.999930    0.00111494
   22       -6.2855762134      -0.0000057624     0.999930    0.00096788
   23       -6.2855804422      -0.0000042288     0.999930    0.00083808
   24       -6.2855835395      -0.0000030974     0.999930    0.00072409
   25       -6.2855858045      -0.0000022650     0.999930    0.00062440
   26       -6.2855874584      -0.0000016539     0.999930    0.00053754
   27       -6.2855886648      -0.0000012063     0.999930    0.00046209
   28       -6.2855895437      -0.0000008790     0.999930    0.00039672
   29       -6.2855901836      -0.0000006399     0.999930    0.00034021
   30       -6.2855906490      -0.0000004655     0.999930    0.00029147
   31       -6.2855909874      -0.0000003384     0.999930    0.00024950
   32       -6.2855912333      -0.0000002459     0.999930    0.00021342
   33       -6.2855914118      -0.0000001785     0.999930    0.00018243
   34       -6.2855915414      -0.0000001296     0.999930    0.00015586
   35       -6.2855916355      -0.0000000941     0.999930    0.00013309
   36       -6.2855917037      -0.0000000682     0.999930    0.00011359
   37       -6.2855917532      -0.0000000495     0.999930    0.00009692
   38       -6.2855917891      -0.0000000359     0.999930    0.00008266
   39       -6.2855918151      -0.0000000260     0.999930    0.00007048
   40       -6.2855918340      -0.0000000189     0.999930    0.00006008
   41       -6.2855918477      -0.0000000137     0.999930    0.00005121
   42       -6.2855918576      -0.0000000099     0.999930    0.00004363
   43       -6.2855918647      -0.0000000072     0.999930    0.00003717
   44       -6.2855918699      -0.0000000052     0.999930    0.00003166
   45       -6.2855918737      -0.0000000038     0.999930    0.00002697
   46       -6.2855918764      -0.0000000027     0.999930    0.00002297
   47       -6.2855918784      -0.0000000020     0.999930    0.00001956
   48       -6.2855918798      -0.0000000014     0.999930    0.00001665
   49       -6.2855918809      -0.0000000010     0.999930    0.00001418
   50       -6.2855918816      -0.0000000008     0.999930    0.00001207
   51       -6.2855918822      -0.0000000005     0.999930    0.00001028
   52       -6.2855918826      -0.0000000004     0.999930    0.00000875
   53       -6.2855918829      -0.0000000003     0.999930    0.00000745
   54       -6.2855918831      -0.0000000002     0.999930    0.00000634
   55       -6.2855918832      -0.0000000001     0.999930    0.00000539
   56       -6.2855918833      -0.0000000001     0.999930    0.00000459
   57       -6.2855918834      -0.0000000001     0.999930    0.00000391
   58       -6.2855918835      -0.0000000001     0.999930    0.00000333
   59       -6.2855918835      -0.0000000000     0.999930    0.00000283
   60       -6.2855918835      -0.0000000000     0.999930    0.00000241
   61       -6.2855918836      -0.0000000000     0.999930    0.00000205
   62       -6.2855918836      -0.0000000000     0.999930    0.00000175
   63       -6.2855918836      -0.0000000000     0.999930    0.00000149
   64       -6.2855918836      -0.0000000000     0.999930    0.00000126
   65       -6.2855918836      -0.0000000000     0.999930    0.00000108
   66       -6.2855918836      -0.0000000000     0.999930    0.00000092
  
--------------------------------------------------
 Final SA-REKS(2,2) energy:      -6.28559188
  
 State     Energy      FON(1)    FON(2)   Spin
  PPS   -6.40892185   1.999861  0.000139  0.00
  OSS   -6.16226192   1.000000  1.000000  0.00
 Trip   -6.24466726   1.000000  1.000000  1.00
--------------------------------------------------

 Lagrangian Wab:   0.00777584  0.00777554

--------------------------------------------------
 SSR: 2SI-2SA-REKS(2,2) Hamiltonian matrix
               PPS           OSS
   PPS    -6.40892185    0.01090458
   OSS     0.01090458   -6.16226192
--------------------------------------------------

----------------------------------------------------------------
 SSR: 2SI-2SA-REKS(2,2) states
                    E_n       C_{PPS}    C_{OSS}
 SSR state  1   -6.40940299  -0.999028   0.044080
 SSR state  2   -6.16178078  -0.044080  -0.999028
----------------------------------------------------------------

 unrelaxed SSR FONs for S0:  1.997918  0.002082

Total Energy:                       -6.4094029918 H         -174.4087 eV
Extrapolated to 0:                  -6.4094029918 H         -174.4087 eV

----------------------------------------------------------------------------------
 Solving CP-REKS equation for  1 state vector...
----------------------------------------------------------------------------------
  CG solver: Constructing Y initial guess
  CG solver: Iteration    1    eps =    0.000153989496
  CG solver: Iteration    2    eps =    0.000070519001
  CG solver: Iteration    3    eps =    0.000021725154
  CG solver: Iteration    4    eps =    0.000001198720
  CG solver: Iteration    5    eps =    0.000000016212
  CG solver: Iteration    6    eps =    0.000000007041
  Convergence reached in CG solver after    6 iterations
  CG solver: Calculating converged R, Z, Q2 matrix
----------------------------------------------------------------------------------

----------------------------------------------------------------------------------
 Solving CP-REKS equation for SI between  1 and  2 state vectors...
----------------------------------------------------------------------------------
  CG solver: Constructing Y initial guess
  CG solver: Iteration    1    eps =    0.004018368641
  CG solver: Iteration    2    eps =    0.006518369992
  CG solver: Iteration    3    eps =    0.000743435535
  CG solver: Iteration    4    eps =    0.000008678835
  CG solver: Iteration    5    eps =    0.000001233662
  CG solver: Iteration    6    eps =    0.000000024896
  CG solver: Iteration    7    eps =    0.000000000876
  Convergence reached in CG solver after    7 iterations
  CG solver: Calculating converged R, Z, Q2 matrix
----------------------------------------------------------------------------------

--------------------------------------------------
 Gradient Information
--------------------------------------------------
           1 st state (SSR)
     0.00051229     0.00121252    -0.02006791
    -0.00105351     0.00506027     0.01978618
     0.01284762    -0.00485538     0.00357419
     0.01536418    -0.00586382    -0.00863107
    -0.01431840     0.00297874    -0.00125915
    -0.01335218     0.00146766     0.00659776

           2 st state (SSR)
    -0.00133564    -0.00698474     0.08648923
     0.00234974     0.00482560    -0.10186412
    -0.01545601    -0.00980689     0.01793789
    -0.01147320     0.00435964    -0.01561442
     0.01221218    -0.00132392    -0.00945668
     0.01370292     0.00893031     0.02250810
--------------------------------------------------
 Coupling Information
--------------------------------------------------
 between  1 and  2 states
--------------------------------------------------
 g vector - difference gradient
     0.00097251     0.00405245    -0.05639250
    -0.00173657     0.00010104     0.06337621
     0.01553479     0.00203702    -0.00691647
     0.01507646    -0.00501341     0.00362723
    -0.01484858     0.00202787     0.00412519
    -0.01499861    -0.00320497    -0.00781966

 h vector - derivative coupling
     0.00050835    -0.00070317    -0.03286759
    -0.00032015    -0.00018947     0.02616853
     0.01501684    -0.00507130     0.00331833
     0.01815715     0.00133755     0.00137903
    -0.01732150    -0.00149131     0.00011798
    -0.01604070     0.00611771     0.00188372

 G vector - GDV
     0.00092396     0.00409863    -0.05327857
    -0.00170162     0.00011734     0.06082515
     0.01415182     0.00247576    -0.00718185
     0.01341869    -0.00511173     0.00349168
    -0.01326529     0.00215133     0.00409877
    -0.01352755    -0.00373133    -0.00795517

 H vector - DCV - non-adiabatic coupling
     0.00239084    -0.00138729    -0.15227469
    -0.00190552    -0.00072626     0.12781025
     0.06593389    -0.01967588     0.01088863
     0.07840348     0.00359742     0.00683760
    -0.07496081    -0.00527786     0.00194185
    -0.06986188     0.02346988     0.00479636
--------------------------------------------------


--------------------------------------------------------------------------------
DFTB+ running times                          cpu [s]             wall clock [s]
--------------------------------------------------------------------------------
SCC                                    +     0.03  ( 72.8%)      0.03  ( 68.7%)
Post-SCC processing                    +     0.01  ( 23.5%)      0.01  ( 20.8%)
--------------------------------------------------------------------------------
Missing                                +     0.00  (  3.7%)      0.01  ( 10.4%)
Total                                  =     0.04  (100.0%)      0.05  (100.0%)
--------------------------------------------------------------------------------
