     6
  Step:   120            Position(A)                                  Velocity(au)
C        -0.01698824    -0.07964462    -0.02960182     0.00011852    -0.00005677    -0.00009819
N        -0.04557959    -0.02695003     1.34243347     0.00001397     0.00006024    -0.00003344
H         0.71621161     0.67802314    -0.50435174    -0.00083103     0.00105416     0.00066801
H         0.77235932    -0.46875738     1.85270474    -0.00090065    -0.00124984     0.00022780
H        -0.88480111     0.28711813     1.87102832     0.00043776     0.00092494     0.00014856
H        -0.98087569     0.15741002    -0.62954129    -0.00031239    -0.00088993     0.00059033
