     6
  Step:     0            Position(A)                                  Velocity(au)
C        -0.03881974    -0.00194183     0.01708785    -0.00007869     0.00008636    -0.00026405
N        -0.04648369    -0.04040135     1.30497395    -0.00025872    -0.00001235     0.00036071
H         0.90944082     0.05013433    -0.50849242     0.00125627    -0.00043135    -0.00116325
H         0.85968001    -0.18968767     1.79197842     0.00235059    -0.00014876     0.00050329
H        -0.91400048    -0.07644624     1.84310387     0.00083781    -0.00005406    -0.00136575
H        -0.95952575     0.13079170    -0.57254593     0.00008832    -0.00022338     0.00015947
     6
  Step:     1            Position(A)                                  Velocity(au)
C        -0.03926006    -0.00147495     0.01553151    -0.00008064     0.00008416    -0.00030292
N        -0.04788683    -0.04046543     1.30705759    -0.00025042    -0.00001122     0.00039831
H         0.91657401     0.04782886    -0.51514093     0.00133342    -0.00041176    -0.00125520
H         0.87243045    -0.19053758     1.79482354     0.00228063    -0.00015742     0.00052312
H        -0.90949746    -0.07678199     1.83579877     0.00078637    -0.00006981    -0.00128681
H        -0.95916669     0.12960931    -0.57184765     0.00004056    -0.00020799     0.00009336
     6
  Step:     2            Position(A)                                  Velocity(au)
C        -0.03970318    -0.00101987     0.01376937    -0.00007931     0.00008155    -0.00033704
N        -0.04922707    -0.04052430     1.30933739    -0.00023453    -0.00001034     0.00042953
H         0.92404835     0.04562355    -0.52224311     0.00137282    -0.00039230    -0.00132104
H         0.88466420    -0.19141224     1.79770920     0.00215167    -0.00015737     0.00051668
H        -0.90538584    -0.07721101     1.82900694     0.00069070    -0.00008762    -0.00117166
H        -0.95908139     0.12851314    -0.57152314    -0.00001104    -0.00019083     0.00002321
     6
  Step:     3            Position(A)                                  Velocity(au)
C        -0.04013149    -0.00057891     0.01182815    -0.00007495     0.00007856    -0.00036591
N        -0.05046376    -0.04057905     1.31177719    -0.00021179    -0.00000963     0.00045380
H         0.93165837     0.04351836    -0.52965635     0.00137566    -0.00037301    -0.00136100
H         0.89607263    -0.19226679     1.80050073     0.00197183    -0.00014980     0.00048785
H        -0.90190815    -0.07774477     1.82292475     0.00055350    -0.00010730    -0.00102368
H        -0.95928804     0.12751248    -0.57159262    -0.00006474    -0.00017232    -0.00004935
     6
  Step:     4            Position(A)                                  Velocity(au)
C        -0.04052910    -0.00015419     0.00973721    -0.00006797     0.00007525    -0.00038930
N        -0.05156092    -0.04063038     1.31433816    -0.00018330    -0.00000901     0.00047101
H         0.93920767     0.04151308    -0.53724087     0.00134487    -0.00035403    -0.00137663
H         0.90639310    -0.19306293     1.80308516     0.00175079    -0.00013603     0.00044103
H        -0.89928652    -0.07839342     1.81772638     0.00038027    -0.00012857    -0.00084827
H        -0.95979482     0.12661421    -0.57206699    -0.00011870    -0.00015296    -0.00012264
     6
  Step:     5            Position(A)                                  Velocity(au)
C        -0.04088251     0.00025252     0.00752686    -0.00005887     0.00007171    -0.00040730
N        -0.05248899    -0.04067860     1.31698127    -0.00015036    -0.00000844     0.00048146
H         0.94651747     0.03960683    -0.54486636     0.00128457    -0.00033549    -0.00137046
H         0.91541652    -0.19376976     1.80537348     0.00149865    -0.00011747     0.00038067
H        -0.89770666    -0.07916528     1.81355246     0.00017896    -0.00015109    -0.00065238
H        -0.96059957     0.12582246    -0.57294760    -0.00017117    -0.00013326    -0.00019505
     6
  Step:     6            Position(A)                                  Velocity(au)
C        -0.04118101     0.00063987     0.00522687    -0.00004816     0.00006801    -0.00042019
N        -0.05322599    -0.04072380     1.31966970    -0.00011438    -0.00000787     0.00048578
H         0.95343271     0.03779788    -0.55241700     0.00119955    -0.00031759    -0.00134560
H         0.92298885    -0.19436380     1.80730057     0.00122515    -0.00009544     0.00031098
H        -0.89730477    -0.08006651     1.81050208    -0.00004078    -0.00017446    -0.00044381
H        -0.96169029     0.12513855    -0.57422690    -0.00022054    -0.00011369    -0.00026518
     6
  Step:     7            Position(A)                                  Velocity(au)
C        -0.04141680     0.00100703     0.00286520    -0.00003636     0.00006424    -0.00042844
N        -0.05375793    -0.04076588     1.32237053    -0.00007675    -0.00000728     0.00048483
H         0.95982536     0.03608351    -0.55979460     0.00109469    -0.00030045    -0.00130539
H         0.92900842    -0.19482861     1.80882357     0.00093898    -0.00007114     0.00023574
H        -0.89815903    -0.08110076     1.80862881    -0.00026838    -0.00019827    -0.00023056
H        -0.96304629     0.12456122    -0.57588957    -0.00026547    -0.00009465    -0.00033190
     6
  Step:     8            Position(A)                                  Velocity(au)
C        -0.04158489     0.00135359     0.00046712    -0.00002392     0.00006048    -0.00043259
N        -0.05407865    -0.04080464     1.32505587    -0.00003879    -0.00000665     0.00047955
H         0.96559410     0.03446010    -0.56691914     0.00097457    -0.00028418    -0.00125301
H         0.93342036    -0.19515413     1.80991945     0.00064758    -0.00004561     0.00015814
H        -0.90028635    -0.08226913     1.80794073    -0.00049323    -0.00022206    -0.00002024
H        -0.96463953     0.12408701    -0.57791408    -0.00030485    -0.00007649    -0.00039429
     6
  Step:     9            Position(A)                                  Velocity(au)
C        -0.04168276     0.00167956    -0.00194515    -0.00001125     0.00005677    -0.00043315
N        -0.05418927    -0.04083984     1.32770314    -0.00000166    -0.00000599     0.00047086
H         0.97066255     0.03292340    -0.57372804     0.00084326    -0.00026885    -0.00119132
H         0.93620949    -0.19533577     1.81058207     0.00035705    -0.00001972     0.00008088
H        -0.90364380    -0.08357005     1.80840372    -0.00070532    -0.00024539     0.00018034
H        -0.96643621     0.12371069    -0.58027408    -0.00033782    -0.00005943    -0.00045170
     6
  Step:    10            Position(A)                                  Velocity(au)
C        -0.04171005     0.00198526    -0.00435236     0.00000131     0.00005316    -0.00043065
N        -0.05409715    -0.04087125     1.33029484     0.00003362    -0.00000528     0.00045956
H         0.97497654     0.03146872    -0.58017427     0.00070423    -0.00025446    -0.00112278
H         0.93739309    -0.19537352     1.81081931     0.00007244     0.00000578     0.00000620
H        -0.90813403    -0.08499940     1.80994724    -0.00089582    -0.00026781     0.00036547
H        -0.96839823     0.12342572    -0.58293987    -0.00036373    -0.00004366    -0.00050362
     6
  Step:    11            Position(A)                                  Velocity(au)
C        -0.04166814     0.00227123    -0.00673808     0.00001503     0.00005339    -0.00048203
N        -0.05381504    -0.04089863     1.33281789     0.00006689    -0.00000630     0.00048997
H         0.97850027     0.03009133    -0.58622404     0.00052557    -0.00020729    -0.00100409
H         0.93701574    -0.19527146     1.81065105    -0.00023137    -0.00001254    -0.00007423
H        -0.91361391    -0.08655066     1.81247120    -0.00104064    -0.00024423     0.00051937
H        -0.97048438     0.12322474    -0.58587920    -0.00036214    -0.00008473    -0.00050594
     6
  Step:    12            Position(A)                                  Velocity(au)
C        -0.04154272     0.00257962    -0.00971828     0.00002941     0.00005724    -0.00058792
N        -0.05335258    -0.04094135     1.33574906     0.00009740    -0.00000905     0.00056295
H         0.98082710     0.02916116    -0.59135169     0.00030933    -0.00015440    -0.00083833
H         0.93481749    -0.19551314     1.80999302    -0.00054886    -0.00004526    -0.00015658
H        -0.91971826    -0.08771817     1.81572882    -0.00113338    -0.00020339     0.00063385
H        -0.97242950     0.12248249    -0.58857195    -0.00033100    -0.00015338    -0.00045626
     6
  Step:    13            Position(A)                                  Velocity(au)
C        -0.04134054     0.00290880    -0.01328633     0.00004269     0.00006069    -0.00068777
N        -0.05273024    -0.04099942     1.33908801     0.00012370    -0.00001164     0.00063171
H         0.98194563     0.02837161    -0.59556144     0.00009467    -0.00013510    -0.00067413
H         0.93090253    -0.19577561     1.80890707    -0.00084245    -0.00004370    -0.00022707
H        -0.92623757    -0.08881600     1.81953100    -0.00118770    -0.00019614     0.00071835
H        -0.97417109     0.12151644    -0.59096100    -0.00029220    -0.00018658    -0.00040025
     6
  Step:    14            Position(A)                                  Velocity(au)
C        -0.04106665     0.00325640    -0.01738774     0.00005493     0.00006363    -0.00077595
N        -0.05197318    -0.04107115     1.34279342     0.00014505    -0.00001387     0.00069150
H         0.98188273     0.02765464    -0.59886904    -0.00011250    -0.00012456    -0.00051380
H         0.92542317    -0.19600040     1.80746092    -0.00110381    -0.00003560    -0.00028393
H        -0.93296251    -0.08990540     1.82373932    -0.00120339    -0.00019601     0.00077777
H        -0.97568783     0.12040187    -0.59303520    -0.00025062    -0.00020932    -0.00034315
     6
  Step:    15            Position(A)                                  Velocity(au)
C        -0.04072685     0.00361959    -0.02195469     0.00006597     0.00006598    -0.00085058
N        -0.05110979    -0.04115438     1.34681291     0.00016098    -0.00001567     0.00074077
H         0.98068891     0.02698014    -0.60130120    -0.00030764    -0.00011804    -0.00035990
H         0.91857161    -0.19617331     1.80573523    -0.00132579    -0.00002678    -0.00032484
H        -0.93968099    -0.09100563     1.82821971    -0.00118124    -0.00019776     0.00081312
H        -0.97697087     0.11917803    -0.59479447    -0.00020843    -0.00022600    -0.00028690
     6
  Step:    16            Position(A)                                  Velocity(au)
C        -0.04032800     0.00399512    -0.02691096     0.00007566     0.00006773    -0.00091086
N        -0.05017086    -0.04124654     1.35108719     0.00017121    -0.00001696     0.00077889
H         0.97843828     0.02633302    -0.60289859    -0.00048670    -0.00011357    -0.00021527
H         0.91057940    -0.19630029     1.80382393    -0.00150238    -0.00002017    -0.00034778
H        -0.94618793    -0.09211955     1.83284318    -0.00112419    -0.00019932     0.00082616
H        -0.97802145     0.11787152    -0.59624740    -0.00016748    -0.00023838    -0.00023314
     6
  Step:    17            Position(A)                                  Velocity(au)
C        -0.03987778     0.00437965    -0.03217687     0.00008391     0.00006890    -0.00095714
N        -0.04918835    -0.04134469     1.35555412     0.00017580    -0.00001770     0.00080616
H         0.97522690     0.02570561    -0.60371714    -0.00064645    -0.00011021    -0.00008255
H         0.90171099    -0.19639966     1.80183224    -0.00162965    -0.00001756    -0.00035132
H        -0.95229735    -0.09324252     1.83749138    -0.00103722    -0.00019986     0.00081978
H        -0.97885038     0.11650275    -0.59741090    -0.00012943    -0.00024747    -0.00018336
     6
  Step:    18            Position(A)                                  Velocity(au)
C        -0.03938435     0.00477001    -0.03767524     0.00009072     0.00006959    -0.00099076
N        -0.04819381    -0.04144562     1.36015353     0.00017501    -0.00001787     0.00082363
H         0.97116810     0.02509355    -0.60382701    -0.00078486    -0.00010753     0.00003617
H         0.89225184    -0.19649776     1.79987286    -0.00170602    -0.00002023    -0.00033473
H        -0.95785284    -0.09436722     1.84206263    -0.00092651    -0.00019925     0.00079767
H        -0.97947709     0.11508841    -0.59830950    -0.00009569    -0.00025400    -0.00013875
     6
  Step:    19            Position(A)                                  Velocity(au)
C        -0.03885593     0.00516354    -0.04333660     0.00009613     0.00006991    -0.00101356
N        -0.04721702    -0.04154597     1.36483138     0.00016930    -0.00001745     0.00083276
H         0.96638642     0.02449439    -0.60330976    -0.00090084    -0.00010529     0.00013951
H         0.88249473    -0.19662753     1.79806191    -0.00173172    -0.00002910    -0.00029783
H        -0.96273342    -0.09548679     1.84647619    -0.00079840    -0.00019764     0.00076375
H        -0.97992816     0.11364179    -0.59897379    -0.00006725    -0.00025861    -0.00010014
     6
  Step:    20            Position(A)                                  Velocity(au)
C        -0.03830056     0.00555814    -0.04910194     0.00010018     0.00006993    -0.00102729
N        -0.04628513    -0.04164231     1.36954187     0.00015913    -0.00001642     0.00083488
H         0.96101221     0.02390652    -0.60225415    -0.00099376    -0.00010335     0.00022671
H         0.87272872    -0.19682578     1.79651523    -0.00170798    -0.00004473    -0.00024085
H        -0.96685384    -0.09659543     1.85067304    -0.00065854    -0.00019526     0.00072154
H        -0.98023530     0.11217291    -0.59943849    -0.00004479    -0.00026180    -0.00006797
     6
  Step:    21            Position(A)                                  Velocity(au)
C        -0.03772610     0.00595222    -0.05492201     0.00010285     0.00006972    -0.00103320
N        -0.04542244    -0.04173120     1.37424683     0.00014493    -0.00001480     0.00083095
H         0.95517921     0.02332889    -0.60075303    -0.00106286    -0.00010158     0.00029726
H         0.86323281    -0.19713195     1.79534574    -0.00163639    -0.00006744    -0.00016439
H        -0.97016022    -0.09768886     1.85461346    -0.00051170    -0.00019228     0.00067388
H        -0.98043333     0.11068931    -0.59974031    -0.00002867    -0.00026386    -0.00004237
     6
  Step:    22            Position(A)                                  Velocity(au)
C        -0.03714056     0.00634448    -0.06075459     0.00010407     0.00006929    -0.00103199
N        -0.04465055    -0.04180925     1.37891355     0.00012717    -0.00001258     0.00082154
H         0.94902498     0.02276090    -0.59890161    -0.00110709    -0.00009984     0.00035074
H         0.85427318    -0.19758642     1.79466121    -0.00151925    -0.00009724    -0.00006963
H        -0.97262496    -0.09876400     1.85827319    -0.00036196    -0.00018884     0.00062300
H        -0.98055860     0.10919700    -0.59991630    -0.00001901    -0.00026493    -0.00002328
     6
  Step:    23            Position(A)                                  Velocity(au)
C        -0.03655236     0.00673373    -0.06656143     0.00010373     0.00006864    -0.00102409
N        -0.04398811    -0.04187313     1.38351263     0.00010638    -0.00000979     0.00080701
H         0.94269277     0.02220279    -0.59679712    -0.00112528    -0.00009799     0.00038682
H         0.84609781    -0.19822866     1.79456043    -0.00136030    -0.00013374     0.00004145
H        -0.97424266    -0.09981876     1.86163998    -0.00021303    -0.00018511     0.00057075
H        -0.98064769     0.10770130    -0.60000288    -0.00001576    -0.00026503    -0.00001053
     6
  Step:    24            Position(A)                                  Velocity(au)
C        -0.03597046     0.00711877    -0.07230667     0.00010175     0.00006777    -0.00100990
N        -0.04345051    -0.04191972     1.38801695     0.00008323    -0.00000648     0.00078781
H         0.93633147     0.02165556    -0.59453811    -0.00111659    -0.00009593     0.00040536
H         0.83892858    -0.19909508     1.79512875    -0.00116521    -0.00017616     0.00016592
H        -0.97502803    -0.10085214     1.86471139    -0.00006845    -0.00018121     0.00051881
H        -0.98073642     0.10620739    -0.60003504    -0.00001872    -0.00026421    -0.00000381
     6
  Step:    25            Position(A)                                  Velocity(au)
C        -0.03540427     0.00749842    -0.07795677     0.00009808     0.00006669    -0.00098998
N        -0.04304902    -0.04194629     1.39240198     0.00005851    -0.00000274     0.00076452
H         0.93009351     0.02112039    -0.59222321    -0.00108084    -0.00009363     0.00040654
H         0.83295000    -0.20021635     1.79643264    -0.00094181    -0.00022329     0.00030000
H        -0.97501508    -0.10186348     1.86749409     0.00006843    -0.00017727     0.00046881
H        -0.98085896     0.10472010    -0.60004589    -0.00002751    -0.00026255    -0.00000275
     6
  Step:    26            Position(A)                                  Velocity(au)
C        -0.03486339     0.00787160    -0.08348130     0.00009272     0.00006544    -0.00096510
N        -0.04279010    -0.04195061     1.39664663     0.00003313     0.00000134     0.00073792
H         0.92413122     0.02059867    -0.58994924    -0.00101865    -0.00009110     0.00039099
H         0.82829769    -0.20161555     1.79851508    -0.00069963    -0.00027368     0.00043929
H        -0.97425565    -0.10285307     1.87000318     0.00019462    -0.00017348     0.00042223
H        -0.98104694     0.10324379    -0.60006606    -0.00004159    -0.00026019    -0.00000685
     6
  Step:    27            Position(A)                                  Velocity(au)
C        -0.03435727     0.00823735    -0.08885409     0.00008576     0.00006405    -0.00093613
N        -0.04267496    -0.04193116     1.40073420     0.00000802     0.00000562     0.00070890
H         0.91859145     0.02009177    -0.58780832    -0.00093150    -0.00008832     0.00035983
H         0.82505019    -0.20330661     1.80139286    -0.00044913    -0.00032566     0.00057913
H        -0.97281751    -0.10382232     1.87226163     0.00030759    -0.00017007     0.00038040
H        -0.98132863     0.10178213    -0.60012325    -0.00006034    -0.00025731    -0.00001556
     6
  Step:    28            Position(A)                                  Velocity(au)
C        -0.03389485     0.00859494    -0.09405389     0.00007730     0.00006255    -0.00090400
N        -0.04269947    -0.04188710     1.40465291    -0.00001589     0.00000999     0.00067834
H         0.91361084     0.01960120    -0.58588538    -0.00082163    -0.00008535     0.00031452
H         0.82322521    -0.20529356     1.80505578    -0.00020093    -0.00037749     0.00071489
H        -0.97078178    -0.10477387     1.87429939     0.00040526    -0.00016727     0.00034446
H        -0.98172839     0.10033773    -0.60024183    -0.00008302    -0.00025409    -0.00002828
     6
  Step:    29            Position(A)                                  Velocity(au)
C        -0.03348421     0.00894386    -0.09906449     0.00006752     0.00006100    -0.00086957
N        -0.04285439    -0.04181835     1.40839586    -0.00003777     0.00001431     0.00064706
H         0.90931135     0.01912778    -0.58425594    -0.00069195    -0.00008228     0.00025690
H         0.82278071    -0.20757023     1.80946737     0.00003500    -0.00042744     0.00084224
H        -0.96824019    -0.10571159     1.87615226     0.00048608    -0.00016528     0.00031532
H        -0.98226626     0.09891223    -0.60044270    -0.00010885    -0.00025072    -0.00004439
     6
  Step:    30            Position(A)                                  Velocity(au)
C        -0.03313228     0.00928385    -0.10387454     0.00005665     0.00005942    -0.00083362
N        -0.04312602    -0.04172553     1.41196056    -0.00005691     0.00001847     0.00061574
H         0.90579616     0.01867198    -0.58298399    -0.00054600    -0.00007923     0.00018911
H         0.82362046    -0.21012090     1.81456777     0.00024993    -0.00047394     0.00095738
H        -0.96529216    -0.10664048     1.87786056     0.00054893    -0.00016428     0.00029364
H        -0.98295770     0.09750624    -0.60074316    -0.00013704    -0.00024732    -0.00006327
     6
  Step:    31            Position(A)                                  Velocity(au)
C        -0.03284458     0.00961483    -0.10847688     0.00004494     0.00005785    -0.00079680
N        -0.04349697    -0.04160984     1.41534820    -0.00007275     0.00002237     0.00058494
H         0.90314645     0.01823324    -0.58212069    -0.00038779    -0.00007624     0.00011349
H         0.82560266    -0.21292146     1.82027711     0.00043682    -0.00051562     0.00105726
H        -0.96204222    -0.10756646     1.87946772     0.00059315    -0.00016441     0.00027982
H        -0.98381356     0.09611973    -0.60115709    -0.00016676    -0.00024405    -0.00008431
     6
  Step:    32            Position(A)                                  Velocity(au)
C        -0.03262500     0.00993685    -0.11286809     0.00003270     0.00005631    -0.00075969
N        -0.04394716    -0.04147301     1.41856274    -0.00008490     0.00002594     0.00055504
H         0.90141914     0.01781151    -0.58170304    -0.00022172    -0.00007328     0.00003255
H         0.82855091    -0.21594075     1.82650107     0.00059057    -0.00055141     0.00113970
H        -0.95859721    -0.10849623     1.88101894     0.00061852    -0.00016580     0.00027407
H        -0.98483998     0.09475166    -0.60169476    -0.00019722    -0.00024103    -0.00010690
     6
  Step:    33            Position(A)                                  Velocity(au)
C        -0.03247567     0.01025009    -0.11704776     0.00002023     0.00005480    -0.00072274
N        -0.04445480    -0.04131713     1.42161021    -0.00009314     0.00002913     0.00052633
H         0.90064492     0.01740647    -0.58175344    -0.00005247    -0.00007041    -0.00005112
H         0.83226556    -0.21914248     1.83313530     0.00070802    -0.00058053     0.00120331
H        -0.95506401    -0.10943700     1.88255987     0.00062522    -0.00016850     0.00027636
H        -0.98603857     0.09340036    -0.60236312    -0.00022761    -0.00023837    -0.00013048
     6
  Step:    34            Position(A)                                  Velocity(au)
C        -0.03239682     0.01055480    -0.12101813     0.00000788     0.00005334    -0.00068638
N        -0.04499742    -0.04114453     1.42449799    -0.00009742     0.00003190     0.00049901
H         0.90082744     0.01701755    -0.58227955     0.00011522    -0.00006765    -0.00013499
H         0.83653498    -0.22248716     1.84007030     0.00078792    -0.00060259     0.00124757
H        -0.95154694    -0.11039632     1.88413529     0.00061390    -0.00017256     0.00028641
H        -0.98740664     0.09206366    -0.60316607    -0.00025721    -0.00023613    -0.00015452
     6
  Step:    35            Position(A)                                  Velocity(au)
C        -0.03238681     0.01085131    -0.12478358    -0.00000403     0.00005195    -0.00065095
N        -0.04555275    -0.04095764     1.42723430    -0.00009785     0.00003424     0.00047318
H         0.90194350     0.01664406    -0.58327482     0.00027674    -0.00006502    -0.00021662
H         0.84114576    -0.22593396     1.84719599     0.00083068    -0.00061749     0.00127268
H        -0.94814508    -0.11138180     1.88578781     0.00058570    -0.00017797     0.00030373
H        -0.98893746     0.09073902    -0.60410464    -0.00028534    -0.00023439    -0.00017855
     6
  Step:    36            Position(A)                                  Velocity(au)
C        -0.03244220     0.01113998    -0.12835036    -0.00001520     0.00005063    -0.00061675
N        -0.04609961    -0.04075888     1.42982785    -0.00009468     0.00003617     0.00044890
H         0.90394463     0.01628516    -0.58471957     0.00042784    -0.00006254    -0.00029385
H         0.84589172    -0.22944256     1.85440573     0.00083817    -0.00062545     0.00127954
H        -0.94494965    -0.11240091     1.88755653     0.00054222    -0.00018468     0.00032762
H        -0.99062064     0.08942352    -0.60517728    -0.00031137    -0.00023319    -0.00020215
     6
  Step:    37            Position(A)                                  Velocity(au)
C        -0.03255793     0.01142122    -0.13172630    -0.00002537     0.00004938    -0.00058404
N        -0.04661856    -0.04055053     1.43228751    -0.00008826     0.00003770     0.00042619
H         0.90675972     0.01594000    -0.58658263     0.00056483    -0.00006022    -0.00036480
H         0.85058101    -0.23297468     1.86159976     0.00081332    -0.00062693     0.00126955
H        -0.94204139    -0.11346072     1.88947581     0.00048547    -0.00019261     0.00035714
H        -0.99244251     0.08811401    -0.60638019    -0.00033477    -0.00023258    -0.00022493
     6
  Step:    38            Position(A)                                  Velocity(au)
C        -0.03272762     0.01169544    -0.13492048    -0.00003433     0.00004820    -0.00055301
N        -0.04709250    -0.04033472     1.43462222    -0.00007903     0.00003889     0.00040504
H         0.91029869     0.01560771    -0.58882336     0.00068470    -0.00005804    -0.00042799
H         0.85504114    -0.23649523     1.86868750     0.00075978    -0.00062256     0.00124443
H        -0.93948833    -0.11456770     1.89157418     0.00041787    -0.00020164     0.00039119
H        -0.99438665     0.08680708    -0.60770760    -0.00035509    -0.00023261    -0.00024658
     6
  Step:    39            Position(A)                                  Velocity(au)
C        -0.03294383     0.01196309    -0.13794295    -0.00004191     0.00004711    -0.00052380
N        -0.04750695    -0.04011334     1.43684079    -0.00006746     0.00003977     0.00038544
H         0.91445676     0.01528749    -0.59139391     0.00078521    -0.00005600    -0.00048235
H         0.85912207    -0.23997320     1.87558911     0.00068163    -0.00061310     0.00120616
H        -0.93734392    -0.11572745     1.89387338     0.00034208    -0.00021160     0.00042851
H        -0.99643428     0.08549914    -0.60915209    -0.00037195    -0.00023330    -0.00026683
     6
  Step:    40            Position(A)                                  Velocity(au)
C        -0.03319845     0.01222462    -0.14080439    -0.00004804     0.00004609    -0.00049651
N        -0.04785032    -0.03988801     1.43895184    -0.00005408     0.00004038     0.00036733
H         0.91911901     0.01497862    -0.59424163     0.00086494    -0.00005408    -0.00052720
H         0.86269795    -0.24338220     1.88223641     0.00058316    -0.00059938     0.00115680
H        -0.93564577    -0.11694457     1.89638768     0.00026096    -0.00022229     0.00046775
H        -0.99856483     0.08418645    -0.61070493    -0.00038507    -0.00023467    -0.00028548
     6
  Step:    41            Position(A)                                  Velocity(au)
C        -0.03348301     0.01248046    -0.14351583    -0.00005266     0.00004516    -0.00047117
N        -0.04811398    -0.03966010     1.44096375    -0.00003940     0.00004078     0.00035068
H         0.92416498     0.01468048    -0.59731127     0.00092324    -0.00005225    -0.00056225
H         0.86566749    -0.24670071     1.88857310     0.00046860    -0.00058227     0.00109838
H        -0.93441492    -0.11822245     1.89912344     0.00017744    -0.00023350     0.00050748
H        -1.00075631     0.08286518    -0.61235633    -0.00039422    -0.00023674    -0.00030236
     6
  Step:    42            Position(A)                                  Velocity(au)
C        -0.03378903     0.01273106    -0.14608841    -0.00005580     0.00004430    -0.00044777
N        -0.04829220    -0.03943072     1.44288463    -0.00002392     0.00004100     0.00033544
H         0.92947285     0.01439260    -0.60054708     0.00096010    -0.00005050    -0.00058752
H         0.86795317    -0.24991213     1.89455444     0.00034203    -0.00056260     0.00103289
H        -0.93365581    -0.11956316     1.90207895     0.00009444    -0.00024498     0.00054629
H        -1.00298584     0.08153144    -0.61409576    -0.00039926    -0.00023952    -0.00031735
     6
  Step:    43            Position(A)                                  Velocity(au)
C        -0.03410822     0.01297682    -0.14853310    -0.00005750     0.00004351    -0.00042627
N        -0.04838202    -0.03920073     1.44472230    -0.00000812     0.00004109     0.00032153
H         0.93492287     0.01411463    -0.60389440     0.00097611    -0.00004879    -0.00060331
H         0.86949988    -0.25300459     1.90014663     0.00020727    -0.00054120     0.00096220
H        -0.93335678    -0.12096741     1.90524458     0.00001470    -0.00025648     0.00058279
H        -1.00522995     0.08018135    -0.61591216    -0.00040011    -0.00024300    -0.00033037
     6
  Step:    44            Position(A)                                  Velocity(au)
C        -0.03443275     0.01321816    -0.15086050    -0.00005786     0.00004279    -0.00040659
N        -0.04838305    -0.03897073     1.44648418     0.00000758     0.00004109     0.00030891
H         0.94040030     0.01384635    -0.60730103     0.00097230    -0.00004711    -0.00061011
H         0.87027349    -0.25597083     1.90532615     0.00006788    -0.00051886     0.00088803
H        -0.93349123    -0.12243447     1.90860323    -0.00005923    -0.00026776     0.00061570
H        -1.00746503     0.07881103    -0.61779418    -0.00039677    -0.00024718    -0.00034138
     6