    14
  Step:     0            Position(A)                                  Velocity(au)
C        -6.04001835    -0.59087371    -0.11339277    -0.00017242    -0.00000367     0.00009482
C        -4.69782980    -0.80568807     0.16774089     0.00027285     0.00008450     0.00005582
H        -6.33119328     0.39803539    -0.48353752     0.00128927    -0.00113717     0.00056221
H        -6.88497401    -1.27634131     0.04361243    -0.00012640    -0.00004279    -0.00087080
H        -4.33701507    -1.80346843     0.46390511     0.00033859    -0.00052780     0.00001014
C        -3.85911375     0.29543425    -0.07798626    -0.00004335     0.00016841    -0.00016067
C        -2.46231489     0.38030106     0.21171716    -0.00020869    -0.00008412     0.00008074
H        -4.34466556     1.12035918    -0.58498743     0.00095327    -0.00012015     0.00066704
H        -1.91901532    -0.46163350     0.64170444     0.00049335    -0.00042234    -0.00051806
C        -1.83347530     1.67526488    -0.05375118     0.00026340     0.00030369    -0.00006835
H        -2.46767261     2.46790072    -0.53729924    -0.00061573     0.00053887    -0.00027431
N        -0.60861913     1.92687708     0.23243822    -0.00024273    -0.00030472    -0.00007493
H        -0.15995535     2.81100859    -0.03478075     0.00055261    -0.00067007     0.00033577
H         0.05582196     1.23531577     0.67445519    -0.00084382     0.00102951     0.00110111
    14
  Step:     1            Position(A)                                  Velocity(au)
C        -6.04209437    -0.59089376    -0.11237604    -0.00020312    -0.00000426     0.00009262
C        -4.69474730    -0.80476208     0.16832243     0.00028932     0.00008353     0.00005061
H        -6.31708724     0.38542647    -0.47732677     0.00126561    -0.00111046     0.00055237
H        -6.88567484    -1.27695727     0.03409291    -0.00000685    -0.00007357    -0.00086678
H        -4.33329744    -1.80860401     0.46434050     0.00033711    -0.00039229     0.00006431
C        -3.85989932     0.29709335    -0.07978759    -0.00009879     0.00013175    -0.00016662
C        -2.46422391     0.37972911     0.21258075    -0.00013810    -0.00001999     0.00007716
H        -4.33412234     1.11965374    -0.57759775     0.00095038     0.00002142     0.00066326
H        -1.91355865    -0.46605407     0.63594391     0.00049431    -0.00037483    -0.00054026
C        -1.83117188     1.67823246    -0.05455354     0.00015219     0.00023755    -0.00007922
H        -2.47349464     2.47301043    -0.53969450    -0.00043385     0.00038359    -0.00015664
N        -0.61074915     1.92361554     0.23173660    -0.00014526    -0.00028891    -0.00005355
H        -0.15424699     2.80320845    -0.03092267     0.00049009    -0.00074657     0.00036538
H         0.04508213     1.24770389     0.68567622    -0.00109586     0.00120049     0.00096587
    14
  Step:     2            Position(A)                                  Velocity(au)
C        -6.04446210    -0.59096698    -0.11136660    -0.00022558    -0.00001351     0.00009355
C        -4.69150037    -0.80386071     0.16884804     0.00030273     0.00008040     0.00004550
H        -6.30350568     0.37374185    -0.47145341     0.00119362    -0.00096588     0.00049959
H        -6.88512398    -1.27795085     0.02464989     0.00009953    -0.00011326    -0.00085673
H        -4.32964007    -1.81205061     0.46531209     0.00032917    -0.00022397     0.00010938
C        -3.86127489     0.29831662    -0.08163137    -0.00015088     0.00008919    -0.00016858
C        -2.46533618     0.37986368     0.21340509    -0.00006381     0.00004465     0.00007349
H        -4.32387419     1.12082786    -0.57047725     0.00090093     0.00021958     0.00062031
H        -1.90820140    -0.46983358     0.62988512     0.00047661    -0.00030626    -0.00057162
C        -1.83014581     1.68046175    -0.05548424     0.00003259     0.00016911    -0.00009112
H        -2.47716400     2.47629241    -0.54072614    -0.00022867     0.00021087    -0.00002930
N        -0.61179699     1.92055664     0.23126665    -0.00004764    -0.00026777    -0.00003346
H        -0.14923370     2.79467586    -0.02678740     0.00042924    -0.00079787     0.00038463
H         0.03184800     1.26157873     0.69558537    -0.00128773     0.00129074     0.00087063
    14
  Step:     3            Position(A)                                  Velocity(au)
C        -6.04702926    -0.59118932    -0.11032942    -0.00023970    -0.00003101     0.00009751
C        -4.68812449    -0.80300319     0.16931780     0.00031272     0.00007591     0.00004031
H        -6.29097456     0.36429608    -0.46639735     0.00107618    -0.00070677     0.00040497
H        -6.88349746    -1.27943497     0.01535026     0.00018741    -0.00016437    -0.00084064
H        -4.32609627    -1.81350386     0.46673343     0.00031808    -0.00003345     0.00014788
C        -3.86320013     0.29904465    -0.08347550    -0.00019905     0.00004210    -0.00016704
C        -2.46561986     0.38070594     0.21418859     0.00001245     0.00010904     0.00006957
H        -4.31441277     1.12445738    -0.56402727     0.00081070     0.00046203     0.00054574
H        -1.90313183    -0.47275405     0.62343870     0.00044374    -0.00021964    -0.00060978
C        -1.83045887     1.68193203    -0.05654705    -0.00008980     0.00009920    -0.00010267
H        -2.47849715     2.47762365    -0.54033555    -0.00001340     0.00003300     0.00009909
N        -0.61179136     1.91775745     0.23100451     0.00004469    -0.00024164    -0.00001645
H        -0.14485643     2.78575350    -0.02250811     0.00037724    -0.00081278     0.00039030
H         0.01691048     1.27594122     0.70472302    -0.00139752     0.00128162     0.00083350
    14
  Step:     4            Position(A)                                  Velocity(au)
C        -6.04970604    -0.59164534    -0.10923332    -0.00024601    -0.00005499     0.00010388
C        -4.68465893    -0.80219996     0.16972986     0.00031894     0.00007083     0.00003487
H        -6.27996221     0.35827994    -0.46259395     0.00092085    -0.00035364     0.00027596
H        -6.88102406    -1.28154680     0.00625931     0.00025271    -0.00022869    -0.00081880
H        -4.32268146    -1.81278244     0.46854731     0.00030735     0.00016766     0.00018254
C        -3.86562946     0.29923770    -0.08528569    -0.00024284    -0.00000732    -0.00016289
C        -2.46506372     0.38224913     0.21492712     0.00008866     0.00017246     0.00006512
H        -4.30613847     1.13093576    -0.55853807     0.00069000     0.00072835     0.00045175
H        -1.89849375    -0.47463867     0.61654505     0.00040015    -0.00011926    -0.00065175
C        -1.83211026     1.68263190    -0.05773031    -0.00020934     0.00002866    -0.00011248
H        -2.47745716     2.47701425    -0.53855831     0.00019843    -0.00013788     0.00021998
N        -0.61081923     1.91527037     0.23090685     0.00012691    -0.00021112    -0.00000410
H        -0.14098077     2.77689473    -0.01824884     0.00034027    -0.00078291     0.00038017
H         0.00127455     1.28961660     0.71381975    -0.00141047     0.00116196     0.00086913
    14
  Step:     5            Position(A)                                  Velocity(au)
C        -6.05241116    -0.59239236    -0.10805682    -0.00024548    -0.00008235     0.00011154
C        -4.68114713    -0.80145363     0.17008071     0.00032095     0.00006580     0.00002905
H        -6.27082923     0.35655947    -0.46036030     0.00073905     0.00005572     0.00012637
H        -6.87796899    -1.28443791    -0.00256249     0.00029305    -0.00030691    -0.00079180
H        -4.31937236    -1.80983587     0.47072673     0.00030048     0.00036731     0.00021613
C        -3.86851279     0.29888457    -0.08703914    -0.00028182    -0.00005619    -0.00015727
C        -2.46368025     0.38447877     0.21561327     0.00016253     0.00023417     0.00005983
H        -4.29931767     1.14039147    -0.55414443     0.00055197     0.00099213     0.00035338
H        -1.89437769    -0.47536315     0.60918048     0.00035096    -0.00001026    -0.00069413
C        -1.83503853     1.68255911    -0.05900779    -0.00032077    -0.00004168    -0.00011932
H        -2.47415603     2.47460728    -0.53552306     0.00039320    -0.00028955     0.00032490
N        -0.60901498     1.91313881     0.23091473     0.00019554    -0.00017735     0.00000252
H        -0.13741247     2.76862593    -0.01419117     0.00032265    -0.00070395     0.00035341
H        -0.01394615     1.30136134     0.72373698    -0.00132404     0.00093290     0.00098420
    14
  Step:     6            Position(A)                                  Velocity(au)
C        -6.05507640    -0.59344695    -0.10679312    -0.00023940    -0.00010912     0.00011906
C        -4.67763759    -0.80076040     0.17036544     0.00031824     0.00006134     0.00002273
H        -6.26379398     0.35949898    -0.45982929     0.00054410     0.00047167    -0.00002554
H        -6.87461300    -1.28826115    -0.01106286     0.00030814    -0.00039842    -0.00076053
H        -4.31610793    -1.80474674     0.47327560     0.00030078     0.00055349     0.00025148
C        -3.87179473     0.29800852    -0.08872626    -0.00031539    -0.00010130    -0.00015134
C        -2.46150815     0.38737203     0.21623598     0.00023161     0.00029336     0.00005337
H        -4.29406300     1.15264040    -0.55080711     0.00041019     0.00122507     0.00026591
H        -1.89081583    -0.47486309     0.60135971     0.00030154     0.00010175    -0.00073341
C        -1.83912768     1.68172015    -0.06034062    -0.00041951    -0.00011104    -0.00012215
H        -2.46885522     2.47067983    -0.53145047     0.00055744    -0.00040981     0.00040563
N        -0.60654136     1.91139053     0.23096207     0.00024910    -0.00014214     0.00000335
H        -0.13392213     2.76149445    -0.01051736     0.00032612    -0.00057684     0.00031084
H        -0.02769130     1.31002565     0.73535096    -0.00115203     0.00061213     0.00117235
    14
  Step:     7            Position(A)                                  Velocity(au)
C        -6.05764849    -0.59477956    -0.10545219    -0.00022912    -0.00013133     0.00012498
C        -4.67418502    -0.80011172     0.17057807     0.00031022     0.00005781     0.00001583
H        -6.25892606     0.36687815    -0.46091913     0.00034860     0.00084270    -0.00016090
H        -6.87122779    -1.29315416    -0.01920053     0.00030006    -0.00050091    -0.00072608
H        -4.31279220    -1.79772721     0.47622825     0.00031125     0.00071477     0.00029128
C        -3.87541255     0.29666836    -0.09034994    -0.00034281    -0.00013961    -0.00014611
C        -2.45861324     0.39089668     0.21678074     0.00029351     0.00034913     0.00004545
H        -4.29034398     1.16719215    -0.54832711     0.00027613     0.00140184     0.00020200
H        -1.88778100    -0.47313716     0.59313582     0.00025718     0.00021103    -0.00076621
C        -1.84421602     1.68012992    -0.06168004    -0.00050186    -0.00017866    -0.00012022
H        -2.46196091     2.46564195    -0.52664909     0.00067861    -0.00048689     0.00045459
N        -0.60356548     1.91002925     0.23098811     0.00028822    -0.00010799    -0.00000052
H        -0.13027790     2.75600651    -0.00739093     0.00034922    -0.00040832     0.00025509
H        -0.03914910     1.31475281     0.74938445    -0.00092477     0.00023458     0.00141145
    14
  Step:     8            Position(A)                                  Velocity(au)
C        -6.06008887    -0.59631996    -0.10405890    -0.00021591    -0.00014592     0.00012817
C        -4.67085092    -0.79949579     0.17071180     0.00029629     0.00005544     0.00000829
H        -6.25616771     0.37793469    -0.46334938     0.00016242     0.00112620    -0.00026411
H        -6.86804865    -1.29921960    -0.02694716     0.00027332    -0.00061026    -0.00068965
H        -4.30929880    -1.78910967     0.47964793     0.00033433     0.00084100     0.00033802
C        -3.87929441     0.29495432    -0.09192268    -0.00036323    -0.00016860    -0.00014228
C        -2.45508708     0.39500995     0.21723029     0.00034602     0.00040046     0.00003589
H        -4.28802207     1.18330829    -0.54638802     0.00015754     0.00150404     0.00016976
H        -1.88518950    -0.47024641     0.58459748     0.00022277     0.00031207    -0.00078951
C        -1.85010683     1.67781173    -0.06297070    -0.00056514    -0.00024370    -0.00011311
H        -2.45400943     2.46002817    -0.52150549     0.00074610    -0.00051045     0.00046550
N        -0.60023600     1.90902812     0.23095078     0.00031530    -0.00007773    -0.00000695
H        -0.12628225     2.75256176    -0.00493683     0.00038716    -0.00021086     0.00019047
H        -0.04792234     1.31515754     0.76622913    -0.00068353    -0.00015232     0.00166546
    14
  Step:     9            Position(A)                                  Velocity(au)
C        -6.06237194    -0.59797182    -0.10264822    -0.00020086    -0.00015135     0.00012799
C        -4.66770304    -0.79889894     0.17075944     0.00027597     0.00005433     0.00000010
H        -6.25537273     0.39151602    -0.46669715    -0.00000824     0.00129567    -0.00032554
H        -6.86524843    -1.30650485    -0.03428790     0.00023457    -0.00072064    -0.00065243
H        -4.30547819    -1.77932866     0.48362310     0.00037164     0.00092416     0.00039369
C        -3.88335894     0.29297988    -0.09346256    -0.00037583    -0.00018662    -0.00014017
C        -2.45104329     0.39965751     0.21756598     0.00038737     0.00044624     0.00002464
H        -4.28689747     1.20009591    -0.54461335     0.00005793     0.00152235     0.00017205
H        -1.88290756    -0.46630993     0.57586372     0.00020241     0.00039997    -0.00080087
C        -1.85657955     1.67479846    -0.06415453    -0.00060771    -0.00030515    -0.00010078
H        -2.44563860     2.45447490    -0.51646543     0.00075300    -0.00047346     0.00043455
N        -0.59666773     1.90832877     0.23083615     0.00033363    -0.00005394    -0.00001327
H        -0.12180795     2.75139350    -0.00322403     0.00043227    -0.00000160     0.00012262
H        -0.05410272     1.31142046     0.78581956    -0.00047063    -0.00049836     0.00189175
    14
  Step:    10            Position(A)                                  Velocity(au)
C        -6.06448312    -0.59963093    -0.10125896    -0.00018491    -0.00014763     0.00012432
C        -4.66481361    -0.79830720     0.17071390     0.00024896     0.00005443    -0.00000871
H        -6.25634806     0.40627999    -0.47047117    -0.00016064     0.00134230    -0.00034206
H        -6.86291707    -1.31498500    -0.04122032     0.00019186    -0.00082499    -0.00061544
H        -4.30116850    -1.76889200     0.48826073     0.00042365     0.00095938     0.00045949
C        -3.88751636     0.29087170    -0.09498921    -0.00037996    -0.00019288    -0.00013980
C        -2.44661258     0.40477239     0.21776932     0.00041626     0.00048529     0.00001179
H        -4.28675477     1.21661255    -0.54262400    -0.00002275     0.00145627     0.00020715
H        -1.88076132    -0.46149629     0.56707691     0.00019918     0.00047076    -0.00079853
C        -1.86340174     1.67113590    -0.06517554    -0.00062906    -0.00036160    -0.00008368
H        -2.43753617     2.44967040    -0.51199893     0.00069787    -0.00037459     0.00036171
N        -0.59293716     1.90784802     0.23066041     0.00034650    -0.00003830    -0.00001702
H        -0.11682544     2.75252677    -0.00225430     0.00047506     0.00019979     0.00005779
H        -0.05821833     1.30425485     0.80761468    -0.00031893    -0.00076159     0.00205125
    14
  Step:    11            Position(A)                                  Velocity(au)
C        -6.06641710    -0.60120154    -0.09992838    -0.00016882    -0.00013605     0.00011749
C        -4.66225657    -0.79770829     0.17056896     0.00021528     0.00005546    -0.00001799
H        -6.25888700     0.42088137    -0.47418030    -0.00029447     0.00127189    -0.00031591
H        -6.86105106    -1.32455304    -0.04775183     0.00015368    -0.00091580    -0.00057941
H        -4.29621013    -1.75834048     0.49367537     0.00048933     0.00094587     0.00053545
C        -3.89167132     0.28876029    -0.09652087    -0.00037528    -0.00018741    -0.00014092
C        -2.44193690     0.41027411     0.21782383     0.00043189     0.00051630    -0.00000240
H        -4.28739513     1.23195463    -0.54008146    -0.00008693     0.00131251     0.00027002
H        -1.87855013    -0.45601105     0.55839432     0.00021478     0.00052183    -0.00078156
C        -1.87034146     1.66688781    -0.06598528    -0.00062975    -0.00041105    -0.00006278
H        -2.43037136     2.44628013    -0.50855235     0.00058615    -0.00022047     0.00025187
N        -0.58908746     1.90749079     0.23046376     0.00035644    -0.00003124    -0.00001650
H        -0.11141516     2.75576431    -0.00195987     0.00050576     0.00037383     0.00000198
H        -0.06107988     1.29475919     0.83069451    -0.00024553    -0.00091614     0.00211715
    14
  Step:    12            Position(A)                                  Velocity(au)
C        -6.06817632    -0.60260734    -0.09868854    -0.00015323    -0.00011863     0.00010805
C        -4.66010393    -0.79709399     0.17032024     0.00017529     0.00005694    -0.00002755
H        -6.26279019     0.43410507    -0.47738223    -0.00041091     0.00109986    -0.00025283
H        -6.85955507    -1.33501997    -0.05389593     0.00012777    -0.00098607    -0.00054469
H        -4.29046353    -1.74819928     0.49997478     0.00056592     0.00088756     0.00062014
C        -3.89572634     0.28677175    -0.09807221    -0.00036176    -0.00017089    -0.00014318
C        -2.43716407     0.41606735     0.21771680     0.00043397     0.00053788    -0.00001751
H        -4.28865643     1.24532623    -0.53671689    -0.00013825     0.00110272     0.00035370
H        -1.87606254    -0.45008029     0.54997875     0.00024940     0.00055217    -0.00074991
C        -1.87717875     1.66214349    -0.06654896    -0.00061133    -0.00045086    -0.00003956
H        -2.42471297     2.44484723    -0.50648868     0.00043035    -0.00002675     0.00011519
N        -0.58513927     1.90716450     0.23029938     0.00036503    -0.00003201    -0.00001106
H        -0.10576100     2.76070508    -0.00221093     0.00051601     0.00050409    -0.00003985
H        -0.06358978     1.28421259     0.85393137    -0.00025136    -0.00095435     0.00207877
    14
  Step:    13            Position(A)                                  Velocity(au)
C        -6.06976937    -0.60379671    -0.09756450    -0.00013862    -0.00009762     0.00009666
C        -4.65842168    -0.79646257     0.16996633     0.00012971     0.00005818    -0.00003704
H        -6.26787645     0.44494301    -0.47971141    -0.00051179     0.00084637    -0.00016025
H        -6.85825591    -1.34612531    -0.05966790     0.00012022    -0.00103018    -0.00051131
H        -4.28382946    -1.73892351     0.50724202     0.00064882     0.00079319     0.00071039
C        -3.89958553     0.28502171    -0.09965328    -0.00033973    -0.00014450    -0.00014613
C        -2.43244304     0.42204129     0.21744078     0.00042259     0.00054861    -0.00003301
H        -4.29041966     1.25607867    -0.53234357    -0.00018070     0.00084143     0.00045054
H        -1.87309408    -0.44393127     0.54198860     0.00030157     0.00056259    -0.00070437
C        -1.88371557     1.65702442    -0.06685076    -0.00057610    -0.00047790    -0.00001591
H        -2.42095667     2.44569493    -0.50603231     0.00024840     0.00018323    -0.00003392
N        -0.58110164     1.90679042     0.23022189     0.00037291    -0.00003907    -0.00000096
H        -0.10012635     2.76679224    -0.00283173     0.00050020     0.00057936    -0.00006445
H        -0.06657896     1.27388105     0.87617156    -0.00032513    -0.00088387     0.00194035
    14
  Step:    14            Position(A)                                  Velocity(au)
C        -6.07120898    -0.60474305    -0.09657392    -0.00012528    -0.00007524     0.00008398
C        -4.65726620    -0.79582118     0.16951001     0.00007960     0.00005832    -0.00004604
H        -6.27398666     0.45262096    -0.48088810    -0.00059921     0.00053301    -0.00004611
H        -6.85692511    -1.35755709    -0.06508180     0.00013479    -0.00104453    -0.00047901
H        -4.27626943    -1.73084670     0.51551601     0.00073170     0.00067563     0.00080143
C        -3.90315854     0.28361058    -0.10126910    -0.00030983    -0.00010980    -0.00014929
C        -2.42791903     0.42806934     0.21699465     0.00039830     0.00054712    -0.00004830
H        -4.29260962     1.26373406    -0.52686050    -0.00021812     0.00054476     0.00055278
H        -1.86946514    -0.43777263     0.53456923     0.00036828     0.00055564    -0.00064654
C        -1.88978196     1.65168855    -0.06689695    -0.00052671    -0.00048891     0.00000616
H        -2.41927868     2.44885574    -0.50723081     0.00006066     0.00038208    -0.00017900
N        -0.57698110     1.90630969     0.23027844     0.00038004    -0.00005057     0.00001288
H        -0.09481819     2.77337972    -0.00362082     0.00045617     0.00059480    -0.00007043
H        -0.07070271     1.26487623     0.89638032    -0.00044881    -0.00072237     0.00171684
    14
  Step:    15            Position(A)                                  Velocity(au)
C        -6.07251007    -0.60544277    -0.09572735    -0.00011331    -0.00005344     0.00007062
C        -4.65668033    -0.79518673     0.16895914     0.00002630     0.00005651    -0.00005408
H        -6.28098523     0.45660357    -0.48072009    -0.00067530     0.00018119     0.00008179
H        -6.85530720    -1.36897649    -0.07014719     0.00017269    -0.00102788    -0.00044732
H        -4.26782204    -1.72414279     0.52477484     0.00080714     0.00055017     0.00088722
C        -3.90636368     0.28261956    -0.10291927    -0.00027298    -0.00006871    -0.00015215
C        -2.42372956     0.43401065     0.21638410     0.00036193     0.00053223    -0.00006277
H        -4.29519143     1.26799626    -0.52025043    -0.00025403     0.00022952     0.00065299
H        -1.86503728    -0.43177551     0.52784423     0.00044515     0.00053545    -0.00057869
C        -1.89523842     1.64632862    -0.06671602    -0.00046589    -0.00048106     0.00002476
H        -2.41962970     2.45405362    -0.50994825    -0.00011384     0.00054357    -0.00030449
N        -0.57278747     1.90568415     0.23050377     0.00038597    -0.00006470     0.00002924
H        -0.09014671     2.77980470    -0.00437258     0.00038533     0.00055197    -0.00005831
H        -0.07639746     1.25807784     0.91373071    -0.00060216    -0.00049254     0.00142930
    14
  Step:    16            Position(A)                                  Velocity(au)
C        -6.07368776    -0.60591206    -0.09502888    -0.00010263    -0.00003388     0.00005718
C        -4.65669080    -0.79458501     0.16832697    -0.00002863     0.00005206    -0.00006067
H        -6.28876007     0.45658480    -0.47909869    -0.00074227    -0.00018843     0.00021596
H        -6.85314725    -1.38004401    -0.07486768     0.00023271    -0.00098134    -0.00041565
H        -4.25861160    -1.71881077     0.53492558     0.00086738     0.00043231     0.00096120
C        -3.90913040     0.28210745    -0.10459774    -0.00023025    -0.00002339    -0.00015419
C        -2.42000105     0.43971297     0.21562146     0.00031468     0.00050315    -0.00007585
H        -4.29816711     1.26875523    -0.51257511    -0.00029173    -0.00008712     0.00074416
H        -1.85972654    -0.42605867     0.52190937     0.00052683     0.00050715    -0.00050351
C        -1.89997428     1.64116446    -0.06635537    -0.00039607    -0.00045247     0.00003843
H        -2.42176912     2.46074727    -0.51389220    -0.00026030     0.00064745    -0.00039841
N        -0.56853735     1.90489418     0.23091812     0.00038995    -0.00007995     0.00004676
H        -0.08638837     2.78545507    -0.00489648     0.00029208     0.00045795    -0.00003015
H        -0.08387608     1.25410100     0.92764893    -0.00076550    -0.00021877     0.00110157
    14
  Step:    17            Position(A)                                  Velocity(au)
C        -6.07475540    -0.60618398    -0.09447650    -0.00009302    -0.00001802     0.00004418
C        -4.65730677    -0.79404787     0.16763176    -0.00008359     0.00004462    -0.00006543
H        -6.29722391     0.45248140    -0.47599561    -0.00080256    -0.00055558     0.00034911
H        -6.85021616    -1.39044509    -0.07924022     0.00031157    -0.00090817    -0.00038341
H        -4.24884638    -1.71468513     0.54580304     0.00090526     0.00033555     0.00101718
C        -3.91140088     0.28210777    -0.10629256    -0.00018286     0.00002372    -0.00015486
C        -2.41684544     0.44501796     0.21472474     0.00025798     0.00045965    -0.00008710
H        -4.30157367     1.26609033    -0.50397046    -0.00033445    -0.00038769     0.00081971
H        -1.85351183    -0.42068065     0.51682897     0.00060746     0.00047626    -0.00042392
C        -1.90390330     1.63642996    -0.06587529    -0.00031930    -0.00040259     0.00004633
H        -2.42532435     2.46821778    -0.51866421    -0.00036965     0.00068241    -0.00045377
N        -0.56425665     1.90393515     0.23152667     0.00039107    -0.00009506     0.00006405
H        -0.08375682     2.78982331    -0.00503221     0.00018309     0.00032407     0.00001083
H        -0.09314432     1.25329176     0.93782967    -0.00092074     0.00007443     0.00075856
    14
  Step:    18            Position(A)                                  Velocity(au)
C        -6.07572280    -0.60630621    -0.09406235    -0.00008408    -0.00000712     0.00003217
C        -4.65851951    -0.79360879     0.16689557    -0.00013698     0.00003428    -0.00006807
H        -6.30631769     0.44443042    -0.47146131    -0.00085896    -0.00090002     0.00047405
H        -6.84633111    -1.39991197    -0.08325560     0.00040436    -0.00081348    -0.00035010
H        -4.23880739    -1.71147004     0.55717844     0.00091503     0.00026953     0.00105011
C        -3.91313083     0.28262645    -0.10798559    -0.00013203     0.00007005    -0.00015358
C        -2.41435732     0.44976863     0.21371591     0.00019354     0.00040228    -0.00009627
H        -4.30548386     1.26027366    -0.49464241    -0.00038555    -0.00065450     0.00087344
H        -1.84643711    -0.41563963     0.51263523     0.00068124     0.00044791    -0.00034276
C        -1.90695956     1.63235696    -0.06534179    -0.00023726    -0.00033237     0.00004826
H        -2.42985599     2.47567627    -0.52381927    -0.00043840     0.00064659    -0.00046881
N        -0.55998199     1.90281465     0.23231934     0.00038829    -0.00010900     0.00007970
H        -0.08238297     2.79254463    -0.00465961     0.00006639     0.00016441     0.00006068
H        -0.10401910     1.25572929     0.94424378    -0.00105138     0.00036274     0.00042582
    14
  Step:    19            Position(A)                                  Velocity(au)
C        -6.07659472    -0.60633968    -0.09377268    -0.00007528    -0.00000236     0.00002169
C        -4.66030352    -0.79329790     0.16614265    -0.00018737     0.00002155    -0.00006848
H        -6.31601532     0.43279173    -0.46562485    -0.00091479    -0.00120115     0.00058358
H        -6.84136997    -1.40824142    -0.08689935     0.00050512    -0.00070375    -0.00031528
H        -4.22882828    -1.70878855     0.56877619     0.00089301     0.00023925     0.00105668
C        -3.91428933     0.28364029    -0.10965249    -0.00007896     0.00011293    -0.00014981
C        -2.41261127     0.45381862     0.21261860     0.00012331     0.00033248    -0.00010332
H        -4.31000833     1.25177193    -0.48486230    -0.00044856    -0.00087005     0.00089972
H        -1.83860832    -0.41088181     0.50933044     0.00074287     0.00042620    -0.00026257
C        -1.90909391     1.62915872    -0.06481952    -0.00015141    -0.00024415     0.00004461
H        -2.43491510     2.48236328    -0.52892038    -0.00046742     0.00054599    -0.00044607
N        -0.55576206     1.90155049     0.23327021     0.00038046    -0.00012090     0.00009221
H        -0.08230451     2.79342010    -0.00370466    -0.00004935    -0.00000532     0.00011508
H        -0.11614524     1.26122737     0.94714524    -0.00114233     0.00062191     0.00012962
    14
  Step:    20            Position(A)                                  Velocity(au)
C        -6.07736971    -0.60635773    -0.09358775    -0.00006602    -0.00000484     0.00001329
C        -4.66261852    -0.79313730     0.16539751    -0.00023351     0.00000732    -0.00006671
H        -6.32633043     0.41815301    -0.45869439    -0.00097404    -0.00143804     0.00067050
H        -6.83528054    -1.41530784    -0.09015303     0.00060725    -0.00058650    -0.00027867
H        -4.21927113    -1.70623610     0.58029537     0.00083768     0.00024503     0.00103558
C        -3.91485820     0.28509709    -0.11126301    -0.00002477     0.00014981    -0.00014305
C        -2.41165962     0.45704229     0.21145560     0.00004940     0.00025259    -0.00010844
H        -4.31529695     1.24123956    -0.47495942    -0.00052700    -0.00101811     0.00089376
H        -1.83018534    -0.40631578     0.50689112     0.00078794     0.00041374    -0.00018544
C        -1.91027204     1.62701561    -0.06436584    -0.00006309    -0.00014151     0.00003627
H        -2.44008171     2.48762084    -0.53357787    -0.00046051     0.00039206    -0.00039108
N        -0.55165860     1.90016965     0.23433665     0.00036640    -0.00012995     0.00010004