    14
  Step:   600            Position(A)                                  Velocity(au)
C        -5.36744874    -1.16077621    -0.42445281     0.00018131     0.00021061    -0.00006115
C        -5.01245415     0.01533691    -0.01315717     0.00034175    -0.00021233     0.00031603
H        -4.93310549    -2.17681305    -0.36138167    -0.00090791    -0.00124571    -0.00214329
H        -6.30048283    -1.29629469    -0.96675356    -0.00175923    -0.00083476    -0.00135801
H        -5.57519523     0.92780157    -0.24721658    -0.00010961     0.00181961     0.00025263
C        -3.62162102     0.08107351     0.30346905    -0.00030635    -0.00052224     0.00088578
C        -2.85966539     1.22827189     0.86400996    -0.00026085     0.00009526    -0.00044660
H        -3.19934110    -1.09186799     0.44170513     0.00088965     0.00146990    -0.00006553
H        -3.13089786     2.05936710     1.45276475    -0.00181599    -0.00108103     0.00155539
C        -1.65328992     0.94819909     0.22398491    -0.00067789     0.00071694    -0.00057631
H        -1.37359536    -0.08658299     0.28347585     0.00129700    -0.00017317    -0.00188219
N        -0.95667089     1.90863534    -0.38593013     0.00060222    -0.00012811     0.00009647
H        -0.25571156     1.68233123    -1.09751516     0.00086285    -0.00070731     0.00189135
H        -1.29160367     2.84785585    -0.49547524     0.00177819    -0.00090192    -0.00099423
