     6
  Step:     0            Position(A)                                  Velocity(au)
C        -0.03870670     0.01091104     0.01808686    -0.00002805    -0.00011645    -0.00028164
N        -0.04085659    -0.06139538     1.30374652    -0.00019629     0.00010272     0.00023986
H         0.94380273     0.04621453    -0.53666266     0.00048609     0.00060463    -0.00043527
H         0.84315765    -0.04008385     1.81034051     0.00104169    -0.00056731     0.00041559
H        -0.97556436    -0.00904736     1.84833337     0.00110938    -0.00031032    -0.00084814
H        -0.99534497     0.05629427    -0.56281465     0.00042477     0.00023319     0.00089074
     6
  Step:     1            Position(A)                                  Velocity(au)
C        -0.03885046     0.01027138     0.01618225    -0.00002364    -0.00011748    -0.00041344
N        -0.04197762    -0.06086894     1.30535366    -0.00021143     0.00008991     0.00034673
H         0.94634868     0.04964728    -0.53889398     0.00043867     0.00064934    -0.00037913
H         0.84905763    -0.04303452     1.81278688     0.00110024    -0.00051236     0.00047172
H        -0.96905939    -0.01062768     1.84348271     0.00125453    -0.00026725    -0.00091532
H        -0.99300477     0.05769918    -0.55781664     0.00042637     0.00028078     0.00093119
     6
  Step:     2            Position(A)                                  Velocity(au)
C        -0.03896541     0.00962557     0.01356301    -0.00001752    -0.00011845    -0.00054141
N        -0.04317003    -0.06041160     1.30754035    -0.00022179     0.00007739     0.00045042
H         0.94860261     0.05331950    -0.54081102     0.00037910     0.00069064    -0.00032049
H         0.85519637    -0.04569007     1.81550206     0.00112692    -0.00045898     0.00051326
H        -0.96183739    -0.01197155     1.83831801     0.00136637    -0.00022379    -0.00095947
H        -0.99067967     0.05936649    -0.55262570     0.00041837     0.00032819     0.00095903
     6
  Step:     3            Position(A)                                  Velocity(au)
C        -0.03904230     0.00897418     0.01025315    -0.00000975    -0.00011917    -0.00066334
N        -0.04440645    -0.06002144     1.31028632    -0.00022673     0.00006526     0.00054897
H         0.95050024     0.05721063    -0.54240375     0.00030857     0.00072707    -0.00026065
H         0.86139867    -0.04806085     1.81840762     0.00112093    -0.00040761     0.00054024
H        -0.95409607    -0.01307848     1.83297540     0.00143765    -0.00018050    -0.00097612
H        -0.98842313     0.06129328    -0.54731416     0.00039976     0.00037420     0.00097218
     6
  Step:     4            Position(A)                                  Velocity(au)
C        -0.03907237     0.00831884     0.00628923    -0.00000048    -0.00011945    -0.00077658
N        -0.04565622    -0.05969601     1.31356011    -0.00022573     0.00005362     0.00064007
H         0.95198619     0.06129216    -0.54366913     0.00022931     0.00075720    -0.00020097
H         0.86748785    -0.05015966     1.82142603     0.00108264    -0.00035866     0.00055293
H        -0.94607291    -0.01395078     1.82761438     0.00146148    -0.00013785    -0.00096153
H        -0.98629610     0.06346975    -0.54196529     0.00036902     0.00041752     0.00096880
     6
  Step:     5            Position(A)                                  Velocity(au)
C        -0.03904756     0.00766201     0.00172230     0.00001012    -0.00011918    -0.00087834
N        -0.04688609    -0.05943239     1.31731755    -0.00021844     0.00004257     0.00072127
H         0.95301922     0.06552862    -0.54461148     0.00014439     0.00077996    -0.00014294
H         0.87329165    -0.05200081     1.82448168     0.00101369    -0.00031235     0.00055192
H        -0.93804155    -0.01459277     1.82241286     0.00143220    -0.00009615    -0.00091312
H        -0.98436936     0.06587977    -0.53667171     0.00032455     0.00045711     0.00094756
     6
  Step:     6            Position(A)                                  Velocity(au)
C        -0.03896094     0.00700669    -0.00338149     0.00002178    -0.00011829    -0.00096597
N        -0.04806123    -0.05922733     1.32150143    -0.00020477     0.00003215     0.00079031
H         0.95357597     0.06987965    -0.54524295     0.00005741     0.00079471    -0.00008810
H         0.87864880    -0.05359867     1.82750279     0.00091704    -0.00026864     0.00053826
H        -0.93030415    -0.01500945     1.81756072     0.00134633    -0.00005551    -0.00082992
H        -0.98272279     0.06850257    -0.53153245     0.00026525     0.00049226     0.00090791
     6
  Step:     7            Position(A)                                  Velocity(au)
C        -0.03880714     0.00635606    -0.00894211     0.00003414    -0.00011680    -0.00103733
N        -0.04914677    -0.05907746     1.32604268    -0.00018498     0.00002240     0.00084541
H         0.95365301     0.07430229    -0.54558411    -0.00002788     0.00080133    -0.00003803
H         0.88341588    -0.05496658     1.83042408     0.00079693    -0.00022737     0.00051355
H        -0.92317792    -0.01520563     1.81325054     0.00120357    -0.00001593    -0.00071292
H        -0.98144099     0.07131437    -0.52664830     0.00019109     0.00052261     0.00085031
     6
  Step:     8            Position(A)                                  Velocity(au)
C        -0.03858282     0.00571322    -0.01486874     0.00004681    -0.00011477    -0.00109115
N        -0.05010971    -0.05897932     1.33086330    -0.00015972     0.00001333     0.00088553
H         0.95326720     0.07875338    -0.54566406    -0.00010786     0.00080016     0.00000577
H         0.88747385    -0.05611656     1.83318974     0.00065868    -0.00018840     0.00047995
H        -0.91697603    -0.01518591     1.80966595     0.00100757     0.00002254    -0.00056549
H        -0.98060673     0.07428983    -0.52211622     0.00010325     0.00054807     0.00077633
     6
  Step:     9            Position(A)                                  Velocity(au)
C        -0.03828707     0.00508095    -0.02106455     0.00005933    -0.00011230    -0.00112726
N        -0.05092119    -0.05892935     1.33588076    -0.00013000     0.00000497     0.00091068
H         0.95245467     0.08319193    -0.54551998    -0.00017933     0.00079208     0.00004201
H         0.89073366    -0.05705962     1.83575619     0.00050838    -0.00015161     0.00044003
H        -0.91198397    -0.01495523     1.80696804     0.00076627     0.00005977    -0.00039331
H        -0.98029392     0.07740334    -0.51802340     0.00000410     0.00056887     0.00068857
     6
  Step:    10            Position(A)                                  Velocity(au)
C        -0.03792151     0.00446153    -0.02743276     0.00007128    -0.00010954    -0.00114669
N        -0.05155861    -0.05892391     1.34101348    -0.00009716    -0.00000268     0.00092191
H         0.95126841     0.08758164    -0.54519587    -0.00023975     0.00077842     0.00006972
H         0.89314010    -0.05780633     1.83809420     0.00035239    -0.00011698     0.00039664
H        -0.90843540    -0.01451971     1.80528228     0.00049125     0.00009555    -0.00020389
H        -0.98056104     0.08063031    -0.51444161    -0.00010309     0.00058553     0.00059047
     6
  Step:    11            Position(A)                                  Velocity(au)
C        -0.03749028     0.00385646    -0.03388284     0.00008227    -0.00010667    -0.00115159
N        -0.05200731    -0.05895929     1.34618630    -0.00006271    -0.00000963     0.00092120
H         0.94977458     0.09189348    -0.54474058    -0.00028741     0.00076092     0.00008839
H         0.89467291    -0.05836726     1.84019003     0.00019677    -0.00008450     0.00035263
H        -0.90649255    -0.01388715     1.80468885     0.00019635     0.00012963    -0.00000568
H        -0.98144630     0.08394867    -0.51142285    -0.00021460     0.00059885     0.00048588
     6
  Step:    12            Position(A)                                  Velocity(au)
C        -0.03699966     0.00326630    -0.04033652     0.00015580    -0.00017588    -0.00193836
N        -0.05226132    -0.05903182     1.35133561    -0.00004765    -0.00002695     0.00154272
H         0.94804794     0.09610782    -0.54420548    -0.00054419     0.00125542     0.00016570
H         0.89534497    -0.05875312     1.84204546     0.00007914    -0.00009161     0.00052597
H        -0.90623522    -0.01306724     1.80521864    -0.00017618     0.00027395     0.00032684
H        -0.98296570     0.08734050    -0.50899729    -0.00055329     0.00103253     0.00064095
     6
  Step:    13            Position(A)                                  Velocity(au)
C        -0.03611000     0.00228723    -0.05080709     0.00015734    -0.00017007    -0.00175511
N        -0.05243060    -0.05917915     1.35968391    -0.00001326    -0.00002494     0.00140189
H         0.94522306     0.10304677    -0.54361163    -0.00044540     0.00119581     0.00004175
H         0.89542248    -0.05927221     1.84488173    -0.00004423    -0.00009174     0.00047836
H        -0.90808014    -0.01151307     1.80763925    -0.00046709     0.00027463     0.00052109
H        -0.98662260     0.09308049    -0.50609054    -0.00073401     0.00099455     0.00039163
     6
  Step:    14            Position(A)                                  Velocity(au)
C        -0.03521464     0.00133684    -0.06024791     0.00008320    -0.00008742    -0.00083197
N        -0.05241171    -0.05931480     1.36723984     0.00000961    -0.00001206     0.00066726
H         0.94299500     0.10967407    -0.54373182    -0.00017720     0.00060441    -0.00004476
H         0.89484319    -0.05979386     1.84747237    -0.00008017    -0.00004883     0.00023190
H        -0.91153432    -0.00995166     1.81113027    -0.00038914     0.00014573     0.00036994
H        -0.99129296     0.09862347    -0.50455434    -0.00047847     0.00050790     0.00008421
     6
  Step:    15            Position(A)                                  Velocity(au)
C        -0.03473119     0.00084908    -0.06487581     0.00008764    -0.00008583    -0.00080960
N        -0.05226908    -0.05939786     1.37093933     0.00003947    -0.00001720     0.00064526
H         0.94200664     0.11303451    -0.54401897    -0.00016971     0.00058914    -0.00005939
H         0.89403854    -0.05998752     1.84870290    -0.00019883    -0.00002065     0.00020754
H        -0.91451424    -0.00904695     1.81372654    -0.00065424     0.00017415     0.00054284
H        -0.99426316     0.10151839    -0.50435688    -0.00057012     0.00051920    -0.00001051
     6
  Step:    16            Position(A)                                  Velocity(au)
C        -0.03422709     0.00036964    -0.06937075     0.00009139    -0.00008530    -0.00079301
N        -0.05196690    -0.05950864     1.37451087     0.00006653    -0.00002212     0.00062846
H         0.94108271     0.11631272    -0.54440107    -0.00015620     0.00058106    -0.00007901
H         0.89260271    -0.06002651     1.84981100    -0.00030625     0.00000622     0.00019079
H        -0.91890651    -0.00798931     1.81724718    -0.00089525     0.00020183     0.00070301
H        -0.99771728     0.10447397    -0.50467277    -0.00065579     0.00053469    -0.00009852
     6
  Step:    17            Position(A)                                  Velocity(au)
C        -0.03370674    -0.00010713    -0.07376552     0.00009411    -0.00008551    -0.00078002
N        -0.05152330    -0.05964581     1.37798442     0.00009030    -0.00002683     0.00061522
H         0.94025567     0.11954822    -0.54490471    -0.00013650     0.00057829    -0.00010330
H         0.89060550    -0.05991774     1.85084171    -0.00040120     0.00003240     0.00018171
H        -0.92455004    -0.00678442     1.82160737    -0.00110569     0.00022823     0.00084715
H        -1.00161466     0.10751234    -0.50546130    -0.00073296     0.00055283    -0.00018010
     6
  Step:    18            Position(A)                                  Velocity(au)
C        -0.03317617    -0.00058523    -0.07808083     0.00009551    -0.00008619    -0.00076864
N        -0.05095855    -0.05980819     1.38138072     0.00011023    -0.00003130     0.00060404
H         0.93955850     0.12277026    -0.54555461    -0.00011061     0.00057915    -0.00013181
H         0.88812270    -0.05966476     1.85184007    -0.00048173     0.00005824     0.00018047
H        -0.93125317    -0.00544082     1.82670695    -0.00127879     0.00025263     0.00097159
H        -1.00590189     0.11064718    -0.50668387    -0.00079878     0.00057205    -0.00025496
     6
  Step:    19            Position(A)                                  Velocity(au)
C        -0.03264302    -0.00106711    -0.08232649     0.00009533    -0.00008712    -0.00075744
N        -0.05029555    -0.05999447     1.38471206     0.00012580    -0.00003552     0.00059380
H         0.93902370     0.12599869    -0.54637282    -0.00007887     0.00058230    -0.00016396
H         0.88524009    -0.05926907     1.85285177    -0.00054567     0.00008396     0.00018735
H        -0.93879294    -0.00397070     1.83242869    -0.00140892     0.00027436     0.00107313
H        -1.01051125     0.11388374    -0.50830094    -0.00085069     0.00059105    -0.00032251
     6
  Step:    20            Position(A)                                  Velocity(au)
C        -0.03211602    -0.00155405    -0.08650424     0.00009345    -0.00008812    -0.00074546
N        -0.04955953    -0.06020318     1.38798435     0.00013662    -0.00003943     0.00058374
H         0.93868142     0.12924592    -0.54737795    -0.00004194     0.00058672    -0.00019902
H         0.88205433    -0.05873107     1.85392353    -0.00059109     0.00010965     0.00020255
H        -0.94692160    -0.00238972     1.83864111    -0.00149242     0.00029286     0.00114963
H        -1.01536235     0.11722020    -0.51027045    -0.00088676     0.00060881    -0.00038215
     6
  Step:    21            Position(A)                                  Velocity(au)
C        -0.03160449    -0.00204639    -0.09061055     0.00008985    -0.00008908    -0.00073216
N        -0.04877727    -0.06043267     1.39119906     0.00014253    -0.00004302     0.00057337
H         0.93855759     0.13251872    -0.54858452    -0.00000083     0.00059167    -0.00023622
H         0.87867146    -0.05805059     1.85510270    -0.00061660     0.00013536     0.00022616
H        -0.95537777    -0.00071622     1.84520420    -0.00152807     0.00030776     0.00120021
H        -1.02036562     0.12064934    -0.51254764    -0.00090582     0.00062463    -0.00043341
     6
  Step:    22            Position(A)                                  Velocity(au)
C        -0.03111769    -0.00254383    -0.09463895     0.00008460    -0.00008992    -0.00071734
N        -0.04797601    -0.06068120     1.39435481     0.00014353    -0.00004628     0.00056240
H         0.93867216     0.13581967    -0.55000250     0.00004323     0.00059660    -0.00027471
H         0.87520361    -0.05722718     1.85643634    -0.00062154     0.00016112     0.00025803
H        -0.96389920     0.00102971     1.85197610    -0.00151696     0.00031888     0.00122525
H        -1.02542648     0.12416017    -0.51508591    -0.00090746     0.00063805    -0.00047608
     6
  Step:    23            Position(A)                                  Velocity(au)
C        -0.03066437    -0.00304558    -0.09858166     0.00007785    -0.00009057    -0.00070098
N        -0.04718235    -0.06094697     1.39744854     0.00013987    -0.00004921     0.00055071
H         0.93903791     0.13914823    -0.55163706     0.00008884     0.00060111    -0.00031361
H         0.87176491    -0.05626021     1.85796990    -0.00060606     0.00018698     0.00029772
H        -0.97223434     0.00282725     1.85881923    -0.00146213     0.00032621     0.00122613
H        -1.03044938     0.12773939    -0.51783786    -0.00089199     0.00064885    -0.00051016
     6
  Step:    24            Position(A)                                  Velocity(au)
C        -0.03025230    -0.00355059    -0.10243089     0.00006981    -0.00009101    -0.00068326
N        -0.04642130    -0.06122825     1.40047639     0.00013192    -0.00005184     0.00053829
H         0.93965965     0.14250149    -0.55348855     0.00013453     0.00060490    -0.00035212
H         0.86846682    -0.05514880     1.85974572    -0.00057118     0.00021298     0.00034454
H        -0.98015185     0.00465578     1.86560543    -0.00136809     0.00032989     0.00120507
H        -1.03534162     0.13137259    -0.52075673    -0.00086035     0.00065700    -0.00053595
     6
  Step:    25            Position(A)                                  Velocity(au)
C        -0.02988803    -0.00405759    -0.10617968     0.00006074    -0.00009121    -0.00066443
N        -0.04571539    -0.06152340     1.40343443     0.00012020    -0.00005418     0.00052521
H         0.94053392     0.14587486    -0.55555275     0.00017885     0.00060775    -0.00038947
H         0.86541328    -0.05389184     1.86180130    -0.00051872     0.00023920     0.00039750
H        -0.98744782     0.00649566     1.87221994    -0.00124031     0.00033017     0.00116483
H        -1.04001674     0.13504538    -0.52379775    -0.00081399     0.00066264    -0.00055395
     6
  Step:    26            Position(A)                                  Velocity(au)
C        -0.02957660    -0.00456528    -0.10982242     0.00005090    -0.00009119    -0.00064480
N        -0.04508408    -0.06183096     1.40631913     0.00010533    -0.00005628     0.00051161
H         0.94164924     0.14926252    -0.55782126     0.00022041     0.00060952    -0.00042499
H         0.86269624    -0.05248783     1.86416780    -0.00045123     0.00026572     0.00045536
H        -0.99394983     0.00832883     1.87856381    -0.00108476     0.00032742     0.00110847
H        -1.04439702     0.13874425    -0.52691928    -0.00075468     0.00066603    -0.00056485
     6
  Step:    27            Position(A)                                  Velocity(au)
C        -0.02932156    -0.00507235    -0.11335518     0.00004058    -0.00009095    -0.00062469
N        -0.04454328    -0.06214970     1.40912775     0.00008795    -0.00005819     0.00049766
H         0.94298667     0.15265777    -0.56028211     0.00025798     0.00061010    -0.00045811
H         0.86039186    -0.05093483     1.86686863    -0.00037181     0.00029265     0.00051664
H        -0.99951936     0.01013930     1.88455533    -0.00090762     0.00032204     0.00103917
H        -1.04841497     0.14245716    -0.53008361    -0.00068433     0.00066750    -0.00056943
     6
  Step:    28            Position(A)                                  Velocity(au)
C        -0.02912490    -0.00557757    -0.11677572     0.00003004    -0.00009050    -0.00060441
N        -0.04410514    -0.06247861     1.41185843     0.00006875    -0.00005994     0.00048353
H         0.94452070     0.15605332    -0.56292036     0.00029049     0.00060939    -0.00048839
H         0.85855777    -0.04923044     1.86991842    -0.00028392     0.00032007     0.00057975
H        -1.00405228     0.01191339     1.89013053    -0.00071486     0.00031446     0.00096004
H        -1.05201414     0.14617399    -0.53325743    -0.00060496     0.00066742    -0.00056850
     6
  Step:    29            Position(A)                                  Velocity(au)
C        -0.02898721    -0.00607977    -0.12008344     0.00001951    -0.00008986    -0.00058422
N        -0.04377800    -0.06281694     1.41451037     0.00004838    -0.00006159     0.00046940
H         0.94622032     0.15944139    -0.56571877     0.00031706     0.00060731    -0.00051547
H         0.85723126    -0.04737184     1.87332237    -0.00019127     0.00034807     0.00064298
H        -1.00747711     0.01363985     1.89524238    -0.00051207     0.00030511     0.00087399
H        -1.05514927     0.14988674    -0.53641212    -0.00051851     0.00066617    -0.00056292
     6
  Step:    30            Position(A)                                  Velocity(au)
C        -0.02890776    -0.00657791    -0.12327905     0.00000921    -0.00008906    -0.00056430
N        -0.04356656    -0.06316417     1.41708369     0.00002748    -0.00006316     0.00045542
H         0.94805013     0.16281377    -0.56865837     0.00033702     0.00060379    -0.00053909
H         0.85642860    -0.04535585     1.87707585    -0.00009757     0.00037669     0.00070456
H        -1.00975244     0.01530977     1.89985951    -0.00030427     0.00029438     0.00078364
H        -1.05778607     0.15358955    -0.53952369    -0.00042688     0.00066412    -0.00055348
     6
  Step:    31            Position(A)                                  Velocity(au)
C        -0.02888470    -0.00707104    -0.12636437    -0.00000067    -0.00008810    -0.00054482
N        -0.04347209    -0.06351998     1.41957938     0.00000664    -0.00006471     0.00044170
H         0.94997154     0.16616184    -0.57171906     0.00034989     0.00059873    -0.00055909
H         0.85614524    -0.04317908     1.88116437    -0.00000644     0.00040597     0.00076276
H        -1.01086372     0.01691640     1.90396457    -0.00009598     0.00028264     0.00069133
H        -1.05990056     0.15727868    -0.54257256    -0.00033179     0.00066163    -0.00054093
     6
  Step:    32            Position(A)                                  Velocity(au)
C        -0.02891517    -0.00755829    -0.12934194    -0.00000996    -0.00008700    -0.00052584
N        -0.04349269    -0.06388423     1.42199906    -0.00001362    -0.00006624     0.00042832
H         0.95194384     0.16947654    -0.57488004     0.00035537     0.00059201    -0.00057536
H         0.85635694    -0.04083812     1.88556400     0.00007877     0.00043588     0.00081592
H        -1.01082057     0.01845500     1.90755275     0.00010869     0.00027021     0.00059917
H        -1.06147835     0.16095233    -0.54554323    -0.00023489     0.00065902    -0.00052594
     6
  Step:    33            Position(A)                                  Velocity(au)
C        -0.02899552    -0.00803890    -0.13221455    -0.00001854    -0.00008576    -0.00050736
N        -0.04362361    -0.06425691     1.42434466    -0.00003280    -0.00006778     0.00041530
H         0.95392524     0.17274826    -0.57812024     0.00035334     0.00058354    -0.00058789
H         0.85702160    -0.03832967     1.89024192     0.00015508     0.00046640     0.00086254
H        -1.00965455     0.01992262     1.91063061     0.00030597     0.00025740     0.00050909
H        -1.06251379     0.16461053    -0.54842386    -0.00013765     0.00065657    -0.00050912
     6
  Step:    34            Position(A)                                  Velocity(au)
C        -0.02912138    -0.00851218    -0.13498498    -0.00002629    -0.00008442    -0.00048935
N        -0.04385753    -0.06463814     1.42661816    -0.00005048    -0.00006936     0.00040261
H         0.95587388     0.17596686    -0.58141875     0.00034385     0.00057318    -0.00059671
H         0.85808178    -0.03565068     1.89515749     0.00021998     0.00049745     0.00090129
H        -1.00741742     0.02131791     1.91321505     0.00049239     0.00024447     0.00042286
H        -1.06300935     0.16825501    -0.55120590    -0.00004147     0.00065460    -0.00049103
     6
  Step:    35            Position(A)                                  Velocity(au)
C        -0.02928783    -0.00897754    -0.13765579    -0.00003312    -0.00008297    -0.00047176
N        -0.04418491    -0.06502809     1.42882136    -0.00006628    -0.00007097     0.00039020
H         0.95774864     0.17912156    -0.58475521     0.00032711     0.00056081    -0.00060196
H         0.85946757    -0.03279843     1.90026353     0.00027149     0.00052898     0.00093109
H        -1.00417960     0.02264089     1.91533253     0.00066467     0.00023163     0.00034215
H        -1.06297494     0.17188918    -0.55388376     0.00005234     0.00065339    -0.00047215
     6
  Step:    36            Position(A)                                  Velocity(au)
C        -0.02948950    -0.00943445    -0.14022916    -0.00003894    -0.00008143    -0.00045453
N        -0.04459428    -0.06542701     1.43095573    -0.00007988    -0.00007263     0.00037803
H         0.95951008     0.18220090    -0.58811019     0.00030346     0.00054628    -0.00060382
H         0.86109975    -0.02977044     1.90550761     0.00030823     0.00056097     0.00095112
H        -1.00002887     0.02389271     1.91701846     0.00081976     0.00021905     0.00026853
H        -1.06242751     0.17551824    -0.55645441     0.00014256     0.00065329    -0.00045292
     6
  Step:    37            Position(A)                                  Velocity(au)
C        -0.02972058    -0.00988251    -0.14270709    -0.00004369    -0.00007983    -0.00043761
N        -0.04507261    -0.06583521     1.43302254    -0.00009103    -0.00007434     0.00036604
H         0.96112110     0.18519258    -0.59146569     0.00027339     0.00052942    -0.00060263
H         0.86289302    -0.02656422     1.91083362     0.00032938     0.00059345     0.00096086
H        -0.99506937     0.02507521     1.91831676     0.00095477     0.00020680     0.00020351
H        -1.06139064     0.17914943    -0.55891717     0.00022800     0.00065472    -0.00043373
     6
  Step:    38            Position(A)                                  Velocity(au)
C        -0.02997495    -0.01032143    -0.14509135    -0.00004730    -0.00007819    -0.00042095
N        -0.04560564    -0.06625303     1.43502269    -0.00009953    -0.00007613     0.00035413
H         0.96254767     0.18808319    -0.59480581     0.00023751     0.00050997    -0.00059883
H         0.86475944    -0.02317678     1.91618341     0.00033476     0.00062662     0.00096006
H        -0.98942064     0.02619038     1.91927962     0.00106705     0.00019480     0.00014857
H        -1.05989429     0.18279263    -0.56127342     0.00030749     0.00065826    -0.00041494
     6
  Step:    39            Position(A)                                  Velocity(au)
C        -0.03024605    -0.01075109    -0.14738310    -0.00004969    -0.00007656    -0.00040435
N        -0.04617826    -0.06668087     1.43695639    -0.00010530    -0.00007798     0.00034214
H         0.96375949     0.19085756    -0.59811775     0.00019658     0.00048749    -0.00059318
H         0.86661167    -0.01960351     1.92149829     0.00032476     0.00066097     0.00094874
H        -0.98321619     0.02723909     1.91996717     0.00115424     0.00018261     0.00010512
H        -1.05797492     0.18646157    -0.56352643     0.00037979     0.00066484    -0.00039687
     6
  Step:    40            Position(A)                                  Velocity(au)
C        -0.03052685    -0.01117171    -0.14958213    -0.00005072    -0.00007503    -0.00038737
N        -0.04677507    -0.06711907     1.43882253    -0.00010833    -0.00007987     0.00032967
H         0.96473093     0.19349734    -0.60139383     0.00015158     0.00046106    -0.00058707
H         0.86836631    -0.01583595     1.92672034     0.00030042     0.00069768     0.00092713
H        -0.97660148     0.02821849     1.92044712     0.00121444     0.00016895     0.00007454
H        -1.05567622     0.19017646    -0.56568117     0.00044329     0.00067627    -0.00037989
     6
  Step:    41            Position(A)                                  Velocity(au)
C        -0.03080922    -0.01158420    -0.15168454    -0.00004999    -0.00007387    -0.00036838
N        -0.04738117    -0.06756777     1.44061711    -0.00010890    -0.00008169     0.00031553
H         0.96544269     0.19597719    -0.60463666     0.00010438     0.00042840    -0.00058426
H         0.86994752    -0.01185639     1.93179326     0.00026366     0.00073991     0.00089548
H        -0.96973088     0.02911516     1.92079490     0.00124644     0.00014978     0.00005854
H        -1.05305255     0.19397097    -0.56774475     0.00049451     0.00069727    -0.00036488
     6
  Step:    42            Position(A)                                  Velocity(au)
C        -0.03108184    -0.01199178    -0.15367186    -0.00004613    -0.00007487    -0.00033524
N        -0.04798407    -0.06802595     1.44232556    -0.00010794    -0.00008230     0.00029118
H         0.96588979     0.19825340    -0.60788023     0.00006663     0.00038772    -0.00060493
H         0.87129348    -0.00762154     1.93666192     0.00021952     0.00079275     0.00085481
H        -0.96276353     0.02988129     1.92109707     0.00124926     0.00011087     0.00006168
H        -1.05018623     0.19791747    -0.56973201     0.00051429     0.00074445    -0.00036321
     6
  Step:    43            Position(A)                                  Velocity(au)
C        -0.03132124    -0.01241525    -0.15540551    -0.00004359    -0.00008529    -0.00028572
N        -0.04857928    -0.06848121     1.44384909    -0.00010993    -0.00008442     0.00025835
H         0.96618226     0.20028071    -0.61135108     0.00006608     0.00039876    -0.00070390
H         0.87238407    -0.00305725     1.94128116     0.00017908     0.00086494     0.00086147
H        -0.95586472     0.03034580     1.92147957     0.00129110     0.00007947     0.00008898
H        -1.04734422     0.20223394    -0.57177623     0.00051084     0.00084639    -0.00043196
     6
  Step:    44            Position(A)                                  Velocity(au)
C        -0.03157004    -0.01288106    -0.15696050    -0.00004464    -0.00008262    -0.00027568
N        -0.04915886    -0.06895634     1.44525602    -0.00009848    -0.00008707     0.00024915
H         0.96640439     0.20252253    -0.61515070     0.00001020     0.00039792    -0.00066779
H         0.87317127     0.00169011     1.94593596     0.00010167     0.00085889     0.00081124
H        -0.94883286     0.03091733     1.92199665     0.00123039     0.00011643     0.00010583
H        -1.04436666     0.20682642    -0.57417028     0.00055816     0.00082124    -0.00042660
     6