 Fermi distribution function

Calculation with static geometry


********************************************************************************
 iSCC Total electronic   Diff electronic      SCC error    
   10   -0.54145123E+01   -0.79936058E-13    0.29466950E-06
********************************************************************************

 Total charge:     1.00000000

 Atomic gross charges (e)
 Atom           Charge
    1       0.19851471
    2      -0.08672855
    3       0.15425474
    4       0.28147454
    5       0.27496848
    6       0.17751608

Nr. of electrons (up):     12.00000000
Atom populations (up)
 Atom       Population
    1       3.80148529
    2       5.08672855
    3       0.84574526
    4       0.71852546
    5       0.72503152
    6       0.82248392

l-shell populations (up)
 Atom Sh.   l       Population
    1   1   0       1.31488576
    1   2   1       2.48659952
    2   1   0       1.42106941
    2   2   1       3.66565914
    3   1   0       0.84574526
    4   1   0       0.71852546
    5   1   0       0.72503152
    6   1   0       0.82248392

Orbital populations (up)
 Atom Sh.   l   m       Population  Label
    1   1   0   0       1.31488576  s
    1   2   1  -1       0.59777736  p_y
    1   2   1   0       0.87575557  p_z
    1   2   1   1       1.01306659  p_x
    2   1   0   0       1.42106941  s
    2   2   1  -1       1.37875384  p_y
    2   2   1   0       1.08689928  p_z
    2   2   1   1       1.20000602  p_x
    3   1   0   0       0.84574526  s
    4   1   0   0       0.71852546  s
    5   1   0   0       0.72503152  s
    6   1   0   0       0.82248392  s

Fermi level:                        -0.4900230024 H          -13.3342 eV
Band energy:                        -8.9057349760 H         -242.3374 eV
TS:                                  0.0000000000 H            0.0000 eV
Band free energy (E-TS):            -8.9057349760 H         -242.3374 eV
Extrapolated E(0K):                 -8.9057349760 H         -242.3374 eV
Input / Output electrons (q):     12.0000000000     12.0000000000

Energy H0:                          -5.5468211537 H         -150.9367 eV
Energy SCC:                          0.1323089036 H            3.6003 eV
Total Electronic energy:            -5.4145122502 H         -147.3364 eV
Repulsive energy:                    0.1846367835 H            5.0242 eV
Total energy:                       -5.2298754666 H         -142.3122 eV
Extrapolated to 0:                  -5.2298754666 H         -142.3122 eV
Total Mermin free energy:           -5.2298754666 H         -142.3122 eV
Force related energy:               -5.2298754666 H         -142.3122 eV

SCC converged

Excitation Energy:                   0.1469481348 H            3.9987 eV

Total Forces
    1     -0.007335128740     -0.000730643226      0.041509851699
    2      0.014885311698      0.008168966638     -0.054120051871
    3     -0.005519725034     -0.007064185465      0.001393558623
    4     -0.014503070236      0.005837230365     -0.002088941616
    5     -0.000506047181     -0.012283041477      0.008787248460
    6      0.012978659493      0.006071673165      0.004518334704

Maximal derivative component:        0.541201E-01 au


