 Fermi distribution function

Calculation with static geometry


********************************************************************************
 iSCC Total electronic   Diff electronic      SCC error    
   10   -0.53987024E+01   -0.28421709E-12    0.22499371E-06
********************************************************************************

 Total charge:     1.00000000

 Atomic gross charges (e)
 Atom           Charge
    1       0.18235482
    2      -0.07155493
    3       0.14556366
    4       0.26544933
    5       0.28523279
    6       0.19295434

Nr. of electrons (up):     12.00000000
Atom populations (up)
 Atom       Population
    1       3.81764518
    2       5.07155493
    3       0.85443634
    4       0.73455067
    5       0.71476721
    6       0.80704566

l-shell populations (up)
 Atom Sh.   l       Population
    1   1   0       1.32596153
    1   2   1       2.49168365
    2   1   0       1.43923926
    2   2   1       3.63231567
    3   1   0       0.85443634
    4   1   0       0.73455067
    5   1   0       0.71476721
    6   1   0       0.80704566

Orbital populations (up)
 Atom Sh.   l   m       Population  Label
    1   1   0   0       1.32596153  s
    1   2   1  -1       0.59311957  p_y
    1   2   1   0       0.87657349  p_z
    1   2   1   1       1.02199058  p_x
    2   1   0   0       1.43923926  s
    2   2   1  -1       1.33895256  p_y
    2   2   1   0       1.09680979  p_z
    2   2   1   1       1.19655331  p_x
    3   1   0   0       0.85443634  s
    4   1   0   0       0.73455067  s
    5   1   0   0       0.71476721  s
    6   1   0   0       0.80704566  s

Fermi level:                        -0.4979771357 H          -13.5506 eV
Band energy:                        -8.9160478111 H         -242.6180 eV
TS:                                  0.0000000000 H            0.0000 eV
Band free energy (E-TS):            -8.9160478111 H         -242.6180 eV
Extrapolated E(0K):                 -8.9160478111 H         -242.6180 eV
Input / Output electrons (q):     12.0000000000     12.0000000000

Energy H0:                          -5.5321924212 H         -150.5386 eV
Energy SCC:                          0.1334900146 H            3.6324 eV
Total Electronic energy:            -5.3987024066 H         -146.9062 eV
Repulsive energy:                    0.1847928355 H            5.0285 eV
Total energy:                       -5.2139095711 H         -141.8777 eV
Extrapolated to 0:                  -5.2139095711 H         -141.8777 eV
Total Mermin free energy:           -5.2139095711 H         -141.8777 eV
Force related energy:               -5.2139095711 H         -141.8777 eV

SCC converged

Excitation Energy:                   0.1290458547 H            3.5115 eV

Total Forces
    1     -0.007446371783      0.011393057151      0.039947034705
    2      0.003664090118     -0.010688148970     -0.046479497742
    3     -0.001484599754     -0.005861336867     -0.000247260753
    4     -0.007821980430      0.008195968911      0.000898116151
    5      0.004554559174     -0.005447311741      0.006651693141
    6      0.008534302674      0.002407771516     -0.000770085503

Maximal derivative component:        0.464795E-01 au


