|===============================================================================
|
|  DFTB+ release 20.1
|
|  Copyright (C) 2006 - 2020  DFTB+ developers group
|
|===============================================================================
|
|  When publishing results obtained with DFTB+, please cite the following
|  reference:
|
|  * DFTB+, a software package for efficient approximate density functional
|    theory based atomistic simulations, J. Chem. Phys. 152, 124101 (2020).
|    [doi: 10.1063/1.5143190]
|
|  You should also cite additional publications crediting the parametrization
|  data you use. Please consult the documentation of the SK-files for the
|  references.
|
|===============================================================================

Reading input file 'dftb_in.hsd'
Parser version: 8

--------------------------------------------------------------------------------
Reading SK-files:
Done.


Processed input in HSD format written to 'dftb_pin.hsd'

Starting initialization...
--------------------------------------------------------------------------------
OpenMP threads:              1
Chosen random seed:          502957312
Mode:                        Static calculation
Self consistent charges:     Yes
SCC-tolerance:                 0.100000E-05
Max. scc iterations:                   1000
Shell resolved Hubbard:      No
Spin polarisation:           No
Nr. of up electrons:            16.000000
Nr. of down electrons:          16.000000
Periodic boundaries:         No
Electronic solver:           Relatively robust
Maximal SCC-cycles:                    1000
Initial charges:             Set automatically (system chrg:   0.100E+01)
Included shells:             C:  s, p
                             H:  s
                             N:  s, p
Spin coupling constants:     C   1(s)-1(s):  -0.455900E-01
                             C   1(s)-2(p):  -0.293000E-01
                             C   2(p)-1(s):  -0.293000E-01
                             C   2(p)-2(p):  -0.275500E-01
                             H   1(s)-1(s):  -0.792500E-01
                             N   1(s)-1(s):  -0.468700E-01
                             N   1(s)-2(p):  -0.317000E-01
                             N   2(p)-1(s):  -0.317000E-01
                             N   2(p)-2(p):  -0.307200E-01
Range separated hybrid:      Yes
  Screening parameter omega:   0.300000E+00
  Range separated algorithm:   MatrixBased
Extra options:
                             Mulliken analysis
                             Force calculation
Force type                   original
                             Eigenvector printing


REKS Calcuation:             Yes
SSR(2,2) Calcuation:         Yes
Energy Functional:           (PPS+OSS)/2
Number of Core Orbitals:                 15
Number of Active Orbitals:                2
Number of Basis:                         32
Number of States:                         2
State-Averaging Weight:          0.500000
                                 0.500000
State of Interest:                        1
Initial Guess:               Diagonalize H0 matrix
Newton-Raphson for FON opt:  Yes
NR max. Iterations:                      50
Level Shifting:              Yes
Shift Value:                     0.300000
W Scale Factor:              C  =    3.200000
                             H  =    3.200000
                             N  =    3.200000
Transition Dipole:           No
Gradient of Microstate:      No
CP-REKS Solver:              Preconditioned Conjugate-Gradient
CG max. Iterations:                     100
CG Tolerance:                  0.100000E-07
Memory for A and Hxc:        Direct Updating Without Saving
Non-Adiabatic Coupling:      Yes

--------------------------------------------------------------------------------

***  Geometry step: 0

  iSCC       reks energy        Diff energy         x_a       SCC error   
    1      -16.3963575202       0.0000000000     0.980942    1.19345809
    2      -16.4166667526      -0.0203092324     0.997415    0.08618860
    3      -16.4212905021      -0.0046237495     0.999227    0.04106646
    4      -16.4230227380      -0.0017322359     0.999632    0.02118384
    5      -16.4238263319      -0.0008035939     0.999777    0.01206110
    6      -16.4242344036      -0.0004080717     0.999844    0.00727854
    7      -16.4244531850      -0.0002187814     0.999879    0.00555425
    8      -16.4245754000      -0.0001222150     0.999900    0.00419050
    9      -16.4246462099      -0.0000708099     0.999913    0.00312787
   10      -16.4246887113      -0.0000425014     0.999921    0.00231973
   11      -16.4247151231      -0.0000264118     0.999927    0.00171426
   12      -16.4247320932      -0.0000169701     0.999931    0.00133149
   13      -16.4247433385      -0.0000112453     0.999934    0.00108395
   14      -16.4247509968      -0.0000076584     0.999936    0.00088920
   15      -16.4247563359      -0.0000053390     0.999938    0.00073425
   16      -16.4247601308      -0.0000037950     0.999939    0.00060975
   17      -16.4247628711      -0.0000027403     0.999940    0.00050887
   18      -16.4247648749      -0.0000020038     0.999941    0.00043260
   19      -16.4247663548      -0.0000014800     0.999942    0.00038189
   20      -16.4247674566      -0.0000011018     0.999942    0.00033670
   21      -16.4247682821      -0.0000008255     0.999943    0.00029667
   22      -16.4247689037      -0.0000006216     0.999943    0.00026134
   23      -16.4247693737      -0.0000004700     0.999943    0.00023024
   24      -16.4247697304      -0.0000003566     0.999944    0.00020290
   25      -16.4247700017      -0.0000002714     0.999944    0.00017890
   26      -16.4247702087      -0.0000002070     0.999944    0.00015783
   27      -16.4247703670      -0.0000001582     0.999944    0.00013933
   28      -16.4247704882      -0.0000001212     0.999944    0.00012309
   29      -16.4247705812      -0.0000000930     0.999945    0.00010883
   30      -16.4247706527      -0.0000000715     0.999945    0.00009629
   31      -16.4247707077      -0.0000000550     0.999945    0.00008527
   32      -16.4247707501      -0.0000000424     0.999945    0.00007556
   33      -16.4247707828      -0.0000000327     0.999945    0.00006701
   34      -16.4247708082      -0.0000000253     0.999945    0.00005948
   35      -16.4247708278      -0.0000000196     0.999945    0.00005283
   36      -16.4247708430      -0.0000000152     0.999945    0.00004696
   37      -16.4247708548      -0.0000000118     0.999945    0.00004177
   38      -16.4247708640      -0.0000000092     0.999945    0.00003718
   39      -16.4247708712      -0.0000000072     0.999945    0.00003312
   40      -16.4247708768      -0.0000000056     0.999945    0.00002952
   41      -16.4247708811      -0.0000000044     0.999945    0.00002633
   42      -16.4247708846      -0.0000000034     0.999945    0.00002350
   43      -16.4247708872      -0.0000000027     0.999945    0.00002099
   44      -16.4247708894      -0.0000000021     0.999946    0.00001876
   45      -16.4247708910      -0.0000000017     0.999946    0.00001677
   46      -16.4247708923      -0.0000000013     0.999946    0.00001500
   47      -16.4247708934      -0.0000000010     0.999946    0.00001343
   48      -16.4247708942      -0.0000000008     0.999946    0.00001203
   49      -16.4247708949      -0.0000000007     0.999946    0.00001078
   50      -16.4247708954      -0.0000000005     0.999946    0.00000967
   51      -16.4247708958      -0.0000000004     0.999946    0.00000868
   52      -16.4247708961      -0.0000000003     0.999946    0.00000779
   53      -16.4247708964      -0.0000000003     0.999946    0.00000700
   54      -16.4247708966      -0.0000000002     0.999946    0.00000629
   55      -16.4247708968      -0.0000000002     0.999946    0.00000565
   56      -16.4247708969      -0.0000000001     0.999946    0.00000508
   57      -16.4247708970      -0.0000000001     0.999946    0.00000458
   58      -16.4247708971      -0.0000000001     0.999946    0.00000412
   59      -16.4247708972      -0.0000000001     0.999946    0.00000371
   60      -16.4247708972      -0.0000000001     0.999946    0.00000334
   61      -16.4247708973      -0.0000000000     0.999946    0.00000302
   62      -16.4247708973      -0.0000000000     0.999946    0.00000272
   63      -16.4247708974      -0.0000000000     0.999946    0.00000245
   64      -16.4247708974      -0.0000000000     0.999946    0.00000222
   65      -16.4247708974      -0.0000000000     0.999946    0.00000200
   66      -16.4247708974      -0.0000000000     0.999946    0.00000181
   67      -16.4247708974      -0.0000000000     0.999946    0.00000163
   68      -16.4247708975      -0.0000000000     0.999946    0.00000148
   69      -16.4247708975      -0.0000000000     0.999946    0.00000134
   70      -16.4247708975      -0.0000000000     0.999946    0.00000121
   71      -16.4247708975      -0.0000000000     0.999946    0.00000109
   72      -16.4247708975      -0.0000000000     0.999946    0.00000099
  
--------------------------------------------------
 Final SA-REKS(2,2) energy:     -16.42477090
  
 State     Energy      FON(1)    FON(2)   Spin
  PPS  -16.49011794   1.999892  0.000108  0.00
  OSS  -16.35942385   1.000000  1.000000  0.00
 Trip  -16.40745723   1.000000  1.000000  1.00
--------------------------------------------------

 Lagrangian Wab:  -0.00697454 -0.00697398

--------------------------------------------------
 SSR: 2SI-2SA-REKS(2,2) Hamiltonian matrix
               PPS           OSS
   PPS   -16.49011794   -0.00979058
   OSS    -0.00979058  -16.35942385
--------------------------------------------------

----------------------------------------------------------------
 SSR: 2SI-2SA-REKS(2,2) states
                    E_n       C_{PPS}    C_{OSS}
 SSR state  1  -16.49084730  -0.997237  -0.074291
 SSR state  2  -16.35869449   0.074291  -0.997237
----------------------------------------------------------------

 unrelaxed SSR FONs for S0:  1.994373  0.005627

Total Energy:                      -16.4908473042 H         -448.7388 eV
Extrapolated to 0:                 -16.4908473042 H         -448.7388 eV

----------------------------------------------------------------------------------
 Solving CP-REKS equation for  1 state vector...
----------------------------------------------------------------------------------
  CG solver: Constructing Y initial guess
  CG solver: Iteration    1    eps =    0.000260051910
  CG solver: Iteration    2    eps =    0.000120782809
  CG solver: Iteration    3    eps =    0.000070140671
  CG solver: Iteration    4    eps =    0.000012977191
  CG solver: Iteration    5    eps =    0.000001347233
  CG solver: Iteration    6    eps =    0.000001314216
  CG solver: Iteration    7    eps =    0.000000099498
  CG solver: Iteration    8    eps =    0.000000018063
  CG solver: Iteration    9    eps =    0.000000001031
  Convergence reached in CG solver after    9 iterations
  CG solver: Calculating converged R, Z, Q2 matrix
----------------------------------------------------------------------------------

----------------------------------------------------------------------------------
 Solving CP-REKS equation for SI between  1 and  2 state vectors...
----------------------------------------------------------------------------------
  CG solver: Constructing Y initial guess
  CG solver: Iteration    1    eps =    0.046710385255
  CG solver: Iteration    2    eps =    0.005810200657
  CG solver: Iteration    3    eps =    0.001600226045
  CG solver: Iteration    4    eps =    0.000331812198
  CG solver: Iteration    5    eps =    0.000054929417
  CG solver: Iteration    6    eps =    0.000012969000
  CG solver: Iteration    7    eps =    0.000002654324
  CG solver: Iteration    8    eps =    0.000000108004
  CG solver: Iteration    9    eps =    0.000000051130
  CG solver: Iteration   10    eps =    0.000000009319
  Convergence reached in CG solver after   10 iterations
  CG solver: Calculating converged R, Z, Q2 matrix
----------------------------------------------------------------------------------

--------------------------------------------------
 Gradient Information
--------------------------------------------------
           1 st state (SSR)
    -0.10996271     0.16851412     0.00261127
     0.03464807    -0.02506557     0.02498158
     0.03601611    -0.08028337    -0.00266515
     0.00473852    -0.04045220    -0.00447996
     0.04023258    -0.04965780    -0.00726134
    -0.05227365     0.01045594    -0.02553209
     0.05719329    -0.11025041     0.02043061
    -0.01138526     0.03880179    -0.00646139
    -0.00424424    -0.00231437     0.00157113
     0.00653897     0.11491431    -0.00854594
     0.03685279    -0.02500253     0.01880393
    -0.04200786    -0.02137105    -0.02520879
     0.01037689     0.02356393    -0.01001183
    -0.00672349    -0.00185279     0.02176796

           2 st state (SSR)
    -0.06968313     0.16024194     0.00204493
    -0.01788948    -0.03312357     0.01693048
     0.03614983    -0.08134866    -0.00537628
     0.00554989    -0.03967479     0.00017880
     0.03991826    -0.04809301    -0.00904378
     0.02120335     0.02632939    -0.00329403
    -0.00257047    -0.10939708     0.01722560
    -0.01104924     0.03929421    -0.00734096
    -0.00339124    -0.00145395     0.00109416
     0.07827696     0.11697610    -0.01304371
     0.03804684    -0.02352301     0.01430690
    -0.12314789    -0.02400614    -0.02003648
     0.01235918     0.02679462    -0.00920252
    -0.00377287    -0.00901606     0.01555689
--------------------------------------------------
 Coupling Information
--------------------------------------------------
 between  1 and  2 states
--------------------------------------------------
 g vector - difference gradient
    -0.01991136     0.00416623    -0.00079106
     0.02859491     0.00833039     0.00405414
    -0.00011309     0.00040016     0.00146612
    -0.00037504    -0.00031373    -0.00204257
     0.00018289    -0.00049648     0.00110861
    -0.05463238    -0.01257080    -0.01265326
     0.04666456     0.00378226     0.00337590
    -0.00019156    -0.00011367     0.00042050
    -0.00031059    -0.00031575    -0.00004747
    -0.03046012    -0.00526724     0.00321800
    -0.00044847    -0.00055787     0.00176783
     0.03294816     0.00137896    -0.00194170
    -0.00069045    -0.00138539    -0.00064537
    -0.00125746     0.00296292     0.00271033

 h vector - derivative coupling
    -0.00302503     0.00010691     0.00719104
    -0.01356884    -0.02840939     0.00010904
     0.00030361     0.00092397    -0.00063695
    -0.00023475    -0.00052937    -0.00208781
    -0.00016005    -0.00196663    -0.00138455
     0.11669552     0.03033879     0.00941188
    -0.10978959    -0.02812420    -0.01171710
     0.00014467    -0.00090299     0.00016147
    -0.00080545    -0.00079603     0.00192639
    -0.03877354     0.02819860    -0.00630081
    -0.00103604    -0.00126910     0.00337585
     0.05389426    -0.00031177    -0.00449406
    -0.00208081    -0.00165518     0.00157646
    -0.00156396     0.00439640     0.00286915

 G vector - GDV
    -0.02013979     0.00413609     0.00028317
     0.02626877     0.00402900     0.00402555
    -0.00006686     0.00053265     0.00135556
    -0.00040569    -0.00038870    -0.00232938
     0.00015716    -0.00078239     0.00089122
    -0.03673850    -0.00793673    -0.01111903
     0.02988188    -0.00042667     0.00160250
    -0.00016801    -0.00024621     0.00043978
    -0.00042650    -0.00043021     0.00023849
    -0.03586899    -0.00103090     0.00224889
    -0.00059703    -0.00073976     0.00224852
     0.04057001     0.00131755    -0.00258615
    -0.00099115    -0.00161535    -0.00040466
    -0.00147531     0.00358163     0.00310554

 H vector - DCV - non-adiabatic coupling
    -0.00031298    -0.00387114     0.05470088
    -0.13360285    -0.22194093    -0.00372954
     0.00239884     0.00646586    -0.00641040
    -0.00133628    -0.00360980    -0.01333391
    -0.00140278    -0.01416059    -0.01160422
     0.93454180     0.24113391     0.08462047
    -0.87392789    -0.21470734    -0.09146962
     0.00129739    -0.00663008     0.00073688
    -0.00567935    -0.00560306     0.01446934
    -0.25600860     0.21692905    -0.05075999
    -0.00725032    -0.00887179     0.02328096
     0.36637451    -0.00387921    -0.03145416
    -0.01479753    -0.01083315     0.01252098
    -0.01029395     0.02957827     0.01843233
--------------------------------------------------


--------------------------------------------------------------------------------
DFTB+ running times                          cpu [s]             wall clock [s]
--------------------------------------------------------------------------------
SCC                                    +     0.11  ( 29.5%)      0.12  ( 29.5%)
      Dense to sparse                        0.02  (  4.9%)      0.01  (  3.5%)
  Density matrix creation                    0.01  (  2.9%)      0.01  (  2.5%)
Post-SCC processing                    +     0.27  ( 69.9%)      0.27  ( 68.9%)
  Force calculation                          0.27  ( 69.7%)      0.27  ( 68.4%)
--------------------------------------------------------------------------------
Missing                                +     0.00  (  0.7%)      0.01  (  1.5%)
Total                                  =     0.39  (100.0%)      0.40  (100.0%)
--------------------------------------------------------------------------------
