     6
  Step:     0            Position(A)                                  Velocity(au)
C        -0.03960490     0.01290588     0.02388710     0.00008125     0.00007775    -0.00035474
N        -0.03907658    -0.05861000     1.29194004     0.00011157     0.00006096     0.00026996
H         0.88787384    -0.00621472    -0.51579359     0.00031068    -0.00054646    -0.00005310
H         0.82691694    -0.07375388     1.88492057    -0.00078987    -0.00036957    -0.00070366
H        -0.93768047    -0.03149768     1.81619287    -0.00137018    -0.00061610     0.00143945
H        -0.97509194     0.10236642    -0.53117192    -0.00066915    -0.00024146    -0.00020705
     6
  Step:     1            Position(A)                                  Velocity(au)
C        -0.03916926     0.01334151     0.02179475     0.00007752     0.00008146    -0.00040840
N        -0.03846438    -0.05828871     1.29359262     0.00011017     0.00005666     0.00033257
H         0.88993804    -0.00921852    -0.51645388     0.00044206    -0.00055199    -0.00018736
H         0.82241999    -0.07574469     1.88099716    -0.00084175    -0.00035849    -0.00072120
H        -0.94508863    -0.03487600     1.82411848    -0.00131995    -0.00061951     0.00144587
H        -0.97894911     0.10108373    -0.53254610    -0.00073509    -0.00022806    -0.00029229
     6
  Step:     2            Position(A)                                  Velocity(au)
C        -0.03875664     0.01379716     0.01941843     0.00007281     0.00008493    -0.00045771
N        -0.03787107    -0.05798999     1.29557897     0.00010457     0.00005265     0.00039103
H         0.89271083    -0.01225458    -0.51784361     0.00056738    -0.00055741    -0.00031833
H         0.81770656    -0.07767644     1.87702932    -0.00086648    -0.00034758    -0.00071805
H        -0.95212325    -0.03827625     1.83201339    -0.00123384    -0.00062303     0.00142735
H        -0.98313516     0.09987105    -0.53437018    -0.00078772    -0.00021559    -0.00037071
     6
  Step:     3            Position(A)                                  Velocity(au)
C        -0.03837202     0.01427146     0.01678295     0.00006727     0.00008810    -0.00050206
N        -0.03731937    -0.05771226     1.29787424     0.00009489     0.00004891     0.00044431
H         0.89615066    -0.01532196    -0.51993945     0.00068312    -0.00056239    -0.00044362
H         0.81293230    -0.07955061     1.87313479    -0.00086151    -0.00033697    -0.00069265
H        -0.95859878    -0.04169795     1.83974745    -0.00111590    -0.00062609     0.00138598
H        -0.98757440     0.09872315    -0.53660525    -0.00082579    -0.00020404    -0.00044149
     6
  Step:     4            Position(A)                                  Velocity(au)
C        -0.03801942     0.01476265     0.01391631     0.00006110     0.00009089    -0.00054089
N        -0.03683119    -0.05745395     1.30044826     0.00008134     0.00004547     0.00049151
H         0.90019729    -0.01841792    -0.52270534     0.00078602    -0.00056662    -0.00056096
H         0.80826506    -0.08136931     1.86943841    -0.00082522    -0.00032676    -0.00064420
H        -0.96435260    -0.04513764     1.84720255    -0.00097067    -0.00062818     0.00132421
H        -0.99218512     0.09763491    -0.53920851    -0.00084843    -0.00019340    -0.00050400
     6
  Step:     5            Position(A)                                  Velocity(au)
C        -0.03770179     0.01526856     0.01084924     0.00005449     0.00009324    -0.00057379
N        -0.03642703    -0.05721342     1.30326626     0.00006426     0.00004234     0.00053190
H         0.90477346    -0.02153794    -0.52609331     0.00087322    -0.00056980    -0.00066829
H         0.80387946    -0.08313528     1.86606774    -0.00075716    -0.00031709    -0.00057282
H        -0.96924722    -0.04858927     1.85427440    -0.00080303    -0.00062892     0.00124483
H        -0.99688189     0.09660148    -0.54213426    -0.00085526    -0.00018362    -0.00055784
     6
  Step:     6            Position(A)                                  Velocity(au)
C        -0.03742095     0.01578671     0.00761458     0.00004767     0.00009510    -0.00060046
N        -0.03612545    -0.05698898     1.30628990     0.00004407     0.00003951     0.00056495
H         0.90978746    -0.02467579    -0.53004491     0.00094242    -0.00057164    -0.00076389
H         0.79994948    -0.08485179     1.86314733    -0.00065839    -0.00030804    -0.00047974
H        -0.97317197    -0.05204479     1.86087395    -0.00061809    -0.00062800     0.00115078
H        -1.00157805     0.09561834    -0.54533500    -0.00084634    -0.00017462    -0.00060279
     6
  Step:     7            Position(A)                                  Velocity(au)
C        -0.03717760     0.01631430     0.00424659     0.00004084     0.00009643    -0.00062074
N        -0.03594244    -0.05677895     1.30947844     0.00002131     0.00003700     0.00059039
H         0.91513620    -0.02782369    -0.53449296     0.00099196    -0.00057192    -0.00084641
H         0.79663989    -0.08652249     1.86079252    -0.00053153    -0.00029967    -0.00036732
H        -0.97604367    -0.05549471     1.86692830    -0.00042097    -0.00062524     0.00104517
H        -1.00618811     0.09468141    -0.54876251    -0.00082217    -0.00016633    -0.00063887
     6
  Step:     8            Position(A)                                  Velocity(au)
C        -0.03697135     0.01684835     0.00078025     0.00003417     0.00009719    -0.00063461
N        -0.03589080    -0.05658163     1.31279000    -0.00000337     0.00003480     0.00060815
H         0.92070886    -0.03097260    -0.53936379     0.00102089    -0.00057045    -0.00091495
H         0.79409739    -0.08815111     1.85910313    -0.00038080    -0.00029195    -0.00023901
H        -0.97780678    -0.05892866     1.87238120    -0.00021675    -0.00062056     0.00093114
H        -1.01063005     0.09378706    -0.55236892    -0.00078365    -0.00015867    -0.00066627
     6
  Step:     9            Position(A)                                  Velocity(au)
C        -0.03680085     0.01738572    -0.00274953     0.00002785     0.00009737    -0.00064218
N        -0.03597959    -0.05639533     1.31618291    -0.00002925     0.00003290     0.00061844
H         0.92639075    -0.03411255    -0.54457964     0.00102896    -0.00056713    -0.00096907
H         0.79244187    -0.08974106     1.85815758    -0.00021186    -0.00028481    -0.00009921
H        -0.97843318    -0.06233597     1.87719342    -0.00001040    -0.00061398     0.00081183
H        -1.01482736     0.09293223    -0.55610771    -0.00073205    -0.00015153    -0.00068539
     6
  Step:    10            Position(A)                                  Velocity(au)
C        -0.03666390     0.01792323    -0.00630867     0.00002201     0.00009699    -0.00064372
N        -0.03621366    -0.05621849     1.31961687    -0.00005553     0.00003128     0.00062165
H         0.93206727    -0.03723300    -0.55006111     0.00101662    -0.00056190    -0.00100876
H         0.79175877    -0.09129505     1.85800798    -0.00003153    -0.00027808     0.00004698
H        -0.97792160    -0.06570620     1.88134279     0.00019330    -0.00060560     0.00069036
H        -1.01871100     0.09211437    -0.55993474    -0.00066890    -0.00014482    -0.00069676
     6
  Step:    11            Position(A)                                  Velocity(au)
C        -0.03655761     0.01845773    -0.00986454     0.00001675     0.00009605    -0.00063957
N        -0.03659334    -0.05604959     1.32305407    -0.00008138     0.00002993     0.00061835
H         0.93762744    -0.04032326    -0.55572954     0.00098489    -0.00055481    -0.00103444
H         0.79209341    -0.09281468     1.85867689     0.00015265    -0.00027154     0.00019410
H        -0.97629666    -0.06902966     1.88482402     0.00038981    -0.00059563     0.00056977
H        -1.02222079     0.09133152    -0.56380901    -0.00059597    -0.00013844    -0.00070107
     6
  Step:    12            Position(A)                                  Velocity(au)
C        -0.03647852     0.01898619    -0.01338660     0.00001217     0.00009459    -0.00063019
N        -0.03711430    -0.05588729     1.32645995    -0.00010600     0.00002881     0.00060920
H         0.94296680    -0.04337290    -0.56150898     0.00093527    -0.00054594    -0.00104683
H         0.79344815    -0.09430011     1.86015601     0.00033297    -0.00026492     0.00033668
H        -0.97360765    -0.07229789     1.88764834     0.00057491    -0.00058436     0.00045299
H        -1.02530648     0.09058224    -0.56769336    -0.00051515    -0.00013231    -0.00069912
     6
  Step:    13            Position(A)                                  Velocity(au)
C        -0.03642276     0.01950577    -0.01684683     0.00000833     0.00009266    -0.00061614
N        -0.03776773    -0.05573037     1.32980379    -0.00012861     0.00002791     0.00059499
H         0.94798985    -0.04637210    -0.56732796     0.00086964    -0.00053549    -0.00104697
H         0.79578257    -0.09574992     1.86240712     0.00050207    -0.00025794     0.00046966
H        -0.96992691    -0.07550413     1.88984292     0.00074471    -0.00057215     0.00034277
H        -1.02792839     0.08986562    -0.57155501    -0.00042837    -0.00012632    -0.00069177
     6
  Step:    14            Position(A)                                  Velocity(au)
C        -0.03638618     0.02001385    -0.02022028     0.00000525     0.00009030    -0.00059800
N        -0.03854072    -0.05557775     1.33305911    -0.00014855     0.00002719     0.00057652
H         0.95261206    -0.04931212    -0.57312106     0.00079013    -0.00052369    -0.00103613
H         0.79901671    -0.09716101     1.86536505     0.00065350    -0.00025033     0.00058871
H        -0.96534794    -0.07864368     1.89145002     0.00089577    -0.00055943     0.00024170
H        -1.03005755     0.08918118    -0.57536592    -0.00033754    -0.00012042    -0.00067994
     6
  Step:    15            Position(A)                                  Velocity(au)
C        -0.03636451     0.02050815    -0.02348526     0.00000294     0.00008758    -0.00057642
N        -0.03941679    -0.05542849     1.33620372    -0.00016527     0.00002665     0.00055456
H         0.95676112    -0.05218560    -0.57883012     0.00069905    -0.00051084    -0.00101577
H         0.80303709    -0.09852883     1.86894238     0.00078207    -0.00024184     0.00069048
H        -0.95998300    -0.08171436     1.89252599     0.00102508    -0.00054670     0.00015212
H        -1.03167547     0.08852886    -0.57910303    -0.00024449    -0.00011453    -0.00066456
     6
  Step:    16            Position(A)                                  Velocity(au)
C        -0.03635348     0.02098675    -0.02662356     0.00000178     0.00008657    -0.00059493
N        -0.04037671    -0.05528173     1.33921958    -0.00017865     0.00002451     0.00056326
H         0.96037761    -0.05498687    -0.58440504     0.00056723    -0.00055054    -0.00095459
H         0.80770458    -0.09984757     1.87303538     0.00087247    -0.00016925     0.00076452
H        -0.95396059    -0.08471678     1.89313993     0.00114384    -0.00059693     0.00006244
H        -1.03277351     0.08790895    -0.58274838    -0.00012207    -0.00005547    -0.00061041
     6
  Step:    17            Position(A)                                  Velocity(au)
C        -0.03634472     0.02147035    -0.03009776     0.00000182     0.00008747    -0.00065912
N        -0.04140246    -0.05515605     1.34246420    -0.00018846     0.00002063     0.00060800
H         0.96306571    -0.05830466    -0.58944014     0.00039680    -0.00062316    -0.00085126
H         0.81273440    -0.10040997     1.87743979     0.00091910    -0.00005447     0.00080277
H        -0.94726955    -0.08834908     1.89322000     0.00125308    -0.00068925    -0.00002965
H        -1.03303224     0.08791231    -0.58588756     0.00002839     0.00003789    -0.00051680
     6
  Step:    18            Position(A)                                  Velocity(au)
C        -0.03633325     0.02195943    -0.03395326     0.00000259     0.00008819    -0.00072521
N        -0.04247252    -0.05505228     1.34598085    -0.00019410     0.00001683     0.00065490
H         0.96479018    -0.06191674    -0.59387147     0.00022336    -0.00066806    -0.00074073
H         0.81792538    -0.10045330     1.88196253     0.00093276     0.00003115     0.00081265
H        -0.94002571    -0.09238158     1.89281018     0.00133560    -0.00075348    -0.00010896
H        -1.03245781     0.08833031    -0.58849539     0.00017484     0.00010563    -0.00042206
     6
  Step:    19            Position(A)                                  Velocity(au)
C        -0.03631592     0.02245163    -0.03816705     0.00000388     0.00008844    -0.00078590
N        -0.04356221    -0.05496877     1.34975117    -0.00019523     0.00001338     0.00069737
H         0.96555095    -0.06573806    -0.59768210     0.00005185    -0.00070012    -0.00062881
H         0.82311302    -0.10006339     1.88648202     0.00091832     0.00010396     0.00080252
H        -0.93240864    -0.09673294     1.89200764     0.00138352    -0.00080584    -0.00016902
H        -1.03108685     0.08908762    -0.59058376     0.00031306     0.00016221    -0.00033077
     6
  Step:    20            Position(A)                                  Velocity(au)
C        -0.03629005     0.02294411    -0.04270301     0.00000562     0.00008818    -0.00083956
N        -0.04464605    -0.05490335     1.35374495    -0.00019179     0.00001036     0.00073393
H         0.96536740    -0.06971147    -0.60087227    -0.00011448    -0.00072328    -0.00051828
H         0.82814944    -0.09929583     1.89089732     0.00087899     0.00016799     0.00077580
H        -0.92462244    -0.10135328     1.89092841     0.00139347    -0.00085077    -0.00020712
H        -1.02897238     0.09013621    -0.59217794     0.00044039     0.00021135    -0.00024504
     6
  Step:    21            Position(A)                                  Velocity(au)
C        -0.03625334     0.02343397    -0.04751954     0.00000774     0.00008742    -0.00088559
N        -0.04569874    -0.05485342     1.35792691    -0.00018393     0.00000783     0.00076400
H         0.96427564    -0.07379523    -0.60345565    -0.00027283    -0.00073996    -0.00041141
H         0.83290473    -0.09819199     1.89512426     0.00081826     0.00022532     0.00073554
H        -0.91688582    -0.10621028     1.88970034     0.00136369    -0.00089108    -0.00022168
H        -1.02618102     0.09144202    -0.59331348     0.00055461     0.00025516    -0.00016658
     6
  Step:    22            Position(A)                                  Velocity(au)
C        -0.03620375     0.02391843    -0.05257304     0.00001022     0.00008619    -0.00092389
N        -0.04669596    -0.05481606     1.36225989    -0.00017188     0.00000586     0.00078750
H         0.96232663    -0.07795838    -0.60545749    -0.00042082    -0.00075189    -0.00031009
H         0.83726908    -0.09678461     1.89909501     0.00073987     0.00027724     0.00068466
H        -0.90942388    -0.11128450     1.88845771     0.00129397    -0.00092888    -0.00021208
H        -1.02279116     0.09298005    -0.59403453     0.00065387     0.00029511    -0.00009678
     6
  Step:    23            Position(A)                                  Velocity(au)
C        -0.03613944     0.02439492    -0.05782009     0.00001300     0.00008454    -0.00095466
N        -0.04761509    -0.05478813     1.36670685    -0.00015603     0.00000446     0.00080461
H         0.95958384    -0.08217814    -0.60691287    -0.00055642    -0.00076049    -0.00021593
H         0.84115359    -0.09510098     1.90275760     0.00064760     0.00032466     0.00062597
H        -0.90245923    -0.11656649     1.88733583     0.00118557    -0.00096586    -0.00017870
H        -1.01889090     0.09473219    -0.59439244     0.00073666     0.00033231    -0.00003676
     6
  Step:    24            Position(A)                                  Velocity(au)
C        -0.03605878     0.02486119    -0.06321883     0.00001606     0.00008253    -0.00097826
N        -0.04843592    -0.05476632     1.37123244    -0.00013684     0.00000367     0.00081572
H         0.95612175    -0.08643892    -0.60786543    -0.00067786    -0.00076696    -0.00013030
H         0.84449074    -0.09316423     1.90607542     0.00054521     0.00036824     0.00056210
H        -0.89620310    -0.12205525     1.88646501     0.00104127    -0.00100341    -0.00012293
H        -1.01457639     0.09668580    -0.59444445     0.00080172     0.00036770     0.00001257
     6
  Step:    25            Position(A)                                  Velocity(au)
C        -0.03596037     0.02531530    -0.06872975     0.00001935     0.00008021    -0.00099510
N        -0.04914118    -0.05474720     1.37580387    -0.00011489     0.00000349     0.00082131
H         0.95202434    -0.09073138    -0.60836598    -0.00078353    -0.00077232    -0.00005434
H         0.84723381    -0.09099431     1.90902617     0.00043627     0.00040851     0.00049547
H        -0.89084690    -0.12775659     1.88596492     0.00086529    -0.00104252    -0.00004718
H        -1.00995009     0.09883284    -0.59425226     0.00084804     0.00040203     0.00005055
     6
  Step:    26            Position(A)                                  Velocity(au)
C        -0.03584303     0.02575561    -0.07431576     0.00002282     0.00007762    -0.00100555
N        -0.04971713    -0.05472735     1.38039131    -0.00009083     0.00000392     0.00082188
H         0.94738419    -0.09505150    -0.60847140    -0.00087193    -0.00077741     0.00001097
H         0.84935585    -0.08860868     1.91160063     0.00032417     0.00044585     0.00042824
H        -0.88655376    -0.13368093     1.88593889     0.00066331    -0.00108377     0.00004518
H        -1.00511944     0.10116909    -0.59388080     0.00087479     0.00043592     0.00007669
     6
  Step:    27            Position(A)                                  Velocity(au)
C        -0.03570592     0.02618076    -0.07994200     0.00002641     0.00007480    -0.00100990
N        -0.05015397    -0.05470345     1.38496811    -0.00006540     0.00000493     0.00081794
H         0.94230200    -0.09939976    -0.60824370    -0.00094161    -0.00078291     0.00006478
H         0.85084839    -0.08602294     1.91380118     0.00021207     0.00048051     0.00036236
H        -0.88345074    -0.13984100     1.88646866     0.00044233    -0.00112728     0.00014990
H        -1.00019590     0.10369349    -0.59339713     0.00088130     0.00046984     0.00009072
     6
  Step:    28            Position(A)                                  Velocity(au)
C        -0.03554856     0.02658963    -0.08557537     0.00003005     0.00007180    -0.00100840
N        -0.05044625    -0.05467242     1.38951062    -0.00003939     0.00000645     0.00080996
H         0.93688598    -0.10378031    -0.60774919    -0.00099123    -0.00078938     0.00010639
H         0.85172023    -0.08325137     1.91564060     0.00010299     0.00051266     0.00029958
H        -0.88162217    -0.14624922     1.88761011     0.00021042    -0.00117272     0.00026206
H        -0.99529363     0.10640743    -0.59286934     0.00086723     0.00050415     0.00009258
     6
  Step:    29            Position(A)                                  Velocity(au)
C        -0.03537093     0.02698125    -0.09118419     0.00003363     0.00006864    -0.00100124
N        -0.05059315    -0.05463150     1.39399802    -0.00001367     0.00000843     0.00079843
H         0.93125119    -0.10820016    -0.60705762    -0.00101961    -0.00079726     0.00013525
H         0.85199655    -0.08030747     1.91714102    -0.00000023     0.00054241     0.00024147
H        -0.88110481    -0.15291515     1.88939024    -0.00002357    -0.00121934     0.00037632
H        -0.99052754     0.10931405    -0.59236503     0.00083263     0.00053908     0.00008247
     6
  Step:    30            Position(A)                                  Velocity(au)
C        -0.03517363     0.02735491    -0.09673804     0.00003704     0.00006537    -0.00098864
N        -0.05059860    -0.05457842     1.39841223     0.00001094     0.00001076     0.00078381
H         0.92551844    -0.11266890    -0.60624126    -0.00102585    -0.00080698     0.00015100
H         0.85171766    -0.07720410     1.91833277    -0.00009493     0.00056983     0.00018946
H        -0.88188489    -0.15984350     1.89180565    -0.00025054    -0.00126609     0.00048724
H        -0.98601078     0.11241759    -0.59194993     0.00077805     0.00057477     0.00006087
     6
  Step:    31            Position(A)                                  Velocity(au)
C        -0.03495795     0.02771010    -0.10220775     0.00004015     0.00006201    -0.00097086
N        -0.05047121    -0.05451149     1.40273768     0.00003360     0.00001334     0.00076655
H         0.91981273    -0.11719816    -0.60537389    -0.00100945    -0.00081885     0.00015352
H         0.85093801    -0.07395375     1.91925358    -0.00017870     0.00059495     0.00014478
H        -0.88389841    -0.16703236     1.89482307    -0.00046173    -0.00131166     0.00058965
H        -0.98185207     0.11572287    -0.59168627     0.00070464     0.00061123     0.00002860
     6
  Step:    32            Position(A)                                  Velocity(au)
C        -0.03472589     0.02804654    -0.10756573     0.00004282     0.00005863    -0.00094825
N        -0.05022389    -0.05442965     1.40696132     0.00005360     0.00001604     0.00074711
H         0.91426033    -0.12180128    -0.60452912    -0.00097054    -0.00083315     0.00014298
H         0.84972468    -0.07056884     1.91994748    -0.00024938     0.00061786     0.00010850
H        -0.88703447    -0.17447207     1.89838189    -0.00064931    -0.00135472     0.00067904
H        -0.97815212     0.11923442    -0.59163101     0.00061424     0.00064843    -0.00001323
     6
  Step:    33            Position(A)                                  Velocity(au)
C        -0.03448026     0.02836417    -0.11278642     0.00004492     0.00005525    -0.00092127
N        -0.04987330    -0.05433251     1.41107243     0.00007033     0.00001876     0.00072594
H         0.90898548    -0.12649278    -0.60377878    -0.00090986    -0.00085010     0.00011991
H         0.84815590    -0.06706094     1.92046395    -0.00030522     0.00063873     0.00008145
H        -0.89114206    -0.18214550     1.90239841    -0.00080688    -0.00139398     0.00075179
H        -0.97499965     0.12295674    -0.59183388     0.00050936     0.00068632    -0.00006315
     6
  Step:    34            Position(A)                                  Velocity(au)
C        -0.03422464     0.02866312    -0.11784680     0.00004631     0.00005192    -0.00089046
N        -0.04943899    -0.05422032     1.41506255     0.00008338     0.00002137     0.00070345
H         0.90410666    -0.13128809    -0.60319092    -0.00082888    -0.00086983     0.00008519
H         0.84631857    -0.06344082     1.92085643    -0.00034491     0.00065775     0.00006422
H        -0.89603894    -0.19002840     1.90677156    -0.00092982    -0.00142834     0.00080539
H        -0.97246780     0.12689353    -0.59233575     0.00039312     0.00072475    -0.00011945
     6
  Step:    35            Position(A)                                  Velocity(au)
C        -0.03396325     0.02894380    -0.12272696     0.00004690     0.00004869    -0.00085643
N        -0.04894252    -0.05409395     1.41892533     0.00009247     0.00002378     0.00068003
H         0.89973236    -0.13620306    -0.60282780    -0.00072982    -0.00089240     0.00004005
H         0.84430548    -0.05971821     1.92118083    -0.00036772     0.00067516     0.00005708
H        -0.90152203    -0.19809068     1.91138928    -0.00101545    -0.00145696     0.00083850
H        -0.97061104     0.13104745    -0.59316732     0.00026907     0.00076354    -0.00018023
     6
  Step:    36            Position(A)                                  Velocity(au)
C        -0.03370087     0.02920680    -0.12741051     0.00004662     0.00004558    -0.00081989
N        -0.04840636    -0.05395473     1.42265635     0.00009755     0.00002592     0.00065602
H         0.89595679    -0.14125338    -0.60274372    -0.00061561    -0.00091774    -0.00001393
H         0.84221228    -0.05590143     1.92149388    -0.00037346     0.00069125     0.00006003
H        -0.90737834    -0.20629810     1.91613504    -0.00106300    -0.00147932     0.00085092
H        -0.96946307     0.13541993    -0.59434835     0.00014104     0.00080249    -0.00024352
     6
  Step:    37            Position(A)                                  Velocity(au)
C        -0.03344252     0.02945288    -0.13188484     0.00004543     0.00004262    -0.00078152
N        -0.04785296    -0.05380441     1.42625289     0.00009869     0.00002773     0.00063173
H         0.89285617    -0.14645394    -0.60298340    -0.00048971    -0.00094568    -0.00007491
H         0.84013404    -0.05199713     1.92185138    -0.00036256     0.00070638     0.00007273
H        -0.91339536    -0.21461425     1.92089380    -0.00107339    -0.00149525     0.00084338
H        -0.96903565     0.14001100    -0.59588733     0.00001294     0.00084136    -0.00030733
     6
  Step:    38            Position(A)                                  Velocity(au)
C        -0.03319334     0.02968293    -0.13614125     0.00004334     0.00003983    -0.00074201
N        -0.04730387    -0.05364496     1.42971372     0.00009613     0.00002917     0.00060739
H         0.89048596    -0.15181812    -0.60358058    -0.00035599    -0.00097591    -0.00014088
H         0.83816189    -0.04801012     1.92230636    -0.00033604     0.00072087     0.00009452
H        -0.91936982    -0.22300236     1.92555695    -0.00104892    -0.00150485     0.00081738
H        -0.96931852     0.14481920    -0.59778168    -0.00011142     0.00087990    -0.00036977
     6
  Step:    39            Position(A)                                  Velocity(au)
C        -0.03295826     0.02989788    -0.14017479     0.00004041     0.00003721    -0.00070200
N        -0.04677893    -0.05347849     1.43303888     0.00009023     0.00003024     0.00058321
H         0.88887894    -0.15735718    -0.60455731    -0.00021856    -0.00100800    -0.00020972
H         0.83637969    -0.04394333     1.92290742    -0.00029546     0.00073507     0.00012449
H        -0.92511430    -0.23142698     1.93002586    -0.00099286    -0.00150849     0.00077491
H        -0.97028052     0.14984156    -0.60001855    -0.00022853     0.00091786    -0.00042913
     6
  Step:    40            Position(A)                                  Velocity(au)
C        -0.03274185     0.03009863    -0.14398398     0.00003672     0.00003475    -0.00066205
N        -0.04629582    -0.05330716     1.43622935     0.00008141     0.00003093     0.00055932
H         0.88804426    -0.16307947    -0.60592353    -0.00008158    -0.00104137    -0.00027930
H         0.83486104    -0.03979789     1.92369714    -0.00024286     0.00074928     0.00016143
H        -0.93046201    -0.23985525     1.93421427    -0.00090911    -0.00150671     0.00071829
H        -0.97187166     0.15507351    -0.60257592    -0.00033528     0.00095495    -0.00048390
     6
  Step:    41            Position(A)                                  Velocity(au)
C        -0.03254804     0.03028603    -0.14757037     0.00003240     0.00003242    -0.00062266
N        -0.04586957    -0.05313300     1.43928687     0.00007015     0.00003127     0.00053583
H         0.88796766    -0.16898994    -0.60767727     0.00005089    -0.00107537    -0.00034757
H         0.83366676    -0.03557335     1.92471075    -0.00018071     0.00076375     0.00020396
H        -0.93526968    -0.24825788     1.93804968    -0.00080196    -0.00150016     0.00064998
H        -0.97402580     0.16050894    -0.60542401    -0.00042908     0.00099089    -0.00053284
     6
  Step:    42            Position(A)                                  Velocity(au)
C        -0.03238001     0.03046076    -0.15093811     0.00002758     0.00003021    -0.00058421
N        -0.04551237    -0.05295794     1.44221374     0.00005697     0.00003129     0.00051280
H         0.88861267    -0.17508960    -0.60980534     0.00017509    -0.00110926    -0.00041262
H         0.83284282    -0.03126797     1.92597507    -0.00011176     0.00077867     0.00025051
H        -0.93941860    -0.25660968     1.94147356    -0.00067573    -0.00148958     0.00057242
H        -0.97666380     0.16614019    -0.60852687    -0.00050791     0.00102541    -0.00057498
     6
  Step:    43            Position(A)                                  Velocity(au)
C        -0.03224008     0.03062332    -0.15409333     0.00002243     0.00002807    -0.00054699
N        -0.04523347    -0.05278364     1.44501257     0.00004239     0.00003103     0.00049027
H         0.88992263    -0.18137533    -0.61228435     0.00028766    -0.00114227    -0.00047274
H         0.83241894    -0.02687916     1.92750778    -0.00003897     0.00079412     0.00029940
H        -0.94281455    -0.26488983     1.94444107    -0.00053470    -0.00147573     0.00048797
H        -0.97969689     0.17195810    -0.61184393    -0.00057033     0.00105822    -0.00060962
     6
  Step:    44            Position(A)                                  Velocity(au)
C        -0.03212967     0.03077403    -0.15704367     0.00001710     0.00002596    -0.00051122
N        -0.04503917    -0.05261155     1.44768617     0.00002694     0.00003055     0.00046823
H         0.89182353    -0.18783978    -0.61508209     0.00038577    -0.00117365    -0.00052648
H         0.83240783    -0.02240386     1.92931699     0.00003460     0.00081016     0.00034892
H        -0.94538704    -0.27308201     1.94692036    -0.00038299    -0.00145938     0.00039886
H        -0.98302991     0.17795217    -0.61533155    -0.00061544     0.00108908    -0.00063633
     6