 Fermi distribution function

Calculation with static geometry


********************************************************************************
 iSCC Total electronic   Diff electronic      SCC error    
    9   -0.54469002E+01   -0.14654944E-12    0.73808852E-06
********************************************************************************

 Total charge:     1.00000000

 Atomic gross charges (e)
 Atom           Charge
    1       0.15756985
    2      -0.03087919
    3       0.16230913
    4       0.27445349
    5       0.27066786
    6       0.16587886

Nr. of electrons (up):     12.00000000
Atom populations (up)
 Atom       Population
    1       3.84243015
    2       5.03087919
    3       0.83769087
    4       0.72554651
    5       0.72933214
    6       0.83412114

l-shell populations (up)
 Atom Sh.   l       Population
    1   1   0       1.29903058
    1   2   1       2.54339956
    2   1   0       1.41629671
    2   2   1       3.61458248
    3   1   0       0.83769087
    4   1   0       0.72554651
    5   1   0       0.72933214
    6   1   0       0.83412114

Orbital populations (up)
 Atom Sh.   l   m       Population  Label
    1   1   0   0       1.29903058  s
    1   2   1  -1       0.61575322  p_y
    1   2   1   0       0.88144670  p_z
    1   2   1   1       1.04619964  p_x
    2   1   0   0       1.41629671  s
    2   2   1  -1       1.36263225  p_y
    2   2   1   0       1.10643818  p_z
    2   2   1   1       1.14551205  p_x
    3   1   0   0       0.83769087  s
    4   1   0   0       0.72554651  s
    5   1   0   0       0.72933214  s
    6   1   0   0       0.83412114  s

Fermi level:                        -0.4932375584 H          -13.4217 eV
Band energy:                        -8.9903462586 H         -244.6398 eV
TS:                                  0.0000000000 H            0.0000 eV
Band free energy (E-TS):            -8.9903462586 H         -244.6398 eV
Extrapolated E(0K):                 -8.9903462586 H         -244.6398 eV
Input / Output electrons (q):     12.0000000000     12.0000000000

Energy H0:                          -5.5813953178 H         -151.8775 eV
Energy SCC:                          0.1344951000 H            3.6598 eV
Total Electronic energy:            -5.4469002178 H         -148.2177 eV
Repulsive energy:                    0.2000111473 H            5.4426 eV
Total energy:                       -5.2468890705 H         -142.7751 eV
Extrapolated to 0:                  -5.2468890705 H         -142.7751 eV
Total Mermin free energy:           -5.2468890705 H         -142.7751 eV
Force related energy:               -5.2468890705 H         -142.7751 eV

SCC converged

Excitation Energy:                   0.1775330411 H            4.8309 eV

Total Forces
    1      0.001947162649     -0.011232233500     -0.006679629490
    2      0.013084118162      0.009473921555     -0.013144780010
    3     -0.004385837957      0.000213058250      0.004114518730
    4     -0.009140788994     -0.000770190883      0.003314020568
    5     -0.003700303097     -0.002370083974      0.010912985578
    6      0.002195649236      0.004685528552      0.001482884623

Maximal derivative component:        0.131448E-01 au


