 Fermi distribution function

Calculation with static geometry


********************************************************************************
 iSCC Total electronic   Diff electronic      SCC error    
   11   -0.53813965E+01   -0.73718809E-13    0.62275437E-07
********************************************************************************

 Total charge:     1.00000000

 Atomic gross charges (e)
 Atom           Charge
    1       0.29155773
    2      -0.18058446
    3       0.15576246
    4       0.26863696
    5       0.30942336
    6       0.15520395

Nr. of electrons (up):     12.00000000
Atom populations (up)
 Atom       Population
    1       3.70844227
    2       5.18058446
    3       0.84423754
    4       0.73136304
    5       0.69057664
    6       0.84479605

l-shell populations (up)
 Atom Sh.   l       Population
    1   1   0       1.30160463
    1   2   1       2.40683764
    2   1   0       1.42670684
    2   2   1       3.75387762
    3   1   0       0.84423754
    4   1   0       0.73136304
    5   1   0       0.69057664
    6   1   0       0.84479605

Orbital populations (up)
 Atom Sh.   l   m       Population  Label
    1   1   0   0       1.30160463  s
    1   2   1  -1       0.52208481  p_y
    1   2   1   0       0.90150269  p_z
    1   2   1   1       0.98325014  p_x
    2   1   0   0       1.42670684  s
    2   2   1  -1       1.30361015  p_y
    2   2   1   0       1.11033705  p_z
    2   2   1   1       1.33993043  p_x
    3   1   0   0       0.84423754  s
    4   1   0   0       0.73136304  s
    5   1   0   0       0.69057664  s
    6   1   0   0       0.84479605  s

Fermi level:                        -0.4911208590 H          -13.3641 eV
Band energy:                        -8.8817457028 H         -241.6846 eV
TS:                                  0.0000000000 H            0.0000 eV
Band free energy (E-TS):            -8.8817457028 H         -241.6846 eV
Extrapolated E(0K):                 -8.8817457028 H         -241.6846 eV
Input / Output electrons (q):     12.0000000000     12.0000000000

Energy H0:                          -5.5170067920 H         -150.1254 eV
Energy SCC:                          0.1356102565 H            3.6901 eV
Total Electronic energy:            -5.3813965354 H         -146.4353 eV
Repulsive energy:                    0.1958006546 H            5.3280 eV
Total energy:                       -5.1855958808 H         -141.1072 eV
Extrapolated to 0:                  -5.1855958808 H         -141.1072 eV
Total Mermin free energy:           -5.1855958808 H         -141.1072 eV
Force related energy:               -5.1855958808 H         -141.1072 eV

SCC converged

Excitation Energy:                   0.0928023756 H            2.5253 eV

Total Forces
    1      0.014189333818      0.006790099143     -0.001336146934
    2     -0.012208601420      0.015188738093     -0.002556852221
    3     -0.006085801462      0.008280962778     -0.004252276779
    4     -0.007514303835     -0.016528034879     -0.002746418466
    5      0.009851906487      0.003073770462      0.006902717993
    6      0.001767466410     -0.016805535598      0.003988976407

Maximal derivative component:        0.168055E-01 au


