|===============================================================================
|
|  DFTB+ release 20.1
|
|  Copyright (C) 2006 - 2020  DFTB+ developers group
|
|===============================================================================
|
|  When publishing results obtained with DFTB+, please cite the following
|  reference:
|
|  * DFTB+, a software package for efficient approximate density functional
|    theory based atomistic simulations, J. Chem. Phys. 152, 124101 (2020).
|    [doi: 10.1063/1.5143190]
|
|  You should also cite additional publications crediting the parametrization
|  data you use. Please consult the documentation of the SK-files for the
|  references.
|
|===============================================================================

Reading input file 'dftb_in.hsd'
Parser version: 8

--------------------------------------------------------------------------------
Reading SK-files:
Done.


Processed input in HSD format written to 'dftb_pin.hsd'

Starting initialization...
--------------------------------------------------------------------------------
WARNING!
-> Excited state forces are not implemented yet for fractional occupations, kT=  0.3158E-02K
OpenMP threads:              1
Chosen random seed:          433867170
Mode:                        Static calculation
Self consistent charges:     Yes
SCC-tolerance:                 0.100000E-05
Max. scc iterations:                    100
Shell resolved Hubbard:      No
Spin polarisation:           No
Nr. of up electrons:             6.000000
Nr. of down electrons:           6.000000
Periodic boundaries:         No
Electronic solver:           Relatively robust
Mixer:                       Broyden mixer
Mixing parameter:                  0.200000
Maximal SCC-cycles:                     100
Nr. of chrg. vec. in memory:              0
Electronic temperature:        0.100000E-07 H      0.272114E-06 eV
Initial charges:             Set automatically (system chrg:   0.100E+01)
Included shells:             C:  s, p
                             N:  s, p
                             H:  s
Extra options:
                             Mulliken analysis
                             Force calculation
Force type                   original
                             Eigenvector printing

--------------------------------------------------------------------------------

***  Geometry step: 0

 iSCC Total electronic   Diff electronic      SCC error    
    1   -0.53683279E+01    0.00000000E+00    0.87945703E+00
    2   -0.53756618E+01   -0.73339302E-02    0.59991216E+00
    3   -0.53808145E+01   -0.51526476E-02    0.10581622E+00
    4   -0.53798449E+01    0.96957619E-03    0.19965133E+00
    5   -0.53813750E+01   -0.15301209E-02    0.25395728E-01
    6   -0.53813906E+01   -0.15594427E-04    0.13315361E-01
    7   -0.53813965E+01   -0.59224249E-05    0.22844759E-03
    8   -0.53813965E+01   -0.28218050E-09    0.20037105E-03
    9   -0.53813965E+01   -0.16542296E-08    0.53838068E-05
   10   -0.53813965E+01   -0.12967405E-11    0.12070852E-05
   11   -0.53813965E+01   -0.73718809E-13    0.62275437E-07
>> Charges saved for restart in charges.bin

Total Energy:                       -5.0927935052 H         -138.5820 eV
Extrapolated to 0:                  -5.1855958808 H         -141.1072 eV
Total Mermin free energy:           -5.0927935052 H         -138.5820 eV
Force related energy:               -5.1855958808 H         -141.1072 eV

--------------------------------------------------------------------------------
DFTB+ running times                          cpu [s]             wall clock [s]
--------------------------------------------------------------------------------
SCC                                    +     0.01  ( 51.7%)      0.03  ( 64.3%)
Post-SCC processing                    +     0.01  ( 39.9%)      0.01  ( 26.2%)
--------------------------------------------------------------------------------
Missing                                +     0.00  (  8.4%)      0.00  (  9.5%)
Total                                  =     0.02  (100.0%)      0.04  (100.0%)
--------------------------------------------------------------------------------
