     6
  Step:     0            Position(A)                                  Velocity(au)
C        -0.03571208     0.02453227     0.02272580     0.00003073    -0.00001241    -0.00019370
N        -0.04564585    -0.05727759     1.29235713     0.00013592    -0.00009205     0.00025597
H         0.92122741    -0.01742297    -0.49500012     0.00031985     0.00022583     0.00000178
H         0.83076475    -0.14628086     1.85163019    -0.00075149     0.00049919    -0.00131941
H        -0.89244414    -0.03468758     1.87027300    -0.00127283     0.00046563     0.00061455
H        -1.01262767     0.03223491    -0.56471284    -0.00055046     0.00023637    -0.00054579
     6
  Step:     1            Position(A)                                  Velocity(au)
C        -0.03556766     0.02447942     0.02150009     0.00002171    -0.00000700    -0.00025316
N        -0.04489526    -0.05779376     1.29392030     0.00013635    -0.00009644     0.00031401
H         0.92315633    -0.01618524    -0.49529482     0.00038357     0.00022682    -0.00010865
H         0.82656864    -0.14355418     1.84438668    -0.00076667     0.00049600    -0.00131640
H        -0.89948668    -0.03211689     1.87371453    -0.00128661     0.00047382     0.00063366
H        -1.01546903     0.03350241    -0.56773266    -0.00048379     0.00022697    -0.00055552
     6
  Step:     2            Position(A)                                  Velocity(au)
C        -0.03547448     0.02445569     0.01995578     0.00001208    -0.00000178    -0.00030941
N        -0.04415391    -0.05833287     1.29579299     0.00013233    -0.00010026     0.00036821
H         0.92542443    -0.01494108    -0.49618901     0.00044250     0.00022785    -0.00021651
H         0.82237589    -0.14085374     1.83722633    -0.00074794     0.00048886    -0.00128647
H        -0.90652207    -0.02950314     1.87720640    -0.00126915     0.00048059     0.00063272
H        -1.01792127     0.03471834    -0.57079128    -0.00040818     0.00021720    -0.00055951
     6
  Step:     3            Position(A)                                  Velocity(au)
C        -0.03543544     0.02445989     0.01811202     0.00000203     0.00000318    -0.00036159
N        -0.04344623    -0.05889162     1.29795221     0.00012385    -0.00010340     0.00041755
H         0.92800177    -0.01369022    -0.49766566     0.00049496     0.00022884    -0.00032030
H         0.81837864    -0.13820118     1.83029979    -0.00069322     0.00047763    -0.00122837
H        -0.91338389    -0.02685446     1.88064286    -0.00122197     0.00048558     0.00061315
H        -1.01993860     0.03588074    -0.57385928    -0.00032490     0.00020701    -0.00055824
     6
  Step:     4            Position(A)                                  Velocity(au)
C        -0.03545227     0.02449052     0.01599254    -0.00000820     0.00000783    -0.00040888
N        -0.04279644    -0.05946625     1.30036967     0.00011105    -0.00010580     0.00046114
H         0.93084949    -0.01243283    -0.49969971     0.00053938     0.00022971    -0.00041851
H         0.81477770    -0.13561863     1.82376252    -0.00060194     0.00046236    -0.00114205
H        -0.91991573    -0.02418086     1.88392695    -0.00114745     0.00048852     0.00057688
H        -1.02148245     0.03698731    -0.57690994    -0.00023549     0.00019637    -0.00055229
     6
  Step:     5            Position(A)                                  Velocity(au)
C        -0.03552541     0.02454578     0.01362525    -0.00001836     0.00001211    -0.00045059
N        -0.04222760    -0.06005262     1.30301252     0.00009427    -0.00010741     0.00049825
H         0.93392065    -0.01116953    -0.50225818     0.00057446     0.00023039    -0.00050975
H         0.81177329    -0.13312748     1.81776763    -0.00047540     0.00044335    -0.00102882
H        -0.92597535    -0.02149372     1.88697314    -0.00104867     0.00048923     0.00052625
H        -1.02252270     0.03803563    -0.57991981    -0.00014163     0.00018530    -0.00054235
     6
  Step:     6            Position(A)                                  Velocity(au)
C        -0.03565395     0.02462361     0.01104160    -0.00002820     0.00001599    -0.00048616
N        -0.04176063    -0.06064645     1.30584438     0.00007400    -0.00010822     0.00052838
H         0.93716152    -0.00990134    -0.50530069     0.00059913     0.00023083    -0.00059274
H         0.80955412    -0.13074722     1.81245805    -0.00031695     0.00042106    -0.00089145
H        -0.93143823    -0.01880533     1.88970925    -0.00092923     0.00048761     0.00046391
H        -1.02303865     0.03902330    -0.58286911    -0.00004517     0.00017381    -0.00052913
     6
  Step:     7            Position(A)                                  Velocity(au)
C        -0.03583571     0.02472171     0.00827582    -0.00003750     0.00001942    -0.00051519
N        -0.04141337    -0.06124341     1.30882652     0.00005091    -0.00010824     0.00055125
H         0.94051317    -0.00862960    -0.50878032     0.00061267     0.00023097    -0.00066642
H         0.80828580    -0.12849435     1.80795860    -0.00013202     0.00039616    -0.00073406
H        -0.93620010    -0.01612832     1.89207769    -0.00079316     0.00048367     0.00039264
H        -1.02301976     0.03994809    -0.58574207     0.00005196     0.00016195    -0.00051343
     6
  Step:     8            Position(A)                                  Velocity(au)
C        -0.03606719     0.02483763     0.00536414    -0.00004603     0.00002238    -0.00053742
N        -0.04119963    -0.06183931     1.31191920     0.00002581    -0.00010752     0.00056681
H         0.94391326    -0.00735600    -0.51264473     0.00061469     0.00023076    -0.00072996
H         0.80809925    -0.12638146     1.80436858     0.00007200     0.00036943    -0.00056196
H        -0.94017890    -0.01347522     1.89403624    -0.00064469     0.00047748     0.00031534
H        -1.02246608     0.04080803    -0.58852721     0.00014779     0.00014980    -0.00049605
     6
  Step:     9            Position(A)                                  Velocity(au)
C        -0.03634375     0.02496876     0.00234397    -0.00005359     0.00002486    -0.00055273
N        -0.04112843    -0.06243023     1.31508277    -0.00000035    -0.00010612     0.00057521
H         0.94729790    -0.00608252    -0.51683742     0.00060511     0.00023015    -0.00078276
H         0.80908054    -0.12441666     1.80175581     0.00028620     0.00034172    -0.00038132
H        -0.94331597    -0.01085803     1.89555834    -0.00048822     0.00046919     0.00023487
H        -1.02138848     0.04160149    -0.59121736     0.00024037     0.00013740    -0.00047778
     6
  Step:    10            Position(A)                                  Velocity(au)
C        -0.03665970     0.02511246    -0.00074686    -0.00006001     0.00002684    -0.00056115
N        -0.04120346    -0.06301259     1.31827880    -0.00002658    -0.00010411     0.00057679
H         0.95060346    -0.00481141    -0.52129899     0.00058422     0.00022910    -0.00082445
H         0.81126348    -0.12260339     1.80015264     0.00050069     0.00031387    -0.00019877
H        -0.94557673    -0.00828783     1.89663298    -0.00032819     0.00045900     0.00015403
H        -1.01980850     0.04232717    -0.59380965     0.00032780     0.00012484    -0.00045940
     6
  Step:    11            Position(A)                                  Velocity(au)
C        -0.03700840     0.02526607    -0.00387092    -0.00006515     0.00002835    -0.00056287
N        -0.04142281    -0.06358324     1.32147091    -0.00005188    -0.00010157     0.00057204
H         0.95376825    -0.00354514    -0.52596844     0.00055257     0.00022759    -0.00085495
H         0.81462585    -0.12094052     1.79955442     0.00070540     0.00028667    -0.00002091
H        -0.94695078    -0.00577446     1.89726426    -0.00016898     0.00044721     0.00007551
H        -1.01775800     0.04298418    -0.59630530     0.00040829     0.00011220    -0.00044163
     6
  Step:    12            Position(A)                                  Velocity(au)
C        -0.03738253     0.02542697    -0.00699190    -0.00006890     0.00002938    -0.00055823
N        -0.04177904    -0.06413951     1.32462553    -0.00007529    -0.00009861     0.00056156
H         0.95673422    -0.00228635    -0.53078459     0.00051108     0.00022560    -0.00087445
H         0.81908989    -0.11942277     1.79992060     0.00089085     0.00026084     0.00014610
H        -0.94745159    -0.00332610     1.89747071    -0.00001482     0.00043417     0.00000180
H        -1.01527850     0.04357205    -0.59870949     0.00048027     0.00009956    -0.00042518
     6
  Step:    13            Position(A)                                  Velocity(au)
C        -0.03777421     0.02559264    -0.01007544    -0.00007121     0.00002998    -0.00054772
N        -0.04225968    -0.06467925     1.32771247    -0.00009601    -0.00009533     0.00054610
H         0.95944868    -0.00103765    -0.53568771     0.00046091     0.00022319    -0.00088352
H         0.82452737    -0.11804137     1.80117829     0.00104899     0.00023694     0.00029709
H        -0.94711554    -0.00094885     1.89728424     0.00013036     0.00042033    -0.00006484
H        -1.01241992     0.04409078    -0.60103106     0.00054247     0.00008702    -0.00041072
     6
  Step:    14            Position(A)                                  Velocity(au)
C        -0.03817535     0.02576074    -0.01309004    -0.00007208     0.00003018    -0.00053205
N        -0.04284794    -0.06520087     1.33070554    -0.00011338    -0.00009185     0.00052649
H         0.96186581     0.00019854    -0.54062135     0.00040350     0.00022044    -0.00088306
H         0.83076893    -0.11678474     1.80322825     0.00117388     0.00021542     0.00042817
H        -0.94600023     0.00135373     1.89674877     0.00026311     0.00040626    -0.00012250
H        -1.00923891     0.04454084    -0.60328232     0.00059400     0.00007466    -0.00039888
     6
  Step:    15            Position(A)                                  Velocity(au)
C        -0.03857791     0.02592915    -0.01600808    -0.00007156     0.00003004    -0.00051205
N        -0.04352391    -0.06570343     1.33358307    -0.00012700    -0.00008831     0.00050365
H         0.96394787     0.00142032    -0.54553433     0.00034039     0.00021749    -0.00087435
H         0.83761670    -0.11563934     1.80595260     0.00126209     0.00019656     0.00053702
H        -0.94418176     0.00358114     1.89591834     0.00038062     0.00039258    -0.00016964
H        -1.00579653     0.04492324    -0.60547881     0.00063448     0.00006258    -0.00039026
     6
  Step:    16            Position(A)                                  Velocity(au)
C        -0.03897421     0.02609605    -0.01880657    -0.00006975     0.00002961    -0.00048868
N        -0.04426577    -0.06618670     1.33632827    -0.00013670    -0.00008483     0.00047853
H         0.96566593     0.00262661    -0.55038256     0.00027317     0.00021456    -0.00085894
H         0.84485880    -0.11459038     1.80922350     0.00131280     0.00018052     0.00062291
H        -0.94175105     0.00573641     1.89485487     0.00048087     0.00037998    -0.00020522
H        -1.00215566     0.04523946    -0.60763915     0.00066400     0.00005085    -0.00038542
     6
  Step:    17            Position(A)                                  Velocity(au)
C        -0.03935716     0.02625997    -0.02146773    -0.00006547     0.00003159    -0.00051353
N        -0.04505117    -0.06665112     1.33892933    -0.00014272    -0.00008411     0.00049159
H         0.96699977     0.00381740    -0.55513057     0.00016939     0.00025599    -0.00079846
H         0.85228353    -0.11362256     1.81291184     0.00130443     0.00012357     0.00067267
H        -0.93880937     0.00782638     1.89362562     0.00058330     0.00041138    -0.00024194
H        -0.99837819     0.04549135    -0.60978480     0.00070641     0.00000143    -0.00034438
     6
  Step:    18            Position(A)                                  Velocity(au)
C        -0.03970595     0.02644906    -0.02454579    -0.00005880     0.00003593    -0.00058645
N        -0.04586082    -0.06712667     1.34182234    -0.00014501    -0.00008615     0.00054291
H         0.96755903     0.00548756    -0.55930621     0.00003085     0.00033181    -0.00069536
H         0.85943716    -0.11320941     1.81674132     0.00123882     0.00003666     0.00068741
H        -0.93523209     0.01033401     1.89215094     0.00068548     0.00047650    -0.00028050
H        -0.99426079     0.04525546    -0.61148794     0.00076059    -0.00007593    -0.00026778
     6
  Step:    19            Position(A)                                  Velocity(au)
C        -0.04001443     0.02666157    -0.02802354    -0.00005111     0.00003988    -0.00065462
N        -0.04667217    -0.06761415     1.34499836    -0.00014336    -0.00008826     0.00059111
H         0.96734465     0.00752665    -0.56290380    -0.00010534     0.00039170    -0.00059265
H         0.86613196    -0.11321276     1.82059622     0.00114272    -0.00003021     0.00068359
H        -0.93114659     0.01315300     1.89049003     0.00076330     0.00052696    -0.00030663
H        -0.98987581     0.04464259    -0.61277827     0.00080066    -0.00013727    -0.00019802
     6
  Step:    20            Position(A)                                  Velocity(au)
C        -0.04027749     0.02689501    -0.03186559    -0.00004260     0.00004337    -0.00071583
N        -0.04746386    -0.06811351     1.34843195    -0.00013803    -0.00009033     0.00063416
H         0.96638114     0.00986742    -0.56593306    -0.00023559     0.00044123    -0.00049273
H         0.87221478    -0.11354724     1.82438504     0.00102207    -0.00008386     0.00066511
H        -0.92669707     0.01622630     1.88872227     0.00081441     0.00056922    -0.00031770
H        -0.98530806     0.04372057    -0.61370218     0.00082489    -0.00018812    -0.00013743
     6
  Step:    21            Position(A)                                  Velocity(au)
C        -0.04049088     0.02714660    -0.03602979    -0.00003339     0.00004635    -0.00076926
N        -0.04821601    -0.06862444     1.35209127    -0.00012932    -0.00009234     0.00067130
H         0.96470971     0.01246170    -0.56841477    -0.00035720     0.00048320    -0.00039743
H         0.87756344    -0.11415073     1.82803522     0.00088237    -0.00012770     0.00063525
H        -0.92203767     0.01951951     1.88693670     0.00083759     0.00060664    -0.00031246
H        -0.98064968     0.04253852    -0.61431533     0.00083228    -0.00023119    -0.00008738
     6
  Step:    22            Position(A)                                  Velocity(au)
C        -0.04065108     0.02741348    -0.04047126    -0.00002364     0.00004882    -0.00081468
N        -0.04891054    -0.06914654     1.35594172    -0.00011757    -0.00009430     0.00070223
H         0.96238517     0.01527293    -0.57037910    -0.00046800     0.00051937    -0.00030830
H         0.88208578    -0.11497579     1.83149150     0.00072885    -0.00016398     0.00059697
H        -0.91732710     0.02301274     1.88522680     0.00083248     0.00064139    -0.00029049
H        -0.97599748     0.04113426    -0.61467968     0.00082222    -0.00026820    -0.00004879
     6
  Step:    23            Position(A)                                  Velocity(au)
C        -0.04075536     0.02769286    -0.04514465    -0.00001347     0.00005082    -0.00085207
N        -0.04953144    -0.06967946     1.35994797    -0.00010318    -0.00009620     0.00072690
H         0.95947359     0.01827255    -0.57186414    -0.00056609     0.00055098    -0.00022662
H         0.88571805    -0.11598536     1.83471431     0.00056639    -0.00019433     0.00055295
H        -0.91272370     0.02669560     1.88368665     0.00079958     0.00067495    -0.00025199
H        -0.97145042     0.03953778    -0.61486125     0.00079450    -0.00030039    -0.00002219
     6
  Step:    24            Position(A)                                  Velocity(au)
C        -0.04080181     0.02798210    -0.05000519    -0.00000305     0.00005235    -0.00088153
N        -0.05006502    -0.07022290     1.36407504    -0.00008656    -0.00009804     0.00074536
H         0.95605113     0.02143792    -0.57291474    -0.00064971     0.00057892    -0.00015347
H         0.88842321    -0.11715013     1.83767849     0.00039952    -0.00021996     0.00050557
H        -0.90838056     0.03056489     1.88240723     0.00074023     0.00070835    -0.00019783
H        -0.96710777     0.03777318    -0.61492800     0.00074917    -0.00032866    -0.00000774
     6
  Step:    25            Position(A)                                  Velocity(au)
C        -0.04078944     0.02827864    -0.05500902     0.00000746     0.00005343    -0.00090313
N        -0.05050007    -0.07077657     1.36828865    -0.00006818    -0.00009982     0.00075771
H         0.95220329     0.02475072    -0.57358151    -0.00071718     0.00060379    -0.00008981
H         0.89018873    -0.11844676     1.84037168     0.00023245    -0.00024181     0.00045695
H        -0.90444042     0.03462214     1.88147291     0.00065670     0.00074215    -0.00012949
H        -0.96306717     0.03586005    -0.61494785     0.00068665    -0.00035369    -0.00000525
     6
  Step:    26            Position(A)                                  Velocity(au)
C        -0.04071831     0.02858006    -0.06011312     0.00001785     0.00005407    -0.00091696
N        -0.05082813    -0.07134006     1.37255538    -0.00004856    -0.00010149     0.00076404
H         0.94802432     0.02819557    -0.57391988    -0.00076696     0.00062597    -0.00003642
H         0.89102479    -0.11985647     1.84279272     0.00006916    -0.00026056     0.00040897
H        -0.90103067     0.03887117     1.88095796     0.00055219     0.00077652    -0.00004910
H        -0.95942268     0.03381469    -0.61498681     0.00060780    -0.00037595    -0.00001422
     6
  Step:    27            Position(A)                                  Velocity(au)
C        -0.04058964     0.02888399    -0.06527520     0.00002788     0.00005429    -0.00092314
N        -0.05104376    -0.07191279     1.37684272    -0.00002828    -0.00010300     0.00076452
H         0.94361654     0.03175900    -0.57398929    -0.00079767     0.00064573     0.00000602
H         0.89096306    -0.12136394     1.84495042    -0.00008651    -0.00027675     0.00036333
H        -0.89825815     0.04331598     1.88092314     0.00043090     0.00081127     0.00004057
H        -0.95626231     0.03165095    -0.61510704     0.00051403    -0.00039581    -0.00003374
     6
  Step:    28            Position(A)                                  Velocity(au)
C        -0.04040601     0.02918818    -0.07045389     0.00003730     0.00005410    -0.00092192
N        -0.05114488    -0.07249386     1.38111931    -0.00000796    -0.00010431     0.00075943
H         0.93908908     0.03542885    -0.57385240    -0.00080828     0.00066327     0.00003703
H         0.89005568    -0.12295660     1.84686260    -0.00023094    -0.00029084     0.00032160
H        -0.89620381     0.04795880     1.88141245     0.00029796     0.00084596     0.00013626
H        -0.95366465     0.02938096    -0.61536474     0.00040744    -0.00041352    -0.00006254
     6
  Step:    29            Position(A)                                  Velocity(au)
C        -0.04017153     0.02949043    -0.07560937     0.00004583     0.00005353    -0.00091370
N        -0.05113299    -0.07308206     1.38535548     0.00001173    -0.00010536     0.00074918
H         0.93455620     0.03919393    -0.57357417    -0.00079823     0.00067882     0.00005633
H         0.88837432    -0.12462405     1.84855537    -0.00036078    -0.00030320     0.00028520
H        -0.89491823     0.05279874     1.88245049     0.00015914     0.00087999     0.00023431
H        -0.95169516     0.02701556    -0.61580804     0.00029075    -0.00042935    -0.00009899
     6
  Step:    30            Position(A)                                  Velocity(au)
C        -0.03989182     0.02978870    -0.08070429     0.00005322     0.00005260    -0.00089910
N        -0.05101331    -0.07367585     1.38952402     0.00003014    -0.00010610     0.00073434
H         0.93013408     0.04304428    -0.57322041    -0.00076762     0.00069266     0.00006397
H         0.88600825    -0.12635805     1.85006214    -0.00047312    -0.00031423     0.00025537
H        -0.89441850     0.05783106     1.88404106     0.00002055     0.00091270     0.00033101
H        -0.95040283     0.02456431    -0.61647530     0.00016723    -0.00044352    -0.00014123
     6
  Step:    31            Position(A)                                  Velocity(au)
C        -0.03957394     0.03008106    -0.08570476     0.00005923     0.00005136    -0.00087892
N        -0.05079461    -0.07427340     1.39360086     0.00004666    -0.00010650     0.00071560
H         0.92593716     0.04697137    -0.57285595    -0.00071723     0.00070513     0.00006031
H         0.88306201    -0.12815232     1.85142272    -0.00056561    -0.00032427     0.00023314
H        -0.89468751     0.06304681     1.88616719    -0.00011187     0.00094342     0.00042283
H        -0.94981749     0.02203559    -0.61739377     0.00004043    -0.00045630    -0.00018720
     6
  Step:    32            Position(A)                                  Velocity(au)
C        -0.03922615     0.03036583    -0.09058140     0.00006369     0.00004983    -0.00085409
N        -0.05048891    -0.07487267     1.39756576     0.00006080    -0.00010653     0.00069372
H         0.92207399     0.05096840    -0.57254271    -0.00064850     0.00071665     0.00004604
H         0.87965200    -0.13000215     1.85268209    -0.00063658    -0.00033371     0.00021931
H        -0.89567570     0.06843300     1.88879275    -0.00023274     0.00097156     0.00050666
H        -0.94994850     0.01943653    -0.61857906    -0.00008598    -0.00046794    -0.00023486
     6
  Step:    33            Position(A)                                  Velocity(au)
C        -0.03885765     0.03064151    -0.09531001     0.00006647     0.00004807    -0.00082561
N        -0.05011087    -0.07547147     1.40140261     0.00007214    -0.00010618     0.00066950
H         0.91864394     0.05503098    -0.57233815    -0.00056345     0.00072769     0.00002216
H         0.87590286    -0.13190533     1.85388919    -0.00068506    -0.00034297     0.00021444
H        -0.89730497     0.07397321     1.89186520    -0.00033757     0.00099667     0.00058000
H        -0.95078443     0.01677299    -0.62003508    -0.00020846    -0.00047872    -0.00028222
     6
  Step:    34            Position(A)                                  Velocity(au)
C        -0.03847816     0.03090682    -0.09987190     0.00006752     0.00004612    -0.00079448
N        -0.04967712    -0.07606753     1.40509959     0.00008043    -0.00010545     0.00064368
H         0.91573347     0.05915710    -0.57229339    -0.00046463     0.00073872    -0.00001009
H         0.87194308    -0.13386161     1.85509519    -0.00071081    -0.00035241     0.00021877
H        -0.89947440     0.07964847     1.89531944    -0.00042301     0.00101842     0.00064107
H        -0.95229431     0.01404951    -0.62175485    -0.00032383    -0.00048888    -0.00032749
     6
  Step:    35            Position(A)                                  Velocity(au)
C        -0.03809752     0.03116071    -0.10425394     0.00006687     0.00004401    -0.00076167
N        -0.04920542    -0.07665861     1.40864891     0.00008554    -0.00010436     0.00061696
H         0.91341336     0.06334712    -0.57245174    -0.00035496     0.00075015    -0.00004923
H         0.86790087    -0.13587263     1.85635195    -0.00071429    -0.00036236     0.00023225
H        -0.90206699     0.08543817     1.89908206    -0.00048687     0.00103666     0.00068882
H        -0.95442993     0.01126935    -0.62372186    -0.00042937    -0.00049867    -0.00036918
     6
  Step:    36            Position(A)                                  Velocity(au)
C        -0.03772525     0.03140234    -0.10844814     0.00006459     0.00004177    -0.00072800
N        -0.04871394    -0.07724257     1.41204639     0.00008748    -0.00010291     0.00058988
H         0.91173668     0.06760360    -0.57284768    -0.00023764     0.00076234    -0.00009365
H         0.86390026    -0.13794168     1.85771028    -0.00069659    -0.00037308     0.00025457
H        -0.90495645     0.09132103     1.90307541    -0.00052813     0.00105133     0.00072287
H        -0.95712887     0.00843462    -0.62591170    -0.00052291    -0.00050826    -0.00040606
     6
  Step:    37            Position(A)                                  Velocity(au)
C        -0.03737021     0.03163107    -0.11245106     0.00006085     0.00003944    -0.00069419
N        -0.04822047    -0.07781738     1.41529082     0.00008635    -0.00010114     0.00056291
H         0.91073759     0.07193085    -0.57350618    -0.00011597     0.00077555    -0.00014167
H         0.86005741    -0.14007347     1.85921834    -0.00065937    -0.00038480     0.00028512
H        -0.90801365     0.09727596     1.90722136    -0.00054679     0.00106254     0.00074339
H        -0.96031782     0.00554646    -0.62829400    -0.00060289    -0.00051781    -0.00043725
     6
  Step:    38            Position(A)                                  Velocity(au)
C        -0.03704025     0.03184639    -0.11626307     0.00005582     0.00003704    -0.00066080
N        -0.04774183    -0.07838119     1.41838343     0.00008238    -0.00009907     0.00053639
H         0.91043108     0.07633447    -0.57444256     0.00000672     0.00078995    -0.00019162
H         0.85647733    -0.14227368     1.86092003    -0.00060480    -0.00039766     0.00032302
H        -0.91111205     0.10328272     1.91144431    -0.00054367     0.00107044     0.00075104
H        -0.96391598     0.00260527    -0.63083416    -0.00066825    -0.00052743    -0.00046217
     6
  Step:    39            Position(A)                                  Velocity(au)
C        -0.03674201     0.03204797    -0.11988759     0.00004974     0.00003460    -0.00062828
N        -0.04729334    -0.07893232     1.42132726     0.00007587    -0.00009674     0.00051057
H         0.91081320     0.08082076    -0.57566260     0.00012720     0.00080559    -0.00024184
H         0.85325113    -0.14454861     1.86285353    -0.00053551    -0.00041170     0.00036715
H        -0.91413199     0.10932250     1.91567341    -0.00052022     0.00107529     0.00074675
H        -0.96783819    -0.00038910    -0.63349513    -0.00071846    -0.00053717    -0.00048047
     6
  Step:    40            Position(A)                                  Velocity(au)
C        -0.03648073     0.03223557    -0.12333032     0.00004285     0.00003212    -0.00059694
N        -0.04688843    -0.07946933     1.42412659     0.00006716    -0.00009417     0.00048560
H         0.91186189     0.08539621    -0.57716293     0.00024240     0.00082244    -0.00029079
H         0.85045364    -0.14690472     1.86504998    -0.00045448    -0.00042692     0.00041618
H        -0.91696381     0.11537828     1.91984419    -0.00047838     0.00107741     0.00073171
H        -0.97199768    -0.00343713    -0.63623879    -0.00075342    -0.00054707    -0.00049208
     6
  Step:    41            Position(A)                                  Velocity(au)
C        -0.03626024     0.03240909    -0.12659857     0.00003541     0.00002964    -0.00056699
N        -0.04653833    -0.07999102     1.42678658     0.00005665    -0.00009141     0.00046160
H         0.91353840     0.09006693    -0.57893178     0.00034953     0.00084038    -0.00033706
H         0.84814165    -0.14934822     1.86753243    -0.00036500    -0.00044324     0.00046861
H        -0.91951017     0.12143514     1.92389958    -0.00042042     0.00107714     0.00070725
H        -0.97630837    -0.00653946    -0.63902724    -0.00077337    -0.00055713    -0.00049709
     6
  Step:    42            Position(A)                                  Velocity(au)
C        -0.03608286     0.03256855    -0.12970073     0.00002767     0.00002716    -0.00053858
N        -0.04625189    -0.08049641     1.42931291     0.00004478    -0.00008851     0.00043863
H         0.91578906     0.09483830    -0.58094990     0.00044613     0.00085924    -0.00037939
H         0.84635269    -0.15188470     1.87031501    -0.00027051    -0.00046050     0.00052279
H        -0.92168739     0.12748052     1.92779050    -0.00034877     0.00107490     0.00067477
H        -0.98068692    -0.00969676    -0.64182382    -0.00077892    -0.00056734    -0.00049578
     6
  Step:    43            Position(A)                                  Velocity(au)
C        -0.03594952     0.03271405    -0.13264583     0.00001987     0.00002471    -0.00051176
N        -0.04603549    -0.08098480     1.43171159     0.00003198    -0.00008550     0.00041671
H         0.91854759     0.09971463    -0.58319169     0.00053013     0.00087878    -0.00041677
H         0.84510435    -0.15451881     1.87340242    -0.00017453    -0.00047851     0.00057703
H        -0.92342619     0.13350436     1.93147607    -0.00026598     0.00107111     0.00063570
H        -0.98505424    -0.01290967    -0.64459394    -0.00077088    -0.00057768    -0.00048855
     6
  Step:    44            Position(A)                                  Velocity(au)
C        -0.03585985     0.03284579    -0.13544308     0.00001223     0.00002230    -0.00048654
N        -0.04589302    -0.08145578     1.43398873     0.00001869    -0.00008244     0.00039585
H         0.92173758     0.10469895    -0.58562641     0.00059995     0.00089877    -0.00044838
H         0.84439437    -0.15725397     1.87678975    -0.00008052    -0.00049703     0.00062963
H        -0.92467189     0.13949922     1.93492356    -0.00017460     0.00106623     0.00059145
H        -0.98933680    -0.01617874    -0.64730568    -0.00075028    -0.00058812    -0.00047589
     6