    14
  Step:     0            Position(A)                                  Velocity(au)
C        -6.00830827    -0.86064797    -0.14691719     0.00029243     0.00007241     0.00018531
C        -4.69334457    -0.68488724     0.16076249    -0.00000121     0.00009695    -0.00019497
H        -6.54442470     0.06174380    -0.30820646    -0.00037758    -0.00091029     0.00000974
H        -6.63172223    -1.77413572    -0.01186856     0.00022017     0.00129395     0.00047817
H        -4.12627775    -1.59407252     0.30179293     0.00008555     0.00021382     0.00018348
C        -3.96667162     0.51218039    -0.00020854     0.00023914    -0.00007016    -0.00004219
C        -2.58299206     0.49813324     0.18365729    -0.00013941    -0.00003419    -0.00006465
H        -4.40092458     1.44912187    -0.32387194    -0.00140378    -0.00118576    -0.00028523
H        -2.04288680    -0.41172421     0.37856331    -0.00020363     0.00007994     0.00078010
C        -1.77781855     1.73296419    -0.08662808    -0.00002099     0.00014322    -0.00020175
H        -2.35803674     2.58698675    -0.45927824     0.00074194     0.00072442     0.00113166
N        -0.52361754     1.76601594     0.25866210    -0.00008848    -0.00009642     0.00009456
H         0.09155149     2.55613083    -0.03699703    -0.00072856    -0.00113140     0.00086542
H         0.06798734     0.95328287     0.56047748    -0.00151291    -0.00022593    -0.00068509
    14
  Step:     1            Position(A)                                  Velocity(au)
C        -6.00535412    -0.85980823    -0.14482763     0.00024739     0.00008200     0.00019613
C        -4.69325009    -0.68396893     0.15855540     0.00002048     0.00006982    -0.00020767
H        -6.54937264     0.05193856    -0.30860503    -0.00052906    -0.00086166    -0.00008585
H        -6.62826951    -1.75946937    -0.00700501     0.00039566     0.00135173     0.00041641
H        -4.12473207    -1.59196460     0.30454440     0.00019430     0.00017070     0.00031823
C        -3.96419996     0.51140983    -0.00066870     0.00021230    -0.00007061    -0.00004205
C        -2.58415043     0.49808043     0.18285932    -0.00007323     0.00002427    -0.00008124
H        -4.41691049     1.43627970    -0.32695587    -0.00150990    -0.00114976    -0.00027942
H        -2.04499111    -0.41134059     0.38750653    -0.00018214    -0.00000564     0.00085350
C        -1.77865106     1.73418696    -0.08884035    -0.00012986     0.00008074    -0.00020255
H        -2.34898628     2.59502451    -0.44673942     0.00089906     0.00075215     0.00115291
N        -0.52404148     1.76504367     0.25975660     0.00000561    -0.00008340     0.00010635
H         0.08254126     2.54287596    -0.02710038    -0.00087339    -0.00123565     0.00092346
H         0.04982253     0.95179386     0.55251067    -0.00177400    -0.00008174    -0.00075684
    14
  Step:     2            Position(A)                                  Velocity(au)
C        -6.00289607    -0.85885407    -0.14262652     0.00020230     0.00009409     0.00020557
C        -4.69289661    -0.68335984     0.15621925     0.00004603     0.00004049    -0.00021852
H        -6.55599900     0.04289337    -0.31008450    -0.00068115    -0.00077591    -0.00018680
H        -6.62306637    -1.74456396    -0.00275889     0.00053483     0.00133168     0.00036679
H        -4.12202713    -1.59033806     0.30875487     0.00029496     0.00012838     0.00044897
C        -3.96202726     0.51063573    -0.00112842     0.00018424    -0.00007070    -0.00004224
C        -2.58459408     0.49866428     0.18188004    -0.00000879     0.00008168    -0.00009764
H        -4.43395652     1.42396870    -0.32998479    -0.00159573    -0.00109219    -0.00027421
H        -2.04687149    -0.41184770     0.39723528    -0.00016461    -0.00007809     0.00092233
C        -1.78065949     1.73473043    -0.09105925    -0.00023379     0.00001931    -0.00020246
H        -2.33836815     2.60344149    -0.43405623     0.00102622     0.00079443     0.00115787
N        -0.52349484     1.76419134     0.26098867     0.00008598    -0.00007461     0.00011925
H         0.07244444     2.52909861    -0.01679451    -0.00091650    -0.00121453     0.00093639
H         0.02917762     0.95149455     0.54392024    -0.00195663    -0.00002154    -0.00079487
    14
  Step:     3            Position(A)                                  Velocity(au)
C        -6.00092838    -0.85774979    -0.14033050     0.00015818     0.00011013     0.00021335
C        -4.69224317    -0.68308317     0.15377487     0.00007509     0.00000912    -0.00022743
H        -6.56427412     0.03496394    -0.31269173    -0.00082650    -0.00066365    -0.00029065
H        -6.61656907    -1.73033632     0.00101924     0.00062837     0.00122430     0.00033201
H        -4.11827924    -1.58915595     0.31436646     0.00038280     0.00009160     0.00057320
C        -3.96016942     0.50986322    -0.00159273     0.00015454    -0.00007015    -0.00004302
C        -2.58434265     0.49986736     0.18072331     0.00005375     0.00013703    -0.00011353
H        -4.45182016     1.41238591    -0.33295468    -0.00165742    -0.00102044    -0.00026753
H        -2.04859231    -0.41304900     0.40768425    -0.00015438    -0.00012861     0.00098383
C        -1.78376572     1.73460938    -0.09326947    -0.00032872    -0.00004039    -0.00020055
H        -2.32653581     2.61240424    -0.42140876     0.00111978     0.00085139     0.00114668
N        -0.52216045     1.76341154     0.26236542     0.00014750    -0.00006999     0.00013232
H         0.06249097     2.51630580    -0.00661509    -0.00084205    -0.00105022     0.00089911
H         0.00701757     0.95132273     0.53512144    -0.00204476    -0.00006811    -0.00079243
    14
  Step:     4            Position(A)                                  Velocity(au)
C        -5.99943549    -0.85644473    -0.13795899     0.00011573     0.00013124     0.00021928
C        -4.69125388    -0.68316037     0.15124369     0.00010712    -0.00002409    -0.00023438
H        -6.57408025     0.02837474    -0.31644295    -0.00095679    -0.00053750    -0.00039436
H        -6.60931956    -1.71777996     0.00450453     0.00067086     0.00102627     0.00031382
H        -4.11365257    -1.58833417     0.32129481     0.00045397     0.00006405     0.00068863
C        -3.95864650     0.50910100    -0.00206957     0.00012281    -0.00006866    -0.00004466
C        -2.58341828     0.50166197     0.17939628     0.00011414     0.00018948    -0.00012864
H        -4.47021581     1.40164455    -0.33583762    -0.00169122    -0.00094195    -0.00025726
H        -2.05024889    -0.41466123     0.41875838    -0.00015357    -0.00015049     0.00103546
C        -1.78785081     1.73384672    -0.09544657    -0.00041139    -0.00009756    -0.00019610
H        -2.31387086     2.62206724    -0.40897048     0.00117836     0.00092045     0.00112042
N        -0.52026803     1.76266019     0.26388344     0.00018722    -0.00006891     0.00014459
H         0.05402292     2.50612295     0.00287523    -0.00064878    -0.00074324     0.00081314
H        -0.01555531     0.95000456     0.52658441    -0.00203139    -0.00023379    -0.00074726
    14
  Step:     5            Position(A)                                  Velocity(au)
C        -5.99839655    -0.85487859    -0.13553334     0.00007515     0.00015787     0.00022323
C        -4.68989965    -0.68361023     0.14864726     0.00014146    -0.00005882    -0.00023938
H        -6.58520567     0.02320500    -0.32131914    -0.00106371    -0.00041053    -0.00049464
H        -6.60189271    -1.70788464     0.00788471     0.00066283     0.00074310     0.00031244
H        -4.10834780    -1.58775483     0.32943154     0.00050571     0.00004811     0.00079321
C        -3.95748264     0.50836117    -0.00256971     0.00008865    -0.00006598    -0.00004740
C        -2.58184562     0.50401268     0.17790900     0.00017223     0.00023851    -0.00014273
H        -4.48881875     1.39177897    -0.33858272    -0.00169399    -0.00086326    -0.00024150
H        -2.05195189    -0.41634119     0.43033702    -0.00016282    -0.00013962     0.00107520
C        -1.79276569     1.73247499    -0.09755960    -0.00047962    -0.00015127    -0.00018866
H        -2.30075703     2.63254081    -0.39689734     0.00120292     0.00099598     0.00108114
N        -0.51806455     1.76190392     0.26552854     0.00020523    -0.00007012     0.00015507
H         0.04829778     2.50004596     0.01117399    -0.00035526    -0.00031933     0.00068859
H        -0.03742307     0.94620820     0.51877366    -0.00192202    -0.00051351    -0.00066336
    14
  Step:     6            Position(A)                                  Velocity(au)
C        -5.99779153    -0.85299105    -0.13307531     0.00003607     0.00018947     0.00022527
C        -4.68815922    -0.68444715     0.14600676     0.00017737    -0.00009456    -0.00024249
H        -6.59735089     0.01939369    -0.32726416    -0.00114004    -0.00029452    -0.00058817
H        -6.59481883    -1.70152333     0.01133979     0.00061219     0.00039100     0.00032610
H        -4.10258908    -1.58728175     0.33864790     0.00053654     0.00004473     0.00088531
C        -3.95670706     0.50765752    -0.00310651     0.00005149    -0.00006210    -0.00005146
C        -2.57965038     0.50687978     0.17627389     0.00022807     0.00028388    -0.00015559
H        -4.50727518     1.38275913    -0.34112081    -0.00166380    -0.00078931    -0.00021889
H        -2.05381094    -0.41771559     0.44228041    -0.00018133    -0.00009462     0.00110167
C        -1.79834353     1.73053743    -0.09957386    -0.00053234    -0.00020053    -0.00017798
H        -2.28755469     2.64385616    -0.38531838     0.00119653     0.00106937     0.00103154
N        -0.51577827     1.76112622     0.26727593     0.00020471    -0.00007199     0.00016287
H         0.04625088     2.49913700     0.01793953    -0.00000033     0.00016964     0.00054384
H        -0.05760319     0.93877065     0.51207204    -0.00173561    -0.00087999    -0.00055156
    14
  Step:     7            Position(A)                                  Velocity(au)
C        -5.99760743    -0.85073354    -0.13060503    -0.00000236     0.00022445     0.00022564
C        -4.68601932    -0.68567881     0.14334233     0.00021417    -0.00013056    -0.00024384
H        -6.61014631     0.01676170    -0.33418644    -0.00118058    -0.00019876    -0.00067194
H        -6.58849978    -1.69933084     0.01501880     0.00053398    -0.00000333     0.00035098
H        -4.09661003    -1.58677626     0.34879931     0.00054618     0.00005349     0.00096369
C        -3.95635615     0.50700267    -0.00369547     0.00001054    -0.00005729    -0.00005702
C        -2.57685623     0.51022310     0.17450508     0.00028203     0.00032575    -0.00016712
H        -4.52521751     1.37451137    -0.34337136    -0.00160021    -0.00072303    -0.00018875
H        -2.05591893    -0.41841110     0.45443811    -0.00020698    -0.00001674     0.00111433
C        -1.80441175     1.72808806    -0.10145316    -0.00056951    -0.00024442    -0.00016398
H        -2.27458066     2.65593531    -0.37433048     0.00116367     0.00112983     0.00097452
N        -0.51358601     1.76032892     0.26909169     0.00019129    -0.00007312     0.00016730
H         0.04829059     2.50375712     0.02307155     0.00036386     0.00065420     0.00040207
H        -0.07539293     0.92695672     0.50670723    -0.00150175    -0.00128466    -0.00042808
    14
  Step:     8            Position(A)                                  Velocity(au)
C        -5.99784324    -0.84808086    -0.12813898    -0.00004135     0.00026030     0.00022474
C        -4.68347388    -0.68730332     0.14067237     0.00025128    -0.00016578    -0.00024361
H        -6.62317832     0.01504553    -0.34196406    -0.00118265    -0.00012918    -0.00074351
H        -6.58313707    -1.70159624     0.01901816     0.00044806    -0.00040560     0.00038166
H        -4.09064039    -1.58611153     0.35973054     0.00053554     0.00007277     0.00102766
C        -3.95647659     0.50640418    -0.00435384    -0.00003533    -0.00005223    -0.00006420
C        -2.57348049     0.51400612     0.17261788     0.00033492     0.00036461    -0.00017721
H        -4.54228287     1.36694136    -0.34524999    -0.00150457    -0.00066531    -0.00015104
H        -2.05833898    -0.41808171     0.46665841    -0.00023660     0.00009050     0.00111350
C        -1.81080267     1.72519032    -0.10316134    -0.00059196    -0.00028221    -0.00014673
H        -2.26209721     2.66857343    -0.36399888     0.00110936     0.00116579     0.00091270
N        -0.51159347     1.75952659     0.27093590     0.00017149    -0.00007282     0.00016801
H         0.05421100     2.51344890     0.02673548     0.00068425     0.00106362     0.00028552
H        -0.09045681     0.91066615     0.50270688    -0.00125398    -0.00166613    -0.00031112
    14
  Step:     9            Position(A)                                  Velocity(au)
C        -5.99851205    -0.84503905    -0.12568849    -0.00008211     0.00029407     0.00022305
C        -4.68052207    -0.68930566     0.13801282     0.00028836    -0.00019889    -0.00024208
H        -6.63601903     0.01393560    -0.35045221    -0.00114624    -0.00008840    -0.00080120
H        -6.57869768    -1.70820410     0.02336824     0.00037510    -0.00077928     0.00041206
H        -4.08489401    -1.58518424     0.37128134     0.00050654     0.00010003     0.00107700
C        -3.95712906     0.50585993    -0.00510005    -0.00008743    -0.00004801    -0.00007309
C        -2.56952930     0.51819969     0.17062818     0.00038782     0.00040122    -0.00018585
H        -4.55813287     1.35995645    -0.34667564    -0.00137997    -0.00061512    -0.00010634
H        -2.06109498    -0.41643122     0.47879795    -0.00026634     0.00022174     0.00110035
C        -1.81736207     1.72191415    -0.10466311    -0.00060116    -0.00031344    -0.00012632
H        -2.25031120     2.68143923    -0.35436347     0.00103831     0.00116659     0.00084794
N        -0.50983427     1.75873574     0.27276726     0.00015122    -0.00007142     0.00016508
H         0.06325996     2.52702589     0.02931794     0.00091956     0.00134298     0.00021018
H        -0.10282607     0.89050693     0.49990097    -0.00102196    -0.00196406    -0.00021645
    14
  Step:    10            Position(A)                                  Velocity(au)
C        -5.99963956    -0.84164745    -0.12325936    -0.00012556     0.00032291     0.00022106
C        -4.67716541    -0.69165439     0.13537642     0.00032526    -0.00022833    -0.00023954
H        -6.64825442     0.01311171    -0.35949180    -0.00107373    -0.00007597    -0.00084416
H        -6.57493098    -1.71864442     0.02803282     0.00033214    -0.00109179     0.00043671
H        -4.07955889    -1.58392327     0.38329196     0.00046191     0.00013202     0.00111195
C        -3.95838928     0.50535381    -0.00595286    -0.00014675    -0.00004595    -0.00008362
C        -2.56499610     0.52278368     0.16855203     0.00044148     0.00043624    -0.00019303
H        -4.57247241     1.35348434    -0.34757646    -0.00123112    -0.00057003    -0.00005572
H        -2.06416574    -0.41323063     0.49073076    -0.00029196     0.00037030     0.00107684
C        -1.82395429     1.71833329    -0.10592486    -0.00059885    -0.00033770    -0.00010303
H        -2.23938216     2.69409474    -0.34544860     0.00095426     0.00112409     0.00078123
N        -0.50828527     1.75796406     0.27454742     0.00013464    -0.00006999     0.00015894
H         0.07432814     2.54282914     0.03133365     0.00104752     0.00146343     0.00018307
H        -0.11281412     0.86769867     0.49797155    -0.00082561    -0.00213281    -0.00015414
    14
  Step:    11            Position(A)                                  Velocity(au)
C        -6.00125895    -0.83797476    -0.12085243    -0.00017198     0.00034449     0.00021917
C        -4.67340637    -0.69430088     0.13277239     0.00036172    -0.00025277    -0.00023631
H        -6.65950891     0.01227356    -0.36891986    -0.00096954    -0.00008900    -0.00087250
H        -6.57143140    -1.73208908     0.03292213     0.00032946    -0.00131937     0.00045163
H        -4.07478892    -1.58229606     0.39560733     0.00040506     0.00016506     0.00113311
C        -3.96033958     0.50485462    -0.00692942    -0.00021288    -0.00004719    -0.00009551
C        -2.55987108     0.52774318     0.16640538     0.00049505     0.00046960    -0.00019875
H        -4.58506589     1.34748596    -0.34789468    -0.00106397    -0.00052669    -0.00000077
H        -2.06748221    -0.40833029     0.50235588    -0.00030908     0.00052852     0.00104543
C        -1.83046302     1.71452627    -0.10691702    -0.00058647    -0.00035422    -0.00007740
H        -2.22943504     2.70603084    -0.33727262     0.00085968     0.00103378     0.00071285
N        -0.50688874     1.75720454     0.27624438     0.00012389    -0.00006987     0.00015023
H         0.08617652     2.55904112     0.03332303     0.00106510     0.00142277     0.00020285
H        -0.12088796     0.84384766     0.49652876    -0.00067326    -0.00214937    -0.00012736
    14
  Step:    12            Position(A)                                  Velocity(au)
C        -6.00340196    -0.83411107    -0.11846450    -0.00022070     0.00035731     0.00021773
C        -4.66925206    -0.69718429     0.13020660     0.00039691    -0.00027153    -0.00023267
H        -6.66946495     0.01116476    -0.37857930    -0.00083965    -0.00012267    -0.00088710
H        -6.56772339    -1.74750813     0.03791316     0.00036960    -0.00144939     0.00045472
H        -4.07069743    -1.58031228     0.40808092     0.00033987     0.00019525     0.00114141
C        -3.96304635     0.50432133    -0.00804222    -0.00028311    -0.00005218    -0.00010820
C        -2.55416585     0.53305702     0.16420393     0.00054530     0.00050008    -0.00020304
H        -4.59574889     1.34196204    -0.34759334    -0.00088541    -0.00048140     0.00005623
H        -2.07092752    -0.40166834     0.51360149    -0.00031347     0.00068823     0.00100879
C        -1.83678434     1.71058404    -0.10761806    -0.00056458    -0.00036141    -0.00005032
H        -2.22057505     2.71671063    -0.32985362     0.00075583     0.00089525     0.00064268
N        -0.50557493     1.75643554     0.27783400     0.00011921    -0.00007220     0.00013966
H         0.09762925     2.57395493     0.03577134     0.00098371     0.00123898     0.00026231
H        -0.12754301     0.82067713     0.49518532    -0.00056339    -0.00201355    -0.00013347
    14
  Step:    13            Position(A)                                  Velocity(au)
C        -6.00608709    -0.83015799    -0.11608906    -0.00027005     0.00036071     0.00021702
C        -4.66472328    -0.70024115     0.12768229     0.00042922    -0.00028472    -0.00022883
H        -6.67787795     0.00958999    -0.38832681    -0.00069120    -0.00017089    -0.00088952
H        -6.56334568    -1.76379728     0.04287007     0.00044837    -0.00148001     0.00044557
H        -4.06735359    -1.57802466     0.42057795     0.00027040     0.00021880     0.00113806
C        -3.96653323     0.50371309    -0.00929644    -0.00035306    -0.00006056    -0.00012102
C        -2.54794152     0.53868338     0.16196348     0.00058729     0.00052548    -0.00020585
H        -4.60443590     1.33695451    -0.34666458    -0.00070280    -0.00043042     0.00011238
H        -2.07433991    -0.39327400     0.52442509    -0.00030133     0.00084120     0.00096957
C        -1.84281423     1.70661983    -0.10801787    -0.00053279    -0.00035713    -0.00002284
H        -2.21289990     2.72561620    -0.32321268     0.00064302     0.00071225     0.00057029
N        -0.50428083     1.75562498     0.27929967     0.00011944    -0.00007768     0.00012783
H         0.10769714     2.58614627     0.03906148     0.00082299     0.00094141     0.00035133
H        -0.13321326     0.79979734     0.49360884    -0.00048820    -0.00174276    -0.00016623
    14
  Step:    14            Position(A)                                  Velocity(au)
C        -6.00930984    -0.82621981    -0.11371672    -0.00031776     0.00035475     0.00021727
C        -4.65986209    -0.70341305     0.12520056     0.00045668    -0.00029288    -0.00022497
H        -6.68458618     0.00742619    -0.39803933    -0.00053196    -0.00022680    -0.00088188
H        -6.55791441    -1.77988623     0.04766077     0.00055702    -0.00141786     0.00042503
H        -4.06478187    -1.57552563     0.43297814     0.00020062     0.00023241     0.00112443
C        -3.97077012     0.50299647    -0.01068972    -0.00041814    -0.00007162    -0.00013336
C        -2.54131782     0.54455297     0.15970049     0.00061616     0.00054342    -0.00020711
H        -4.61112388     1.33254584    -0.34513473    -0.00052363    -0.00037015     0.00016460
H        -2.07751978    -0.38326557     0.53481270    -0.00026969     0.00097960     0.00093037
C        -1.84844010     1.70277112    -0.10811778    -0.00049032    -0.00033948     0.00000410
H        -2.20650784     2.73229241    -0.31737740     0.00052108     0.00049217     0.00049491
N        -0.50296187     1.75473622     0.28063063     0.00012273    -0.00008648     0.00011522
H         0.11563384     2.59455000     0.04345727     0.00060580     0.00056367     0.00045914
H        -0.13822336     0.78255086     0.49154870    -0.00043700    -0.00136513    -0.00021779
    14
  Step:    15            Position(A)                                  Velocity(au)
C        -6.01303874    -0.82239709    -0.11133580    -0.00036143     0.00033994     0.00021866
C        -4.65473243    -0.70664841     0.12276063     0.00047750    -0.00029658    -0.00022126
H        -6.68951565     0.00462820    -0.40761954    -0.00036998    -0.00028325    -0.00086671
H        -6.55115972    -1.79481572     0.05216841     0.00068452    -0.00127517     0.00039482
H        -4.06296465    -1.57294022     0.44517704     0.00013413     0.00023353     0.00110198
C        -3.97568076     0.50214633    -0.01221387    -0.00047478    -0.00008468    -0.00014477
C        -2.53446182     0.55057170     0.15743259     0.00062842     0.00055192    -0.00020669
H        -4.61589135     1.32885668    -0.34306364    -0.00035507    -0.00029739     0.00021002
H        -2.08023989    -0.37184327     0.54477881    -0.00021658     0.00109649     0.00089375
C        -1.85354085     1.69919295    -0.10792821    -0.00043660    -0.00030732     0.00002979
H        -2.20150030     2.73638339    -0.31238563     0.00038977     0.00024534     0.00041549
N        -0.50159595     1.75373308     0.28182023     0.00012702    -0.00009843     0.00010212
H         0.12095017     2.59847754     0.04910604     0.00035543     0.00013980     0.00057560
H        -0.14277357     0.76993243     0.48884428    -0.00039860    -0.00091375    -0.00028001
    14
  Step:    16            Position(A)                                  Velocity(au)
C        -6.01721677    -0.81878299    -0.10893311    -0.00039890     0.00031704     0.00022129
C        -4.64941596    -0.70990123     0.12036014     0.00049029    -0.00029629    -0.00021780
H        -6.69268030     0.00122966    -0.41700029    -0.00021311    -0.00033317    -0.00084693
H        -6.54293917    -1.80778291     0.05629819     0.00081929    -0.00106727     0.00035712
H        -4.06184752    -1.57041667     0.45708603     0.00007395     0.00022055     0.00107206
C        -3.98115678     0.50114394    -0.01385689    -0.00052061    -0.00009922    -0.00015499
C        -2.52756986     0.55662725     0.15517868     0.00062214     0.00054963    -0.00020450
H        -4.61889176     1.32603982    -0.34054019    -0.00020339    -0.00020970     0.00024630
H        -2.08225791    -0.35927777     0.55436529    -0.00014128     0.00118615     0.00086206
C        -1.85799145     1.69604791    -0.10746607    -0.00037148    -0.00026038     0.00005375
H        -2.19798083     2.73765970    -0.30828775     0.00024904    -0.00001581     0.00033088
N        -0.50018314     1.75258292     0.28286474     0.00013032    -0.00011313     0.00008879
H         0.12340961     2.59760847     0.05604956     0.00009472    -0.00029699     0.00069154
H        -0.14694341     0.76256085     0.48542286    -0.00036238    -0.00042318    -0.00034516
    14
  Step:    17            Position(A)                                  Velocity(au)
C        -6.02176540    -0.81546114    -0.10649465    -0.00042844     0.00028701     0.00022520
C        -4.64400647    -0.71313026     0.11799579     0.00049419    -0.00029243    -0.00021467
H        -6.69417774    -0.00266058    -0.42614769    -0.00006856    -0.00037009    -0.00082563
H        -6.53323625    -1.81816419     0.05998109     0.00095019    -0.00081105     0.00031439
H        -4.06134695    -1.56811520     0.46863045     0.00002230     0.00019295     0.00103580
C        -3.98707002     0.49997568    -0.01560461    -0.00055426    -0.00011479    -0.00016388
C        -2.52085135     0.56259582     0.15295881     0.00059671     0.00053578    -0.00020044
H        -4.62034090     1.32426914    -0.33767529    -0.00007346    -0.00010589     0.00027185
H        -2.08333057    -0.34589401     0.56363800    -0.00004439     0.00124457     0.00083719
C        -1.86166771     1.69349662    -0.10675240    -0.00029524    -0.00019926     0.00007569
H        -2.19605207     2.73603748    -0.30514711     0.00009911    -0.00027739     0.00023990
N        -0.49874489     1.75125811     0.28376260     0.00013068    -0.00013011     0.00007539
H         0.12302245     2.59198022     0.06423483    -0.00015376    -0.00071411     0.00079866
H        -0.15070138     0.76067457     0.48129334    -0.00031859     0.00007172    -0.00040604
    14
  Step:    18            Position(A)                                  Velocity(au)
C        -6.02658969    -0.81250417    -0.10400640    -0.00044880     0.00025090     0.00023036
C        -4.63860462    -0.71629880     0.11566393     0.00048882    -0.00028545    -0.00021183
H        -6.69418024    -0.00686673    -0.43506245     0.00005744    -0.00038849    -0.00080584
H        -6.52215193    -1.82552617     0.06317617     0.00106703    -0.00052410     0.00026922
H        -4.06135967    -1.56619543     0.47974615    -0.00001950     0.00015141     0.00099395
C        -3.99328217     0.49863280    -0.01744201    -0.00057516    -0.00013090    -0.00017141
C        -2.51451559     0.56834842     0.15079371     0.00055269     0.00051023    -0.00019449
H        -4.62049890     1.32372337    -0.33459287     0.00003170     0.00001352     0.00028594
H        -2.08322892    -0.33205034     0.57268053     0.00007208     0.00126985     0.00082034
C        -1.86445047     1.69168863    -0.10581021    -0.00020856    -0.00012541     0.00009554
H        -2.19581254     2.73159134    -0.30303957    -0.00005947    -0.00052456     0.00014145
N        -0.49732426     1.74973654     0.28451397     0.00012609    -0.00014884     0.00006207
H         0.12004579     2.58198604     0.07352186    -0.00036723    -0.00107882     0.00088928
H        -0.15391310     0.76412986     0.47653992    -0.00025801     0.00053577    -0.00045601
    14
  Step:    19            Position(A)                                  Velocity(au)
C        -6.03158371    -0.80997222    -0.10145504    -0.00045919     0.00020997     0.00023666
C        -4.63331260    -0.71937506     0.11336151     0.00047421    -0.00027583    -0.00020923
H        -6.69292119    -0.01115944    -0.44377708     0.00016022    -0.00038439    -0.00079029
H        -6.50989284    -1.82962998     0.06587076     0.00116067    -0.00022438     0.00022426
H        -4.06177356    -1.56480280     0.49037490    -0.00005112     0.00009781     0.00094677
C        -3.99965273     0.49711190    -0.01935446    -0.00058342    -0.00014704    -0.00017766
C        -2.50876021     0.57375800     0.14870395     0.00049159     0.00047347    -0.00018670
H        -4.61964742     1.32456485    -0.33141977     0.00011129     0.00014593     0.00028888
H        -2.08175369    -0.31811362     0.58158442     0.00020473     0.00126243     0.00081171
C        -1.86623036     1.69075306    -0.10466228    -0.00011251    -0.00004111     0.00011342
H        -2.19735306     2.72456169    -0.30205263    -0.00022588    -0.00074217     0.00003452
N        -0.49598652     1.74800192     0.28512044     0.00011446    -0.00016875     0.00004893
H         0.11498856     2.56837889     0.08368961    -0.00052262    -0.00135837     0.00095633
H        -0.15634588     0.77239560     0.47131732    -0.00017176     0.00093326    -0.00048883
    14
  Step:    20            Position(A)                                  Velocity(au)
C        -6.03663538    -0.80791076    -0.09882892    -0.00045928     0.00016567     0.00024391
C        -4.62823043    -0.72233308     0.11108658     0.00045072    -0.00026413    -0.00020672
H        -6.69067522    -0.01527606    -0.45235165     0.00023711    -0.00035593    -0.00078102
H        -6.49676002    -1.83043496     0.06808238     0.00122293     0.00006973     0.00018233
H        -4.06247803    -1.56405555     0.50045857    -0.00007316     0.00003517     0.00089403
C        -4.00604554     0.49541604    -0.02132870    -0.00057965    -0.00016254    -0.00018281
C        -2.50376122     0.57870652     0.14670926     0.00041574     0.00042665    -0.00017719
H        -4.61806424     1.32691591    -0.32827315     0.00016677     0.00028655     0.00028203
H        -2.07874999    -0.30443224     0.59043833     0.00034890     0.00122525     0.00081046
C        -1.86691176     1.69078927    -0.10332890    -0.00000854     0.00005055     0.00012965
H        -2.20075411     2.71535503    -0.30228444    -0.00039905    -0.00091548    -0.00008178
N        -0.49482022     1.74604471     0.28558450     0.00009376    -0.00018913     0.00003603