|===============================================================================
|
|  DFTB+ release 20.1
|
|  Copyright (C) 2006 - 2020  DFTB+ developers group
|
|===============================================================================
|
|  When publishing results obtained with DFTB+, please cite the following
|  reference:
|
|  * DFTB+, a software package for efficient approximate density functional
|    theory based atomistic simulations, J. Chem. Phys. 152, 124101 (2020).
|    [doi: 10.1063/1.5143190]
|
|  You should also cite additional publications crediting the parametrization
|  data you use. Please consult the documentation of the SK-files for the
|  references.
|
|===============================================================================

Reading input file 'dftb_in.hsd'
Parser version: 8

--------------------------------------------------------------------------------
Reading SK-files:
Done.


Processed input in HSD format written to 'dftb_pin.hsd'

Starting initialization...
--------------------------------------------------------------------------------
OpenMP threads:              1
Chosen random seed:          502921724
Mode:                        Static calculation
Self consistent charges:     Yes
SCC-tolerance:                 0.100000E-05
Max. scc iterations:                   1000
Shell resolved Hubbard:      No
Spin polarisation:           No
Nr. of up electrons:            16.000000
Nr. of down electrons:          16.000000
Periodic boundaries:         No
Electronic solver:           Relatively robust
Maximal SCC-cycles:                    1000
Initial charges:             Set automatically (system chrg:   0.100E+01)
Included shells:             C:  s, p
                             H:  s
                             N:  s, p
Spin coupling constants:     C   1(s)-1(s):  -0.455900E-01
                             C   1(s)-2(p):  -0.293000E-01
                             C   2(p)-1(s):  -0.293000E-01
                             C   2(p)-2(p):  -0.275500E-01
                             H   1(s)-1(s):  -0.792500E-01
                             N   1(s)-1(s):  -0.468700E-01
                             N   1(s)-2(p):  -0.317000E-01
                             N   2(p)-1(s):  -0.317000E-01
                             N   2(p)-2(p):  -0.307200E-01
Range separated hybrid:      Yes
  Screening parameter omega:   0.300000E+00
  Range separated algorithm:   MatrixBased
Extra options:
                             Mulliken analysis
                             Force calculation
Force type                   original
                             Eigenvector printing


REKS Calcuation:             Yes
SSR(2,2) Calcuation:         Yes
Energy Functional:           (PPS+OSS)/2
Number of Core Orbitals:                 15
Number of Active Orbitals:                2
Number of Basis:                         32
Number of States:                         2
State-Averaging Weight:          0.500000
                                 0.500000
State of Interest:                        1
Initial Guess:               Diagonalize H0 matrix
Newton-Raphson for FON opt:  Yes
NR max. Iterations:                      50
Level Shifting:              Yes
Shift Value:                     0.300000
W Scale Factor:              C  =    3.200000
                             H  =    3.200000
                             N  =    3.200000
Transition Dipole:           No
Gradient of Microstate:      No
CP-REKS Solver:              Preconditioned Conjugate-Gradient
CG max. Iterations:                     100
CG Tolerance:                  0.100000E-07
Memory for A and Hxc:        Direct Updating Without Saving
Non-Adiabatic Coupling:      Yes

--------------------------------------------------------------------------------

***  Geometry step: 0

  iSCC       reks energy        Diff energy         x_a       SCC error   
    1      -16.4082039261       0.0000000000     0.999795    1.21662343
    2      -16.4192122290      -0.0110083029     0.999946    0.03663939
    3      -16.4217717137      -0.0025594848     0.999975    0.01654103
    4      -16.4227993752      -0.0010276615     0.999985    0.01026404
    5      -16.4233378059      -0.0005384307     0.999990    0.00722384
    6      -16.4236662984      -0.0003284925     0.999993    0.00542995
    7      -16.4238887794      -0.0002224810     0.999995    0.00427950
    8      -16.4240518548      -0.0001630754     0.999996    0.00348429
    9      -16.4241787351      -0.0001268803     0.999996    0.00287578
   10      -16.4242817474      -0.0001030122     0.999997    0.00241024
   11      -16.4243677854      -0.0000860380     0.999997    0.00205193
   12      -16.4244409226      -0.0000731373     0.999998    0.00187155
   13      -16.4245037289      -0.0000628063     0.999998    0.00182220
   14      -16.4245579503      -0.0000542214     0.999998    0.00175448
   15      -16.4246048661      -0.0000469157     0.999998    0.00167498
   16      -16.4246454770      -0.0000406109     0.999998    0.00158847
   17      -16.4246806064      -0.0000351295     0.999998    0.00149844
   18      -16.4247109553      -0.0000303488     0.999998    0.00140738
   19      -16.4247371322      -0.0000261769     0.999999    0.00131711
   20      -16.4247596716      -0.0000225394     0.999999    0.00122892
   21      -16.4247790451      -0.0000193735     0.999999    0.00114371
   22      -16.4247956689      -0.0000166238     0.999999    0.00106209
   23      -16.4248099102      -0.0000142413     0.999999    0.00098446
   24      -16.4248220918      -0.0000121816     0.999999    0.00091103
   25      -16.4248324969      -0.0000104051     0.999999    0.00084190
   26      -16.4248413731      -0.0000088762     0.999999    0.00077707
   27      -16.4248489360      -0.0000075630     0.999999    0.00071649
   28      -16.4248553731      -0.0000064371     0.999999    0.00066002
   29      -16.4248608466      -0.0000054734     0.999999    0.00060753
   30      -16.4248654965      -0.0000046500     0.999999    0.00055883
   31      -16.4248694438      -0.0000039473     0.999999    0.00051372
   32      -16.4248727922      -0.0000033484     0.999999    0.00047202
   33      -16.4248756307      -0.0000028385     0.999999    0.00043350
   34      -16.4248780357      -0.0000024050     0.999999    0.00039798
   35      -16.4248800723      -0.0000020366     0.999999    0.00036525
   36      -16.4248817961      -0.0000017239     0.999999    0.00033511
   37      -16.4248832547      -0.0000014586     0.999999    0.00030739
   38      -16.4248844883      -0.0000012337     0.999999    0.00028190
   39      -16.4248855314      -0.0000010431     0.999999    0.00025849
   40      -16.4248864132      -0.0000008817     0.999999    0.00023698
   41      -16.4248871583      -0.0000007452     0.999999    0.00021724
   42      -16.4248877879      -0.0000006296     0.999999    0.00019912
   43      -16.4248883198      -0.0000005319     0.999999    0.00018251
   44      -16.4248887690      -0.0000004492     0.999999    0.00016727
   45      -16.4248891484      -0.0000003794     0.999999    0.00015329
   46      -16.4248894687      -0.0000003203     0.999999    0.00014048
   47      -16.4248897392      -0.0000002705     0.999999    0.00012874
   48      -16.4248899675      -0.0000002283     0.999999    0.00011797
   49      -16.4248901603      -0.0000001927     0.999999    0.00010811
   50      -16.4248903230      -0.0000001627     0.999999    0.00009907
   51      -16.4248904603      -0.0000001373     0.999999    0.00009079
   52      -16.4248905762      -0.0000001159     0.999999    0.00008321
   53      -16.4248906740      -0.0000000978     0.999999    0.00007626
   54      -16.4248907566      -0.0000000826     0.999999    0.00006989
   55      -16.4248908262      -0.0000000697     0.999999    0.00006405
   56      -16.4248908850      -0.0000000588     0.999999    0.00005871
   57      -16.4248909347      -0.0000000496     0.999999    0.00005381
   58      -16.4248909765      -0.0000000419     0.999999    0.00004933
   59      -16.4248910119      -0.0000000353     0.999999    0.00004522
   60      -16.4248910417      -0.0000000298     0.999999    0.00004145
   61      -16.4248910668      -0.0000000252     0.999999    0.00003800
   62      -16.4248910881      -0.0000000212     0.999999    0.00003484
   63      -16.4248911060      -0.0000000179     0.999999    0.00003194
   64      -16.4248911211      -0.0000000151     0.999999    0.00002929
   65      -16.4248911338      -0.0000000128     0.999999    0.00002685
   66      -16.4248911446      -0.0000000108     0.999999    0.00002462
   67      -16.4248911537      -0.0000000091     0.999999    0.00002258
   68      -16.4248911614      -0.0000000077     0.999999    0.00002071
   69      -16.4248911678      -0.0000000065     0.999999    0.00001899
   70      -16.4248911733      -0.0000000055     0.999999    0.00001742
   71      -16.4248911779      -0.0000000046     0.999999    0.00001597
   72      -16.4248911818      -0.0000000039     0.999999    0.00001465
   73      -16.4248911851      -0.0000000033     0.999999    0.00001344
   74      -16.4248911878      -0.0000000028     0.999999    0.00001233
   75      -16.4248911902      -0.0000000023     0.999999    0.00001131
   76      -16.4248911921      -0.0000000020     0.999999    0.00001038
   77      -16.4248911938      -0.0000000017     0.999999    0.00000952
   78      -16.4248911952      -0.0000000014     0.999999    0.00000873
   79      -16.4248911964      -0.0000000012     0.999999    0.00000801
   80      -16.4248911974      -0.0000000010     0.999999    0.00000735
   81      -16.4248911982      -0.0000000008     0.999999    0.00000675
   82      -16.4248911989      -0.0000000007     0.999999    0.00000619
   83      -16.4248911995      -0.0000000006     0.999999    0.00000568
   84      -16.4248912000      -0.0000000005     0.999999    0.00000521
   85      -16.4248912005      -0.0000000004     0.999999    0.00000478
   86      -16.4248912008      -0.0000000004     0.999999    0.00000439
   87      -16.4248912011      -0.0000000003     0.999999    0.00000403
   88      -16.4248912014      -0.0000000003     0.999999    0.00000370
   89      -16.4248912016      -0.0000000002     0.999999    0.00000339
   90      -16.4248912018      -0.0000000002     0.999999    0.00000312
   91      -16.4248912019      -0.0000000002     0.999999    0.00000286
   92      -16.4248912021      -0.0000000001     0.999999    0.00000262
   93      -16.4248912022      -0.0000000001     0.999999    0.00000241
   94      -16.4248912023      -0.0000000001     0.999999    0.00000221
   95      -16.4248912024      -0.0000000001     0.999999    0.00000203
   96      -16.4248912024      -0.0000000001     0.999999    0.00000186
   97      -16.4248912025      -0.0000000001     0.999999    0.00000171
   98      -16.4248912025      -0.0000000000     0.999999    0.00000157
   99      -16.4248912026      -0.0000000000     0.999999    0.00000144
  100      -16.4248912026      -0.0000000000     0.999999    0.00000132
  101      -16.4248912026      -0.0000000000     0.999999    0.00000122
  102      -16.4248912027      -0.0000000000     0.999999    0.00000112
  103      -16.4248912027      -0.0000000000     0.999999    0.00000102
  104      -16.4248912027      -0.0000000000     0.999999    0.00000094
  
--------------------------------------------------
 Final SA-REKS(2,2) energy:     -16.42489120
  
 State     Energy      FON(1)    FON(2)   Spin
  PPS  -16.49335169   1.999998  0.000002  0.00
  OSS  -16.35643072   1.000000  1.000000  0.00
 Trip  -16.38779504   1.000000  1.000000  1.00
--------------------------------------------------

 Lagrangian Wab:   0.00268842  0.00268853

--------------------------------------------------
 SSR: 2SI-2SA-REKS(2,2) Hamiltonian matrix
               PPS           OSS
   PPS   -16.49335169    0.00379822
   OSS     0.00379822  -16.35643072
--------------------------------------------------

----------------------------------------------------------------
 SSR: 2SI-2SA-REKS(2,2) states
                    E_n       C_{PPS}    C_{OSS}
 SSR state  1  -16.49345697  -0.999616   0.027708
 SSR state  2  -16.35632544  -0.027708  -0.999616
----------------------------------------------------------------

 unrelaxed SSR FONs for S0:  1.999230  0.000770

Total Energy:                      -16.4934569676 H         -448.8098 eV
Extrapolated to 0:                 -16.4934569676 H         -448.8098 eV

----------------------------------------------------------------------------------
 Solving CP-REKS equation for  1 state vector...
----------------------------------------------------------------------------------
  CG solver: Constructing Y initial guess
  CG solver: Iteration    1    eps =    0.000326619733
  CG solver: Iteration    2    eps =    0.000057954267
  CG solver: Iteration    3    eps =    0.000034271813
  CG solver: Iteration    4    eps =    0.000002200577
  CG solver: Iteration    5    eps =    0.000001326125
  CG solver: Iteration    6    eps =    0.000000228586
  CG solver: Iteration    7    eps =    0.000000039548
  CG solver: Iteration    8    eps =    0.000000012191
  CG solver: Iteration    9    eps =    0.000000005502
  Convergence reached in CG solver after    9 iterations
  CG solver: Calculating converged R, Z, Q2 matrix
----------------------------------------------------------------------------------

----------------------------------------------------------------------------------
 Solving CP-REKS equation for SI between  1 and  2 state vectors...
----------------------------------------------------------------------------------
  CG solver: Constructing Y initial guess
  CG solver: Iteration    1    eps =    0.039233069370
  CG solver: Iteration    2    eps =    0.001497633512
  CG solver: Iteration    3    eps =    0.000626943283
  CG solver: Iteration    4    eps =    0.000335311394
  CG solver: Iteration    5    eps =    0.000047771810
  CG solver: Iteration    6    eps =    0.000026173204
  CG solver: Iteration    7    eps =    0.000003417842
  CG solver: Iteration    8    eps =    0.000001104766
  CG solver: Iteration    9    eps =    0.000000598386
  CG solver: Iteration   10    eps =    0.000000108455
  CG solver: Iteration   11    eps =    0.000000010821
  CG solver: Iteration   12    eps =    0.000000000978
  Convergence reached in CG solver after   12 iterations
  CG solver: Calculating converged R, Z, Q2 matrix
----------------------------------------------------------------------------------

--------------------------------------------------
 Gradient Information
--------------------------------------------------
           1 st state (SSR)
    -0.00118612    -0.06221738    -0.00222798
    -0.02369154    -0.06606401     0.00728087
     0.00750342     0.04240957    -0.00303735
     0.00401835     0.02920331     0.01138305
     0.01748944     0.03426357    -0.00314821
     0.02324359    -0.01306686    -0.09213158
     0.00914458    -0.02850230     0.02692182
     0.00426571     0.01003584     0.03618025
     0.02313102     0.01865320    -0.00721577
    -0.05543609     0.07233394     0.06982724
     0.00151418    -0.00775693    -0.02803959
     0.01176260    -0.04333699    -0.02425068
    -0.00817411     0.00511586     0.01188100
    -0.01358504     0.00892917    -0.00342308

           2 st state (SSR)
    -0.01221334    -0.05045615     0.04793346
    -0.01594931    -0.08041397    -0.05546521
     0.01128098     0.04017907    -0.00191842
    -0.00113350     0.03344127     0.01172971
     0.01862130     0.03972927    -0.00148628
     0.07056433    -0.01859131    -0.06852098
    -0.04088248    -0.01773217     0.02611820
     0.00096521     0.01593043     0.02785949
     0.02241684     0.01687735     0.00036389
    -0.00238576     0.05775875     0.02795045
     0.01060867    -0.00610166    -0.01792734
    -0.04122576    -0.04461060     0.00127469
    -0.00825811     0.00368555     0.00787918
    -0.01240907     0.01030417    -0.00579085
--------------------------------------------------
 Coupling Information
--------------------------------------------------
 between  1 and  2 states
--------------------------------------------------
 g vector - difference gradient
     0.00566642    -0.00608330    -0.02641673
    -0.00383935     0.00753928     0.03310002
    -0.00188419     0.00116575    -0.00054999
     0.00260317    -0.00216512    -0.00019613
    -0.00053340    -0.00285941    -0.00082972
    -0.02304091     0.00318651    -0.01202793
     0.02470760    -0.00591013     0.00030139
     0.00155881    -0.00285567     0.00389789
     0.00030724     0.00070890    -0.00345655
    -0.02740732     0.00755957     0.02088792
    -0.00447065    -0.00090826    -0.00496346
     0.02693798     0.00055100    -0.01295649
     0.00005490     0.00077367     0.00214543
    -0.00066029    -0.00070276     0.00106435

 h vector - derivative coupling
     0.00260143    -0.00349026    -0.02338559
     0.00067995     0.00636733     0.03025805
     0.00013504     0.00087924     0.00018625
     0.00041966    -0.00077295    -0.00040611
     0.00060208    -0.00220553     0.00004551
     0.01182121     0.00757099    -0.00368563
    -0.00620754    -0.00931472    -0.00182106
    -0.00169387     0.00173308    -0.00484656
    -0.00090851    -0.00325135     0.00611227
    -0.01516512     0.00470005    -0.00149019
     0.00150656    -0.00143031     0.00181043
     0.00726472    -0.00156428    -0.00313953
     0.00023129     0.00103480     0.00254951
    -0.00128689    -0.00025608    -0.00218734

 G vector - GDV
     0.00551361    -0.00588062    -0.02508072
    -0.00387112     0.00717498     0.03137304
    -0.00188878     0.00111525    -0.00055946
     0.00257593    -0.00211898    -0.00017333
    -0.00056593    -0.00273285    -0.00083097
    -0.02366037     0.00276222    -0.01180530
     0.02501353    -0.00538507     0.00040181
     0.00165025    -0.00294729     0.00416038
     0.00035709     0.00088792    -0.00378983
    -0.02652516     0.00728760     0.02093840
    -0.00454725    -0.00082763    -0.00505612
     0.02649418     0.00063680    -0.01276268
     0.00004200     0.00071516     0.00200091
    -0.00058798    -0.00068750     0.00118388

 H vector - DCV - non-adiabatic coupling
     0.02123015    -0.02787024    -0.18094340
     0.00339980     0.04940651     0.23368205
     0.00022213     0.00687270     0.00113394
     0.00410713    -0.00650251    -0.00303613
     0.00416833    -0.01721373    -0.00000381
     0.07676352     0.05641213    -0.03169411
    -0.03521674    -0.07020860    -0.01313754
    -0.01170353     0.01146511    -0.03371359
    -0.00649079    -0.02338695     0.04310754
    -0.12148975     0.03727513    -0.00241233
     0.00916345    -0.01078109     0.01117683
     0.06377674    -0.01116702    -0.02809305
     0.00170624     0.00784699     0.01942985
    -0.00963666    -0.00214843    -0.01549624
--------------------------------------------------


--------------------------------------------------------------------------------
DFTB+ running times                          cpu [s]             wall clock [s]
--------------------------------------------------------------------------------
SCC                                    +     0.17  ( 35.1%)      0.17  ( 35.1%)
      Sparse to dense                        0.01  (  1.7%)      0.01  (  2.3%)
      Dense to sparse                        0.03  (  6.1%)      0.03  (  6.8%)
      Range separated Hamiltonian            0.01  (  2.7%)      0.01  (  2.1%)
  Density matrix creation                    0.02  (  3.5%)      0.02  (  3.9%)
Post-SCC processing                    +     0.31  ( 64.3%)      0.31  ( 63.9%)
  Force calculation                          0.31  ( 64.2%)      0.31  ( 63.5%)
--------------------------------------------------------------------------------
Missing                                +     0.00  (  0.6%)      0.00  (  1.0%)
Total                                  =     0.48  (100.0%)      0.48  (100.0%)
--------------------------------------------------------------------------------
