     6
  Step:     0            Position(A)                                  Velocity(au)
C        -0.03170202     0.01694267     0.02965423    -0.00008189     0.00008752    -0.00017920
N        -0.04058690    -0.05940470     1.28452054    -0.00011820     0.00008231     0.00022442
H         0.90681333    -0.02460546    -0.56644888     0.00118518    -0.00036740    -0.00077295
H         0.75477779    -0.10090906     1.86397549     0.00090478    -0.00082748     0.00051535
H        -0.92848490    -0.01773166     1.88043513     0.00070271    -0.00036403    -0.00098955
H        -1.00427132     0.09708722    -0.48943099    -0.00017430    -0.00062767     0.00026390
     6
  Step:     1            Position(A)                                  Velocity(au)
C        -0.03214953     0.01743705     0.02846424    -0.00008076     0.00009303    -0.00025464
N        -0.04129242    -0.05896726     1.28594081    -0.00013774     0.00007764     0.00029352
H         0.91330126    -0.02662312    -0.57080191     0.00117589    -0.00036952    -0.00081146
H         0.76032512    -0.10544576     1.86721553     0.00110735    -0.00083080     0.00065741
H        -0.92435534    -0.01973018     1.87478620     0.00079518    -0.00036579    -0.00106599
H        -1.00529929     0.09367091    -0.48822550    -0.00020191    -0.00062125     0.00017548
     6
  Step:     2            Position(A)                                  Velocity(au)
C        -0.03258586     0.01796082     0.02686745    -0.00007765     0.00009798    -0.00032658
N        -0.04209436    -0.05855502     1.28773283    -0.00015276     0.00007291     0.00035899
H         0.91968223    -0.02864947    -0.57532948     0.00114375    -0.00036959    -0.00083501
H         0.76689658    -0.11000125     1.87117017     0.00127365    -0.00083183     0.00077307
H        -0.91978252    -0.02173486     1.86876903     0.00086049    -0.00036531    -0.00111979
H        -1.00648106     0.09028826    -0.48751052    -0.00022970    -0.00061378     0.00008466
     6
  Step:     3            Position(A)                                  Velocity(au)
C        -0.03300049     0.01851073     0.02488547    -0.00007263     0.00010216    -0.00039335
N        -0.04296645    -0.05816834     1.28987471    -0.00016252     0.00006805     0.00041926
H         0.92583484    -0.03067325    -0.57995222     0.00108919    -0.00036718    -0.00084353
H         0.77428221    -0.11456118     1.87568710     0.00139800    -0.00082894     0.00085867
H        -0.91492583    -0.02373338     1.86251523     0.00089354    -0.00036217    -0.00114671
H        -1.00781640     0.08694494    -0.48729772    -0.00025674    -0.00060461    -0.00000750
     6
  Step:     4            Position(A)                                  Velocity(au)
C        -0.03338332     0.01908250     0.02254876    -0.00006584     0.00010541    -0.00045326
N        -0.04387875    -0.05780790     1.29233605    -0.00016648     0.00006304     0.00047273
H         0.93164073    -0.03268088    -0.58459086     0.00101339    -0.00036195    -0.00083732
H         0.78224561    -0.11910242     1.88059779     0.00147658    -0.00082073     0.00091203
H        -0.90997208    -0.02571121     1.85617895     0.00089000    -0.00035606    -0.00114328
H        -1.00929990     0.08365013    -0.48759284    -0.00028201    -0.00059320    -0.00009957
     6
  Step:     5            Position(A)                                  Velocity(au)
C        -0.03372510     0.01967092     0.01989670    -0.00005748     0.00010758    -0.00050480
N        -0.04479875    -0.05747455     1.29507776    -0.00016435     0.00005787     0.00051790
H         0.93698851    -0.03465694    -0.58916804     0.00091837    -0.00035369    -0.00081713
H         0.79053392    -0.12359446     1.88572525     0.00150788    -0.00080621     0.00093268
H        -0.90513019    -0.02765227     1.84993193     0.00084706    -0.00034686    -0.00110737
H        -1.01092035     0.08041596    -0.48839361    -0.00030446    -0.00057922    -0.00018983
     6
  Step:     6            Position(A)                                  Velocity(au)
C        -0.03401780     0.02027000     0.01697657    -0.00004786     0.00010858    -0.00054680
N        -0.04569293    -0.05716911     1.29805281    -0.00015621     0.00005259     0.00055361
H         0.94177800    -0.03658501    -0.59361063     0.00080700    -0.00034242    -0.00078426
H         0.79889016    -0.12800166     1.89089305     0.00149300    -0.00078491     0.00092196
H        -0.90062194    -0.02953999     1.84395541     0.00076406    -0.00033470    -0.00103874
H        -1.01266065     0.07725648    -0.48968830    -0.00032310    -0.00056257    -0.00027647
     6
  Step:     7            Position(A)                                  Velocity(au)
C        -0.03425503     0.02087334     0.01384167    -0.00003732     0.00010842    -0.00057861
N        -0.04652853    -0.05689218     1.30120824    -0.00014246     0.00004727     0.00057925
H         0.94592498    -0.03844874    -0.59785271     0.00068293    -0.00032837    -0.00074061
H         0.80706685    -0.13228628     1.89593469     0.00143554    -0.00075701     0.00088291
H        -0.89666924    -0.03135861     1.83842934     0.00064296    -0.00031994    -0.00093931
H        -1.01449825     0.07418626    -0.49145509    -0.00033714    -0.00054345    -0.00035775
     6
  Step:     8            Position(A)                                  Velocity(au)
C        -0.03443238     0.02147456     0.01054830    -0.00002625     0.00010718    -0.00060026
N        -0.04727559    -0.05664393     1.30448823    -0.00012385     0.00004201     0.00059489
H         0.94936521    -0.04023312    -0.60183869     0.00055024    -0.00031200    -0.00068855
H         0.81483879    -0.13641193     1.90070208     0.00134128    -0.00072330     0.00081996
H        -0.89347871    -0.03309445     1.83351980     0.00048839    -0.00030318    -0.00081320
H        -1.01640624     0.07121881    -0.49366286    -0.00034608    -0.00052237    -0.00043234
     6
  Step:     9            Position(A)                                  Velocity(au)
C        -0.03454752     0.02206775     0.00715229    -0.00001502     0.00010501    -0.00061243
N        -0.04790873    -0.05642399     1.30783783    -0.00010140     0.00003692     0.00060130
H         0.95205689    -0.04192568    -0.60552596     0.00041310    -0.00029394    -0.00063076
H         0.82201421    -0.14034688     1.90507239     0.00121751    -0.00068511     0.00073839
H        -0.89122656    -0.03473728     1.82936692     0.00030719    -0.00028520    -0.00066625
H        -1.01835506     0.06836489    -0.49627314    -0.00034977    -0.00050009    -0.00049944
     6
  Step:    10            Position(A)                                  Velocity(au)
C        -0.03460021     0.02264791     0.00370536    -0.00000397     0.00010215    -0.00061638
N        -0.04840851    -0.05623137     1.31120676    -0.00007623     0.00003211     0.00059982
H         0.95398096    -0.04351744    -0.60888646     0.00027531    -0.00027494    -0.00057001
H         0.82844246    -0.14406694     1.90895237     0.00107215    -0.00064408     0.00064378
H        -0.89004637    -0.03628112     1.82607555     0.00010763    -0.00026686    -0.00050532
H        -1.02031440     0.06563117    -0.49924328    -0.00034838    -0.00047751    -0.00055892
     6
  Step:    11            Position(A)                                  Velocity(au)
C        -0.03459201     0.02321128     0.00025210     0.00000664     0.00009884    -0.00061372
N        -0.04876212    -0.05606448     1.31455262    -0.00004950     0.00002767     0.00059219
H         0.95513890    -0.04500352    -0.61190700     0.00013989    -0.00025572    -0.00050879
H         0.83401662    -0.14755719     1.91227925     0.00091279    -0.00060194     0.00054133
H        -0.89002170    -0.03772467     1.82371004    -0.00010159    -0.00024897    -0.00033743
H        -1.02225506     0.06301929    -0.50253012    -0.00034231    -0.00045560    -0.00061130
     6
  Step:    12            Position(A)                                  Velocity(au)
C        -0.03452585     0.02375548    -0.00317196     0.00001663     0.00009532    -0.00060614
N        -0.04896319    -0.05592126     1.31784285    -0.00002222     0.00002366     0.00058023
H         0.95554860    -0.04638301    -0.61458794     0.00000896    -0.00023691    -0.00044918
H         0.83867116    -0.15081228     1.91501843     0.00074592    -0.00056023     0.00043542
H        -0.89118479    -0.03907107     1.82229436    -0.00031220    -0.00023222    -0.00016899
H        -1.02415030     0.06052576    -0.50609342    -0.00033206    -0.00043516    -0.00065748
     6
  Step:    13            Position(A)                                  Velocity(au)
C        -0.03440561     0.02427945    -0.00654065     0.00002591     0.00009177    -0.00059512
N        -0.04901115    -0.05579931     1.32105497     0.00000474     0.00002011     0.00056552
H         0.95523926    -0.04765850    -0.61694075    -0.00011627    -0.00021898    -0.00039267
H         0.84237579    -0.15383540     1.91715882     0.00057656    -0.00052010     0.00032943
H        -0.89352036    -0.04032706     1.82181630    -0.00051684    -0.00021708    -0.00000537
H        -1.02597631     0.05814261    -0.50989826    -0.00031807    -0.00041679    -0.00069858
     6
  Step:    14            Position(A)                                  Velocity(au)
C        -0.03423571     0.02478315    -0.00983598     0.00003441     0.00008834    -0.00058178
N        -0.04891011    -0.05569608     1.32417541     0.00003070     0.00001702     0.00054931
H         0.95424666    -0.04883506    -0.61898495    -0.00023516    -0.00020218    -0.00034023
H         0.84512727    -0.15663620     1.91870725     0.00040833    -0.00048230     0.00022575
H        -0.89697221    -0.04150188     1.82223425    -0.00070917    -0.00020381     0.00014915
H        -1.02771196     0.05585866    -0.51391586    -0.00030063    -0.00040079    -0.00073553
     6
  Step:    15            Position(A)                                  Velocity(au)
C        -0.03402086     0.02526725    -0.01304599     0.00004113     0.00008774    -0.00062351
N        -0.04866787    -0.05560901     1.32719722     0.00005494     0.00001213     0.00057803
H         0.95260976    -0.04991924    -0.62074512    -0.00037120    -0.00015667    -0.00024893
H         0.84694161    -0.15922844     1.91968317     0.00022184    -0.00047861     0.00010420
H        -0.90145020    -0.04260598     1.82348410    -0.00086093    -0.00016132     0.00027228
H        -1.02933786     0.05366107    -0.51812286    -0.00024316    -0.00041748    -0.00073037
     6
  Step:    16            Position(A)                                  Velocity(au)
C        -0.03377654     0.02576276    -0.01679727     0.00004588     0.00008975    -0.00071828
N        -0.04829678    -0.05556060     1.33062900     0.00007698     0.00000552     0.00065024
H         0.95010229    -0.05058420    -0.62176418    -0.00052260    -0.00009366    -0.00012055
H         0.84760401    -0.16197972     1.91987065     0.00002029    -0.00049549    -0.00003289
H        -0.90658426    -0.04330301     1.82527422    -0.00096785    -0.00010369     0.00036036
H        -1.03042682     0.05119763    -0.52207018    -0.00014636    -0.00045321    -0.00068377
     6
  Step:    17            Position(A)                                  Velocity(au)
C        -0.03350910     0.02626832    -0.02105784     0.00004946     0.00009130    -0.00080483
N        -0.04780917    -0.05554746     1.33445009     0.00009645    -0.00000044     0.00071648
H         0.94678056    -0.05096394    -0.62208976    -0.00066131    -0.00004735    -0.00000148
H         0.84716796    -0.16475529     1.91931631    -0.00016968    -0.00049581    -0.00016000
H        -0.91224578    -0.04376256     1.82750362    -0.00104922    -0.00006717     0.00043111
H        -1.03097035     0.04860592    -0.52574976    -0.00004944    -0.00047134    -0.00063565
     6
  Step:    18            Position(A)                                  Velocity(au)
C        -0.03322483     0.02678111    -0.02577451     0.00005182     0.00009217    -0.00087993
N        -0.04722099    -0.05556555     1.33862073     0.00011267    -0.00000565     0.00077391
H         0.94272591    -0.05111233    -0.62178069    -0.00078273    -0.00000878     0.00010598
H         0.84571132    -0.16751007     1.91808603    -0.00034305    -0.00048972    -0.00027347
H        -0.91828751    -0.04405226     1.83008286    -0.00110183    -0.00004018     0.00048527
H        -1.03097830     0.04594018    -0.52916039     0.00004449    -0.00048103    -0.00058701
     6
  Step:    19            Position(A)                                  Velocity(au)
C        -0.03293058     0.02729735    -0.03088175     0.00005286     0.00009223    -0.00094157
N        -0.04655133    -0.05561055     1.34309035     0.00012510    -0.00001004     0.00082079
H         0.93804188    -0.05106196    -0.62090659    -0.00088278     0.00002455     0.00019958
H         0.84333798    -0.17022272     1.91626313    -0.00049465    -0.00048036    -0.00036997
H        -0.92454700    -0.04421116     1.83292142    -0.00112365    -0.00001914     0.00052266
H        -1.03047363     0.04323550    -0.53230338     0.00013286    -0.00048458    -0.00053857
     6
  Step:    20            Position(A)                                  Velocity(au)
C        -0.03263373     0.02781259    -0.03630434     0.00005250     0.00009143    -0.00098844
N        -0.04582200    -0.05567779     1.34779993     0.00013335    -0.00001354     0.00085600
H         0.93285354    -0.05083780    -0.61954873    -0.00095792     0.00005355     0.00027718
H         0.84017950    -0.17288205     1.91394859    -0.00061955    -0.00046938    -0.00044643
H        -0.93085363    -0.04426629     1.83592792    -0.00111440    -0.00000240     0.00054351
H        -1.02949247     0.04052095    -0.53518338     0.00021320    -0.00048294    -0.00049127
     6
  Step:    21            Position(A)                                  Velocity(au)
C        -0.03234210     0.02832212    -0.04196073     0.00005073     0.00008978    -0.00102013
N        -0.04505670    -0.05576235     1.35268489     0.00013723    -0.00001614     0.00087914
H         0.92730503    -0.05046179    -0.61779978    -0.00100553     0.00007858     0.00033703
H         0.83639376    -0.17548379     1.91125926    -0.00071367    -0.00045811    -0.00050056
H        -0.93703783    -0.04423809     1.83901340    -0.00107568     0.00001096     0.00054887
H        -1.02808398     0.03782240    -0.53780981     0.00028333    -0.00047683    -0.00044626
     6
  Step:    22            Position(A)                                  Velocity(au)
C        -0.03206365     0.02882140    -0.04776760     0.00004758     0.00008738    -0.00103723
N        -0.04427993    -0.05585918     1.35767889     0.00013679    -0.00001783     0.00089066
H         0.92155437    -0.04995479    -0.61576154    -0.00102433     0.00009983     0.00037805
H         0.83215994    -0.17802982     1.90832379    -0.00077435    -0.00044777    -0.00053107
H        -0.94294100    -0.04414312     1.84209555    -0.00101083     0.00002156     0.00054057
H        -1.02630869     0.03516286    -0.54019803     0.00034161    -0.00046700    -0.00040479
     6
  Step:    23            Position(A)                                  Velocity(au)
C        -0.03180611     0.02930643    -0.05364532     0.00004313     0.00008438    -0.00104120
N        -0.04351569    -0.05596319     1.36271834     0.00013230    -0.00001863     0.00089173
H         0.91576578    -0.04933715    -0.61354094    -0.00101442     0.00011748     0.00040003
H         0.82767055    -0.18052803     1.90527666    -0.00080058    -0.00043955    -0.00053787
H        -0.94842505    -0.04399523     1.84510308    -0.00092455     0.00002986     0.00052112
H        -1.02423572     0.03256153    -0.54236986     0.00038703    -0.00045438    -0.00036805
     6
  Step:    24            Position(A)                                  Velocity(au)
C        -0.03157667     0.02977407    -0.05952264     0.00003752     0.00008098    -0.00103413
N        -0.04278624    -0.05606948     1.36774640     0.00012420    -0.00001860     0.00088404
H         0.91010162    -0.04862844    -0.61124518    -0.00097713     0.00013177     0.00040355
H         0.82312148    -0.18299233     1.90225133    -0.00079308    -0.00043451    -0.00052198
H        -0.95337909    -0.04380604     1.84797894    -0.00082211     0.00003624     0.00049329
H        -1.02193913     0.03003294    -0.54435332     0.00041930    -0.00043994    -0.00033705
     6
  Step:    25            Position(A)                                  Velocity(au)
C        -0.03138177     0.03022222    -0.06534009     0.00003090     0.00007736    -0.00101835
N        -0.04211119    -0.05617353     1.37271578     0.00011301    -0.00001782     0.00086950
H         0.90471569    -0.04784703    -0.60897725    -0.00091457     0.00014301     0.00038982
H         0.81870183    -0.18544183     1.89937367    -0.00075394    -0.00043350    -0.00048530
H        -0.95772203    -0.04358541     1.85068154    -0.00070870     0.00004104     0.00045984
H        -1.01949393     0.02758635    -0.54618152     0.00043866    -0.00042462    -0.00031250
     6
  Step:    26            Position(A)                                  Velocity(au)
C        -0.03122689     0.03064981    -0.07105104     0.00002342     0.00007367    -0.00099603
N        -0.04150695    -0.05627126     1.37758970     0.00009929    -0.00001638     0.00084986
H         0.89974808    -0.04700944    -0.60683223    -0.00082935     0.00015160     0.00036043
H         0.81458646    -0.18789980     1.89675747    -0.00068619    -0.00043706    -0.00043021
H        -0.96140200    -0.04334145     1.85318460    -0.00058900     0.00004457     0.00042327
H        -1.01697322     0.02522601    -0.54789106     0.00044568    -0.00040918    -0.00029478
     6
  Step:    27            Position(A)                                  Velocity(au)
C        -0.03111654     0.03105655    -0.07662092     0.00001525     0.00007001    -0.00096898
N        -0.04098662    -0.05635910     1.38234120     0.00008362    -0.00001437     0.00082661
H         0.89532263    -0.04613001    -0.60489503    -0.00072422     0.00015794     0.00031725
H         0.81093020    -0.19039194     1.89450115    -0.00059356    -0.00044542    -0.00035949
H        -0.96439299    -0.04308065     1.85547540    -0.00046698     0.00004710     0.00038568
H        -1.01444621     0.02295201    -0.54952018     0.00044111    -0.00039420    -0.00028397
     6
  Step:    28            Position(A)                                  Velocity(au)
C        -0.03105421     0.03144274    -0.08202526     0.00000656     0.00006647    -0.00093861
N        -0.04055995    -0.05643399     1.38695158     0.00006652    -0.00001186     0.00080090
H         0.89154589    -0.04522063    -0.60323923    -0.00060212     0.00016244     0.00026224
H         0.80786405    -0.19294444     1.89268603    -0.00048032    -0.00045845    -0.00027611
H        -0.96669085    -0.04280806     1.85755261    -0.00034589     0.00004885     0.00034877
H        -1.01197742     0.02076152    -0.55110719     0.00042576    -0.00038004    -0.00027990
     6
  Step:    29            Position(A)                                  Velocity(au)
C        -0.03104228     0.03180907    -0.08724732    -0.00000245     0.00006307    -0.00090598
N        -0.04023350    -0.05649336     1.39140846     0.00004854    -0.00000894     0.00077356
H         0.88850581    -0.04429097    -0.60192608    -0.00046623     0.00016548     0.00019757
H         0.80549225    -0.19558225     1.89137516    -0.00035121    -0.00047576    -0.00018324
H        -0.96830895    -0.04252759     1.85942394    -0.00022841     0.00005002     0.00031390
H        -1.00962606     0.01864941    -0.55268900     0.00040049    -0.00036696    -0.00028220
     6
  Step:    30            Position(A)                                  Velocity(au)
C        -0.03108196     0.03215637    -0.09227617    -0.00001158     0.00005984    -0.00087186
N        -0.04001068    -0.05653519     1.39570421     0.00003021    -0.00000571     0.00074524
H         0.88627061    -0.04334830    -0.60100382    -0.00031999     0.00016742     0.00012548
H         0.80389020    -0.19832752     1.89061267    -0.00021134    -0.00049669    -0.00008418
H        -0.96927524    -0.04224214     1.86110429    -0.00011680     0.00005073     0.00028215
H        -1.00744594     0.01660940    -0.55430021     0.00036624    -0.00035509    -0.00029038
     6
  Step:    31            Position(A)                                  Velocity(au)
C        -0.03117320     0.03248561    -0.09710525    -0.00002059     0.00005675    -0.00083687
N        -0.03989187    -0.05655791     1.39983468     0.00001206    -0.00000224     0.00071642
H         0.88488772    -0.04239799    -0.60050732    -0.00016712     0.00016867     0.00004834
H         0.80310266    -0.20119822     1.89042339    -0.00006611    -0.00052043     0.00001772
H        -0.96962954    -0.04195405     1.86261417    -0.00001301     0.00005112     0.00025442
H        -1.00548505     0.01463450    -0.55597223     0.00032399    -0.00034446    -0.00030385
     6
  Step:    32            Position(A)                                  Velocity(au)
C        -0.03131460     0.03279759    -0.10173123    -0.00002925     0.00005380    -0.00080147
N        -0.03987441    -0.05656050     1.40379834    -0.00000540     0.00000137     0.00068747
H         0.88438250    -0.04144266    -0.60045769    -0.00001153     0.00016965    -0.00003144
H         0.80314329    -0.20420742     1.89081286     0.00007903    -0.00054603     0.00011911
H        -0.96942220    -0.04166463     1.86397879     0.00008125     0.00005133     0.00023144
H        -1.00378551     0.01271761    -0.55773311     0.00027480    -0.00033509    -0.00032195
     6
  Step:    33            Position(A)                                  Velocity(au)
C        -0.03150343     0.03309301    -0.10615338    -0.00003732     0.00005096    -0.00076607
N        -0.03995279    -0.05654243     1.40759571    -0.00002167     0.00000504     0.00065868
H         0.88475752    -0.04048270    -0.60086226     0.00014272     0.00017075    -0.00011145
H         0.80399482    -0.20736260     1.89176802     0.00021873    -0.00057249     0.00021681
H        -0.96871225    -0.04137461     1.86522695     0.00016455     0.00005145     0.00021377
H        -1.00238277     0.01085160    -0.55960690     0.00021988    -0.00032693    -0.00034397
     6
  Step:    34            Position(A)                                  Velocity(au)
C        -0.03173562     0.03337243    -0.11037310    -0.00004458     0.00004819    -0.00073097
N        -0.04011887    -0.05650366     1.41122887    -0.00003632     0.00000868     0.00063031
H         0.88599249    -0.03951647    -0.60171499     0.00029164     0.00017229    -0.00018940
H         0.80561075    -0.21066555     1.89325865     0.00034805    -0.00059877     0.00030794
H        -0.96756599    -0.04108422     1.86639028     0.00023567     0.00005157     0.00020185
H        -1.00130508     0.00902959    -0.56161334     0.00016055    -0.00031994    -0.00036909
     6
  Step:    35            Position(A)                                  Velocity(au)
C        -0.03200594     0.03363626    -0.11439347    -0.00005082     0.00004548    -0.00069646
N        -0.04036222    -0.05644458     1.41470106    -0.00004896     0.00001222     0.00060251
H         0.88804518    -0.03854046    -0.60299733     0.00043148     0.00017460    -0.00026316
H         0.80791831    -0.21411243     1.89523941     0.00046264    -0.00062392     0.00039003
H        -0.96605559    -0.04079327     1.86750242     0.00029368     0.00005175     0.00019600
H        -1.00057291     0.00724496    -0.56376761     0.00009823    -0.00031406    -0.00039651
     6
  Step:    36            Position(A)                                  Velocity(au)
C        -0.03230815     0.03388474    -0.11821904    -0.00005590     0.00004279    -0.00066279
N        -0.04067046    -0.05636604     1.41801642    -0.00005930     0.00001558     0.00057545
H         0.89085324    -0.03754957    -0.60467954     0.00055883     0.00017791    -0.00033087
H         0.81082253    -0.21769426     1.89765245     0.00055894    -0.00064707     0.00046107
H        -0.96425756    -0.04050119     1.86859827     0.00033792     0.00005206     0.00019637
H        -1.00019852     0.00549153    -0.56608017     0.00003439    -0.00030922    -0.00042537
     6
  Step:    37            Position(A)                                  Velocity(au)
C        -0.03263528     0.03411800    -0.12185553    -0.00005970     0.00004011    -0.00063015
N        -0.04102980    -0.05626920     1.42117978    -0.00006710     0.00001871     0.00054922
H         0.89433687    -0.03653741    -0.60672241     0.00067088     0.00018244    -0.00039101
H         0.81421121    -0.22139756     1.90043042     0.00063435    -0.00066752     0.00051964
H        -0.96225110    -0.04020715     1.86971323     0.00036804     0.00005253     0.00020299
H        -1.00018570     0.00376354    -0.56855670    -0.00002944    -0.00030534    -0.00045484
     6
  Step:    38            Position(A)                                  Velocity(au)
C        -0.03297988     0.03433604    -0.12530971    -0.00006216     0.00003741    -0.00059874
N        -0.04142551    -0.05615552     1.42419641    -0.00007227     0.00002157     0.00052391
H         0.89840218    -0.03549667    -0.60907926     0.00076542     0.00018832    -0.00044243
H         0.81796039    -0.22520535     1.90349963     0.00068722    -0.00068472     0.00056489
H        -0.96011631    -0.03991006     1.87088237     0.00038403     0.00005322     0.00021575
H        -1.00052973     0.00205571    -0.57119822    -0.00009175    -0.00030235    -0.00048412
     6
  Step:    39            Position(A)                                  Velocity(au)
C        -0.03333435     0.03453878    -0.12858917    -0.00006328     0.00003470    -0.00056870
N        -0.04184253    -0.05602665     1.42707192    -0.00007477     0.00002412     0.00049960
H         0.90294512    -0.03441945    -0.61169815     0.00084100     0.00019564    -0.00048439
H         0.82193998    -0.22909817     1.90678336     0.00071694    -0.00069835     0.00059652
H        -0.95793210    -0.03960864     1.87213962     0.00038630     0.00005414     0.00023437
H        -1.00121757     0.00036323    -0.57400131    -0.00015112    -0.00030016    -0.00051245
     6
  Step:    40            Position(A)                                  Velocity(au)
C        -0.03369124     0.03472611    -0.13170225    -0.00006312     0.00003196    -0.00054017
N        -0.04226596    -0.05588435     1.42981222    -0.00007468     0.00002637     0.00047633
H         0.90785554    -0.03329757    -0.61452412     0.00089687     0.00020442    -0.00051654
H         0.82601925    -0.23305525     1.91020486     0.00072379    -0.00070829     0.00061476
H        -0.95577407    -0.03930147     1.87351683     0.00037559     0.00005533     0.00025843
H        -1.00222839    -0.00131830    -0.57695851    -0.00020621    -0.00029872    -0.00053917
     6
  Step:    41            Position(A)                                  Velocity(au)
C        -0.03404354     0.03489787    -0.13465791    -0.00006177     0.00002920    -0.00051327
N        -0.04268160    -0.05573041     1.43242340    -0.00007217     0.00002830     0.00045415
H         0.91302129    -0.03212283    -0.61750135     0.00093299     0.00021466    -0.00053888
H         0.83007163    -0.23705564     1.91369009     0.00070885    -0.00071459     0.00062029
H        -0.95371241    -0.03898704     1.87504303     0.00035305     0.00005679     0.00028737
H        -1.00353431    -0.00299288    -0.58005877    -0.00025587    -0.00029798    -0.00056370
     6
  Step:    42            Position(A)                                  Velocity(au)
C        -0.03438484     0.03505394    -0.13746554    -0.00005935     0.00002640    -0.00048805
N        -0.04307637    -0.05556659     1.43491171    -0.00006746     0.00002993     0.00043309
H         0.91833170    -0.03088727    -0.62057495     0.00094988     0.00022630    -0.00055171
H         0.83397868    -0.24107916     1.91716982     0.00067383    -0.00071750     0.00061409
H        -0.95180986    -0.03866378     1.87674355     0.00032013     0.00005854     0.00032048
H        -1.00510143    -0.00466419    -0.58328811    -0.00029912    -0.00029788    -0.00058559
     6
  Step:    43            Position(A)                                  Velocity(au)
C        -0.03470957     0.03519417    -0.14013481    -0.00005602     0.00002359    -0.00046458
N        -0.04343865    -0.05539454     1.43728351    -0.00006083     0.00003129     0.00041317
H         0.92368070    -0.02958331    -0.62369258     0.00094856     0.00023928    -0.00055560
H         0.83763322    -0.24510731     1.92058137     0.00062088    -0.00071736     0.00059743
H        -0.95011996    -0.03833009     1.87863943     0.00027859     0.00006058     0.00035697
H        -1.00689097    -0.00633562    -0.58663021    -0.00033519    -0.00029838    -0.00060448
     6
  Step:    44            Position(A)                                  Velocity(au)
C        -0.03501303     0.03531848    -0.14267551    -0.00005193     0.00002076    -0.00044284
N        -0.04375856    -0.05521571     1.43954521    -0.00005260     0.00003240     0.00039440
H         0.92896933    -0.02820383    -0.62680565     0.00093045     0.00025354    -0.00055126
H         0.84094148    -0.24912394     1.92386971     0.00055247    -0.00071463     0.00057171
H        -0.94868567    -0.03798439     1.88074683     0.00023037     0.00006291     0.00039596
H        -1.00886046    -0.00801035    -0.59006706    -0.00036355    -0.00029947    -0.00062012
     6