     6
  Step:   600            Position(A)                                  Velocity(au)
C         0.13349821     0.06374257     0.08732368    -0.00022280     0.00050890     0.00031839
N        -0.10758008    -0.20444997     1.31916390    -0.00008286    -0.00036981     0.00007253
H        -1.04994656     0.19434226    -0.83420805     0.00324599    -0.00341510     0.00055633
H        -0.06202910     0.78748143     1.28095125     0.00211881    -0.00231387     0.00002157
H        -1.10107037     0.16781843     1.56400914     0.00249329     0.00384606    -0.00458414
H         0.90447260     0.26192109    -0.49118332    -0.00405178     0.00095786    -0.00079569
