|===============================================================================
|
|  DFTB+ release 20.1
|
|  Copyright (C) 2006 - 2020  DFTB+ developers group
|
|===============================================================================
|
|  When publishing results obtained with DFTB+, please cite the following
|  reference:
|
|  * DFTB+, a software package for efficient approximate density functional
|    theory based atomistic simulations, J. Chem. Phys. 152, 124101 (2020).
|    [doi: 10.1063/1.5143190]
|
|  You should also cite additional publications crediting the parametrization
|  data you use. Please consult the documentation of the SK-files for the
|  references.
|
|===============================================================================

Reading input file 'dftb_in.hsd'
Parser version: 8

--------------------------------------------------------------------------------
Reading SK-files:
Done.


Processed input in HSD format written to 'dftb_pin.hsd'

Starting initialization...
--------------------------------------------------------------------------------
OpenMP threads:              1
Chosen random seed:          508213804
Mode:                        Static calculation
Self consistent charges:     Yes
SCC-tolerance:                 0.100000E-05
Max. scc iterations:                   1000
Shell resolved Hubbard:      No
Spin polarisation:           No
Nr. of up electrons:             6.000000
Nr. of down electrons:           6.000000
Periodic boundaries:         No
Electronic solver:           Relatively robust
Maximal SCC-cycles:                    1000
Initial charges:             Set automatically (system chrg:   0.100E+01)
Included shells:             C:  s, p
                             N:  s, p
                             H:  s
Spin coupling constants:     C   1(s)-1(s):  -0.455900E-01
                             C   1(s)-2(p):  -0.293000E-01
                             C   2(p)-1(s):  -0.293000E-01
                             C   2(p)-2(p):  -0.275500E-01
                             N   1(s)-1(s):  -0.468700E-01
                             N   1(s)-2(p):  -0.317000E-01
                             N   2(p)-1(s):  -0.317000E-01
                             N   2(p)-2(p):  -0.307200E-01
                             H   1(s)-1(s):  -0.792500E-01
Range separated hybrid:      Yes
  Screening parameter omega:   0.300000E+00
  Range separated algorithm:   MatrixBased
Extra options:
                             Mulliken analysis
                             Force calculation
Force type                   original
                             Eigenvector printing


REKS Calcuation:             Yes
SSR(2,2) Calcuation:         Yes
Energy Functional:           (PPS+OSS)/2
Number of Core Orbitals:                  5
Number of Active Orbitals:                2
Number of Basis:                         12
Number of States:                         2
State-Averaging Weight:          0.500000
                                 0.500000
State of Interest:                        1
Initial Guess:               Diagonalize H0 matrix
Newton-Raphson for FON opt:  Yes
NR max. Iterations:                      50
Level Shifting:              Yes
Shift Value:                     0.300000
W Scale Factor:              C  =    3.000000
                             N  =    3.000000
                             H  =    3.000000
Transition Dipole:           No
Gradient of Microstate:      No
CP-REKS Solver:              Preconditioned Conjugate-Gradient
CG max. Iterations:                     100
CG Tolerance:                  0.100000E-07
Memory for A and Hxc:        Direct Updating Without Saving
Non-Adiabatic Coupling:      Yes

--------------------------------------------------------------------------------

***  Geometry step: 0

  iSCC       reks energy        Diff energy         x_a       SCC error   
    1       -6.2646585957       0.0000000000     0.998650    1.18567221
    2       -6.2778062705      -0.0131476748     0.999493    0.10288572
    3       -6.2813832799      -0.0035770094     0.999730    0.04727290
    4       -6.2828431753      -0.0014598953     0.999823    0.02388970
    5       -6.2835562293      -0.0007130541     0.999865    0.01288429
    6       -6.2839695038      -0.0004132745     0.999887    0.00711551
    7       -6.2842436398      -0.0002741359     0.999898    0.00485602
    8       -6.2844412494      -0.0001976096     0.999906    0.00449815
    9       -6.2845901823      -0.0001489329     0.999910    0.00409273
   10       -6.2847049167      -0.0001147344     0.999913    0.00368362
   11       -6.2847941589      -0.0000892422     0.999915    0.00347591
   12       -6.2848637796      -0.0000696207     0.999916    0.00323637
   13       -6.2849180606      -0.0000542811     0.999917    0.00297820
   14       -6.2849602782      -0.0000422176     0.999917    0.00271470
   15       -6.2849930038      -0.0000327256     0.999918    0.00245523
   16       -6.2850182786      -0.0000252748     0.999918    0.00220612
   17       -6.2850377272      -0.0000194486     0.999918    0.00197144
   18       -6.2850526401      -0.0000149129     0.999918    0.00175355
   19       -6.2850640377      -0.0000113976     0.999919    0.00155356
   20       -6.2850727229      -0.0000086851     0.999919    0.00137172
   21       -6.2850793233      -0.0000066005     0.999919    0.00120762
   22       -6.2850843275      -0.0000050042     0.999919    0.00106048
   23       -6.2850881135      -0.0000037860     0.999919    0.00092923
   24       -6.2850909725      -0.0000028590     0.999918    0.00081269
   25       -6.2850931279      -0.0000021554     0.999918    0.00070960
   26       -6.2850947505      -0.0000016226     0.999918    0.00061871
   27       -6.2850959705      -0.0000012200     0.999918    0.00053878
   28       -6.2850968868      -0.0000009163     0.999918    0.00046867
   29       -6.2850975744      -0.0000006875     0.999918    0.00040730
   30       -6.2850980898      -0.0000005154     0.999918    0.00035368
   31       -6.2850984759      -0.0000003861     0.999918    0.00030689
   32       -6.2850987650      -0.0000002891     0.999918    0.00026613
   33       -6.2850989814      -0.0000002163     0.999918    0.00023065
   34       -6.2850991431      -0.0000001618     0.999918    0.00019981
   35       -6.2850992641      -0.0000001209     0.999918    0.00017302
   36       -6.2850993545      -0.0000000904     0.999918    0.00014977
   37       -6.2850994220      -0.0000000675     0.999918    0.00012960
   38       -6.2850994724      -0.0000000504     0.999918    0.00011211
   39       -6.2850995101      -0.0000000377     0.999918    0.00009696
   40       -6.2850995382      -0.0000000281     0.999918    0.00008384
   41       -6.2850995592      -0.0000000210     0.999918    0.00007249
   42       -6.2850995749      -0.0000000157     0.999918    0.00006266
   43       -6.2850995866      -0.0000000117     0.999918    0.00005415
   44       -6.2850995953      -0.0000000087     0.999918    0.00004680
   45       -6.2850996018      -0.0000000065     0.999918    0.00004044
   46       -6.2850996066      -0.0000000049     0.999918    0.00003494
   47       -6.2850996103      -0.0000000036     0.999918    0.00003018
   48       -6.2850996130      -0.0000000027     0.999918    0.00002607
   49       -6.2850996150      -0.0000000020     0.999918    0.00002252
   50       -6.2850996165      -0.0000000015     0.999918    0.00001945
   51       -6.2850996176      -0.0000000011     0.999918    0.00001680
   52       -6.2850996184      -0.0000000008     0.999918    0.00001451
   53       -6.2850996190      -0.0000000006     0.999918    0.00001253
   54       -6.2850996195      -0.0000000005     0.999918    0.00001083
   55       -6.2850996199      -0.0000000003     0.999918    0.00000935
   56       -6.2850996201      -0.0000000003     0.999918    0.00000807
   57       -6.2850996203      -0.0000000002     0.999918    0.00000697
   58       -6.2850996204      -0.0000000001     0.999918    0.00000602
   59       -6.2850996206      -0.0000000001     0.999918    0.00000520
   60       -6.2850996206      -0.0000000001     0.999918    0.00000449
   61       -6.2850996207      -0.0000000001     0.999918    0.00000388
   62       -6.2850996207      -0.0000000000     0.999918    0.00000335
   63       -6.2850996208      -0.0000000000     0.999918    0.00000289
   64       -6.2850996208      -0.0000000000     0.999918    0.00000250
   65       -6.2850996208      -0.0000000000     0.999918    0.00000216
   66       -6.2850996208      -0.0000000000     0.999918    0.00000186
   67       -6.2850996208      -0.0000000000     0.999918    0.00000161
   68       -6.2850996208      -0.0000000000     0.999918    0.00000139
   69       -6.2850996209      -0.0000000000     0.999918    0.00000120
   70       -6.2850996209      -0.0000000000     0.999918    0.00000103
   71       -6.2850996209      -0.0000000000     0.999918    0.00000089
  
--------------------------------------------------
 Final SA-REKS(2,2) energy:      -6.28509962
  
 State     Energy      FON(1)    FON(2)   Spin
  PPS   -6.40571282   1.999836  0.000164  0.00
  OSS   -6.16448643   1.000000  1.000000  0.00
 Trip   -6.24683632   1.000000  1.000000  1.00
--------------------------------------------------

 Lagrangian Wab:  -0.00977500 -0.00977472

--------------------------------------------------
 SSR: 2SI-2SA-REKS(2,2) Hamiltonian matrix
               PPS           OSS
   PPS    -6.40571282   -0.01369826
   OSS    -0.01369826   -6.16448643
--------------------------------------------------

----------------------------------------------------------------
 SSR: 2SI-2SA-REKS(2,2) states
                    E_n       C_{PPS}    C_{OSS}
 SSR state  1   -6.40648819  -0.998402  -0.056514
 SSR state  2   -6.16371105   0.056514  -0.998402
----------------------------------------------------------------

 unrelaxed SSR FONs for S0:  1.996643  0.003357

Total Energy:                       -6.4064881921 H         -174.3294 eV
Extrapolated to 0:                  -6.4064881921 H         -174.3294 eV

----------------------------------------------------------------------------------
 Solving CP-REKS equation for  1 state vector...
----------------------------------------------------------------------------------
  CG solver: Constructing Y initial guess
  CG solver: Iteration    1    eps =    0.000329617210
  CG solver: Iteration    2    eps =    0.000047409698
  CG solver: Iteration    3    eps =    0.000013951456
  CG solver: Iteration    4    eps =    0.000002891954
  CG solver: Iteration    5    eps =    0.000000040346
  CG solver: Iteration    6    eps =    0.000000016289
  CG solver: Iteration    7    eps =    0.000000000303
  Convergence reached in CG solver after    7 iterations
  CG solver: Calculating converged R, Z, Q2 matrix
----------------------------------------------------------------------------------

----------------------------------------------------------------------------------
 Solving CP-REKS equation for SI between  1 and  2 state vectors...
----------------------------------------------------------------------------------
  CG solver: Constructing Y initial guess
  CG solver: Iteration    1    eps =    0.005945651267
  CG solver: Iteration    2    eps =    0.009837322470
  CG solver: Iteration    3    eps =    0.000918909806
  CG solver: Iteration    4    eps =    0.000013850880
  CG solver: Iteration    5    eps =    0.000002058608
  CG solver: Iteration    6    eps =    0.000000044351
  CG solver: Iteration    7    eps =    0.000000003697
  Convergence reached in CG solver after    7 iterations
  CG solver: Calculating converged R, Z, Q2 matrix
----------------------------------------------------------------------------------

--------------------------------------------------
 Gradient Information
--------------------------------------------------
           1 st state (SSR)
     0.00547737    -0.00743922    -0.01420774
     0.00505644     0.01672384     0.01358344
    -0.00682030     0.01481702     0.00485825
    -0.00412127    -0.02127404    -0.00923290
    -0.00467435     0.01126957    -0.00225554
     0.00508211    -0.01409718     0.00725450

           2 st state (SSR)
    -0.00057180     0.00352251     0.09783496
    -0.00556649    -0.01310400    -0.11366656
    -0.01255253    -0.01769144     0.01840055
     0.00034166     0.02120994    -0.01246581
     0.00221640    -0.00834058    -0.01302987
     0.01613276     0.01440357     0.02292673
--------------------------------------------------
 Coupling Information
--------------------------------------------------
 between  1 and  2 states
--------------------------------------------------
 g vector - difference gradient
     0.00278967    -0.00519097    -0.06187539
     0.00590407     0.01583724     0.06855047
     0.00242947     0.01841040    -0.00623501
    -0.00313468    -0.02413105     0.00133947
    -0.00311344     0.01194870     0.00579132
    -0.00487508    -0.01687432    -0.00757087

 h vector - derivative coupling
     0.00223965    -0.00286279     0.04837382
    -0.00491720    -0.00728559    -0.03976738
     0.00400689    -0.01806502    -0.00510406
     0.00782648     0.02423580     0.00253031
    -0.00311772    -0.01831961    -0.00325368
    -0.00603810     0.02229722    -0.00277901

 G vector - GDV
     0.00302459    -0.00548086    -0.05602135
     0.00531147     0.01491392     0.06362500
     0.00286611     0.01625423    -0.00677115
    -0.00223147    -0.02124199     0.00161645
    -0.00344538     0.00980507     0.00538717
    -0.00552532    -0.01425037    -0.00783612

 H vector - DCV - non-adiabatic coupling
     0.00786952    -0.00930370     0.22673982
    -0.02286888    -0.03717907    -0.19461896
     0.01526973    -0.08249203    -0.01799123
     0.03348842     0.11040617     0.00973317
    -0.01131268    -0.08053049    -0.01600820
    -0.02244610     0.09909912    -0.00785460
--------------------------------------------------


--------------------------------------------------------------------------------
DFTB+ running times                          cpu [s]             wall clock [s]
--------------------------------------------------------------------------------
SCC                                    +     0.03  ( 73.5%)      0.03  ( 71.1%)
--------------------------------------------------------------------------------
Missing                                +     0.01  ( 26.5%)      0.01  ( 28.9%)
Total                                  =     0.03  (100.0%)      0.04  (100.0%)
--------------------------------------------------------------------------------
