 Fermi distribution function

Calculation with static geometry


********************************************************************************
 iSCC Total electronic   Diff electronic      SCC error    
   13   -0.52535013E+01   -0.14365398E-10    0.22554694E-06
********************************************************************************

 Total charge:     1.00000000

 Atomic gross charges (e)
 Atom           Charge
    1       0.28946214
    2      -0.18025568
    3       0.18663901
    4       0.25988660
    5       0.26315453
    6       0.18111341

Nr. of electrons (up):     12.00000000
Atom populations (up)
 Atom       Population
    1       3.71053786
    2       5.18025568
    3       0.81336099
    4       0.74011340
    5       0.73684547
    6       0.81888659

l-shell populations (up)
 Atom Sh.   l       Population
    1   1   0       1.41729808
    1   2   1       2.29323978
    2   1   0       1.53995565
    2   2   1       3.64030003
    3   1   0       0.81336099
    4   1   0       0.74011340
    5   1   0       0.73684547
    6   1   0       0.81888659

Orbital populations (up)
 Atom Sh.   l   m       Population  Label
    1   1   0   0       1.41729808  s
    1   2   1  -1       0.42701866  p_y
    1   2   1   0       0.86087087  p_z
    1   2   1   1       1.00535025  p_x
    2   1   0   0       1.53995565  s
    2   2   1  -1       1.39059940  p_y
    2   2   1   0       1.09407985  p_z
    2   2   1   1       1.15562079  p_x
    3   1   0   0       0.81336099  s
    4   1   0   0       0.74011340  s
    5   1   0   0       0.73684547  s
    6   1   0   0       0.81888659  s

Fermi level:                        -0.5233514199 H          -14.2411 eV
Band energy:                        -8.6593640923 H         -235.6333 eV
TS:                                  0.0000000000 H            0.0000 eV
Band free energy (E-TS):            -8.6593640923 H         -235.6333 eV
Extrapolated E(0K):                 -8.6593640923 H         -235.6333 eV
Input / Output electrons (q):     12.0000000000     12.0000000000

Energy H0:                          -5.3905271823 H         -146.6837 eV
Energy SCC:                          0.1370258589 H            3.7287 eV
Total Electronic energy:            -5.2535013234 H         -142.9550 eV
Repulsive energy:                    0.1318946059 H            3.5890 eV
Total energy:                       -5.1216067175 H         -139.3660 eV
Extrapolated to 0:                  -5.1216067175 H         -139.3660 eV
Total Mermin free energy:           -5.1216067175 H         -139.3660 eV
Force related energy:               -5.1216067175 H         -139.3660 eV

SCC converged

Excitation Energy:                   0.1005933065 H            2.7373 eV

Total Forces
    1      0.018413741740     -0.004456170432      0.021569750849
    2     -0.024049371801      0.012372644900     -0.021290880829
    3     -0.005221014535     -0.009172077133     -0.003254780435
    4      0.001625847728      0.007770491058      0.009848677083
    5      0.021065569628     -0.016576450662     -0.001669733240
    6     -0.011834772760      0.010061562268     -0.005203033428

Maximal derivative component:        0.240494E-01 au


