|===============================================================================
|
|  DFTB+ release 20.1
|
|  Copyright (C) 2006 - 2020  DFTB+ developers group
|
|===============================================================================
|
|  When publishing results obtained with DFTB+, please cite the following
|  reference:
|
|  * DFTB+, a software package for efficient approximate density functional
|    theory based atomistic simulations, J. Chem. Phys. 152, 124101 (2020).
|    [doi: 10.1063/1.5143190]
|
|  You should also cite additional publications crediting the parametrization
|  data you use. Please consult the documentation of the SK-files for the
|  references.
|
|===============================================================================

Reading input file 'dftb_in.hsd'
Parser version: 8

--------------------------------------------------------------------------------
Reading SK-files:
Done.


Processed input in HSD format written to 'dftb_pin.hsd'

Starting initialization...
--------------------------------------------------------------------------------
WARNING!
-> Excited state forces are not implemented yet for fractional occupations, kT=  0.3158E-02K
OpenMP threads:              1
Chosen random seed:          506996390
Mode:                        Static calculation
Self consistent charges:     Yes
SCC-tolerance:                 0.100000E-05
Max. scc iterations:                    100
Shell resolved Hubbard:      No
Spin polarisation:           No
Nr. of up electrons:             6.000000
Nr. of down electrons:           6.000000
Periodic boundaries:         No
Electronic solver:           Relatively robust
Mixer:                       Broyden mixer
Mixing parameter:                  0.200000
Maximal SCC-cycles:                     100
Nr. of chrg. vec. in memory:              0
Electronic temperature:        0.100000E-07 H      0.272114E-06 eV
Initial charges:             Set automatically (system chrg:   0.100E+01)
Included shells:             C:  s, p
                             N:  s, p
                             H:  s
Extra options:
                             Mulliken analysis
                             Force calculation
Force type                   original
                             Eigenvector printing

--------------------------------------------------------------------------------

***  Geometry step: 0

 iSCC Total electronic   Diff electronic      SCC error    
    1   -0.52079996E+01    0.00000000E+00    0.11166624E+01
    2   -0.52394899E+01   -0.31490228E-01    0.65863890E+00
    3   -0.52483169E+01   -0.88270205E-02    0.31401302E+00
    4   -0.46322905E+01    0.61602634E+00    0.26076968E+01
    5   -0.52519744E+01   -0.61968382E+00    0.12000095E+00
    6   -0.52534988E+01   -0.15244552E-02    0.31899286E-02
    7   -0.52534634E+01    0.35377096E-04    0.18002591E-01
    8   -0.52534979E+01   -0.34463230E-04    0.56566803E-02
    9   -0.52535013E+01   -0.34235565E-05    0.15299690E-03
   10   -0.52535013E+01    0.61493832E-09    0.15884536E-03
   11   -0.52535013E+01   -0.15074919E-08    0.19388765E-04
   12   -0.52535013E+01   -0.24022562E-10    0.12196681E-04
   13   -0.52535013E+01   -0.14365398E-10    0.22554694E-06
>> Charges saved for restart in charges.bin

Total Energy:                       -5.0210134110 H         -136.6287 eV
Extrapolated to 0:                  -5.1216067175 H         -139.3660 eV
Total Mermin free energy:           -5.0210134110 H         -136.6287 eV
Force related energy:               -5.1216067175 H         -139.3660 eV

--------------------------------------------------------------------------------
DFTB+ running times                          cpu [s]             wall clock [s]
--------------------------------------------------------------------------------
SCC                                    +     0.02  ( 63.6%)      0.07  ( 69.5%)
Post-SCC processing                    +     0.01  ( 31.1%)      0.03  ( 23.8%)
--------------------------------------------------------------------------------
Missing                                +     0.00  (  5.3%)      0.01  (  6.7%)
Total                                  =     0.04  (100.0%)      0.10  (100.0%)
--------------------------------------------------------------------------------
