     6
  Step:     0            Position(A)                                  Velocity(au)
C        -0.04063623     0.01986427     0.00181167    -0.00000821     0.00007624    -0.00007509
N        -0.04232754    -0.04814980     1.31394993    -0.00020902    -0.00002593     0.00000954
H         0.91868556    -0.05659546    -0.51592490     0.00030080    -0.00032733    -0.00034924
H         0.85568447    -0.15006478     1.85069532     0.00072280    -0.00001052     0.00082420
H        -0.93784314    -0.09757466     1.80435369     0.00162745     0.00007578    -0.00045206
H        -0.97704248     0.06685913    -0.52778176     0.00035145    -0.00028608     0.00073931
     6
  Step:     1            Position(A)                                  Velocity(au)
C        -0.04065864     0.02031468     0.00111499     0.00000084     0.00008842    -0.00017906
N        -0.04345408    -0.04829014     1.31425419    -0.00020048    -0.00002542     0.00010105
H         0.92038414    -0.05848833    -0.51789502     0.00031643    -0.00036438    -0.00036914
H         0.85946950    -0.15022018     1.85512854     0.00065019    -0.00004483     0.00078964
H        -0.92908358    -0.09727163     1.80203932     0.00155326     0.00003400    -0.00038269
H        -0.97536351     0.06518752    -0.52385685     0.00025613    -0.00032509     0.00069155
     6
  Step:     2            Position(A)                                  Velocity(au)
C        -0.04062704     0.02083141    -0.00014687     0.00001145     0.00010046    -0.00028136
N        -0.04452044    -0.04842789     1.31505527    -0.00018714    -0.00002496     0.00019078
H         0.92214677    -0.06058112    -0.51996257     0.00032448    -0.00040036    -0.00038518
H         0.86279637    -0.15055512     1.85933256     0.00055693    -0.00007627     0.00074154
H        -0.92085332    -0.09720271     1.80016773     0.00143410    -0.00000975    -0.00029006
H        -0.97424091     0.06330321    -0.52021747     0.00014872    -0.00036381     0.00063518
     6
  Step:     3            Position(A)                                  Velocity(au)
C        -0.04053340     0.02141347    -0.00196241     0.00002342     0.00011227    -0.00038111
N        -0.04550101    -0.04856318     1.31634091    -0.00016929    -0.00002450     0.00027784
H         0.92393318    -0.06286732    -0.52210806     0.00032543    -0.00043502    -0.00039795
H         0.86556104    -0.15105439     1.86323936     0.00044632    -0.00010504     0.00068210
H        -0.91339777    -0.09737823     1.79886674     0.00127090    -0.00005528    -0.00017445
H        -0.97373684     0.06120824    -0.51690944     0.00003086    -0.00040206     0.00057077
     6
  Step:     4            Position(A)                                  Velocity(au)
C        -0.04037092     0.02205945    -0.00431546     0.00003648     0.00012377    -0.00047742
N        -0.04637211    -0.04869588     1.31809421    -0.00014734    -0.00002399     0.00036136
H         0.92570634    -0.06533936    -0.52431528     0.00031994    -0.00046815    -0.00040798
H         0.86767816    -0.15170398     1.86679329     0.00032184    -0.00013135     0.00061353
H        -0.90695228    -0.09780738     1.79825964     0.00106647    -0.00010235    -0.00003734
H        -0.97390340     0.05890551    -0.51397443    -0.00009538    -0.00043965     0.00049923
     6
  Step:     5            Position(A)                                  Velocity(au)
C        -0.04013434     0.02276739    -0.00718512     0.00005033     0.00013483    -0.00056933
N        -0.04711284    -0.04882558     1.32029394    -0.00012189    -0.00002337     0.00044053
H         0.92743312    -0.06798853    -0.52657113     0.00030872    -0.00049948    -0.00041579
H         0.86908171    -0.15249125     1.86995103     0.00018713    -0.00015544     0.00053811
H        -0.90173127    -0.09849782     1.79845822     0.00082571    -0.00015058     0.00011841
H        -0.97478019     0.05639880    -0.51144818    -0.00022740    -0.00047635     0.00042178
     6
  Step:     6            Position(A)                                  Velocity(au)
C        -0.03982019     0.02353482    -0.01054547     0.00006460     0.00014533    -0.00065581
N        -0.04770592    -0.04895161     1.32291472    -0.00009369    -0.00002260     0.00051451
H         0.92908458    -0.07080498    -0.52886518     0.00029256    -0.00052874    -0.00042176
H         0.86972588    -0.15340495     1.87268161     0.00004608    -0.00017757     0.00045810
H        -0.89791681    -0.09945510     1.79955539     0.00055572    -0.00019948     0.00028857
H        -0.97639175     0.05369293    -0.50935899    -0.00036215    -0.00051191     0.00033992
     6
  Step:     7            Position(A)                                  Velocity(au)
C        -0.03942710     0.02435857    -0.01436525     0.00007886     0.00015513    -0.00073572
N        -0.04813856    -0.04907305     1.32592707    -0.00006364    -0.00002164     0.00058247
H         0.93063619    -0.07377744    -0.53118881     0.00027226    -0.00055557    -0.00042611
H         0.86958618    -0.15443536     1.87496658    -0.00009719    -0.00019797     0.00037587
H        -0.89564696    -0.10068183     1.80161762     0.00026572    -0.00024837     0.00046749
H        -0.97874520     0.05079412    -0.50772654    -0.00049611    -0.00054594     0.00025534
     6
  Step:     8            Position(A)                                  Velocity(au)
C        -0.03895604     0.02523473    -0.01860736     0.00009266     0.00016405    -0.00080785
N        -0.04840327    -0.04918873     1.32929739    -0.00003282    -0.00002044     0.00064358
H         0.93206799    -0.07689288    -0.53353447     0.00024875    -0.00057958    -0.00042905
H         0.86866085    -0.15557425     1.87680033    -0.00023820    -0.00021688     0.00029387
H        -0.89500505    -0.10217672     1.80467812    -0.00003319    -0.00029638     0.00064839
H        -0.98182806     0.04771056    -0.50656100    -0.00062538    -0.00057796     0.00016988
     6
  Step:     9            Position(A)                                  Velocity(au)
C        -0.03841055     0.02615841    -0.02322844     0.00010548     0.00017189    -0.00087094
N        -0.04849859    -0.04929729     1.33298791    -0.00000240    -0.00001898     0.00069696
H         0.93336529    -0.08013614    -0.53589605     0.00022302    -0.00060027    -0.00043078
H         0.86697276    -0.15681482     1.87819066    -0.00037216    -0.00023453     0.00021467
H        -0.89601108    -0.10393350     1.80873125    -0.00032859    -0.00034244     0.00082361
H        -0.98560642     0.04445311    -0.50586269    -0.00074580    -0.00060736     0.00008544
     6
  Step:    10            Position(A)                                  Velocity(au)
C        -0.03779686     0.02712373    -0.02817849     0.00011683     0.00017845    -0.00092369
N        -0.04842964    -0.04939726     1.33695659     0.00002637    -0.00001723     0.00074179
H         0.93451884    -0.08348951    -0.53826849     0.00019611    -0.00061714    -0.00043145
H         0.86457103    -0.15815164     1.87915940    -0.00049402    -0.00025114     0.00014095
H        -0.89861611    -0.10593990     1.81372912    -0.00060750    -0.00038532     0.00098521
H        -0.99002392     0.04103602    -0.50562206    -0.00085314    -0.00063341     0.00000388
     6
  Step:    11            Position(A)                                  Velocity(au)
C        -0.03712393     0.02812365    -0.03340074     0.00023701     0.00034461    -0.00181186
N        -0.04820820    -0.04948704     1.34115698     0.00009816    -0.00002854     0.00145951
H         0.93552497    -0.08693257    -0.54064749     0.00031748    -0.00118242    -0.00080964
H         0.86153227    -0.15958056     1.87974289    -0.00112424    -0.00050118     0.00014158
H        -0.90270134    -0.10817690     1.81958111    -0.00160989    -0.00079567     0.00211356
H        -0.99500182     0.03747753    -0.50582002    -0.00177153    -0.00123058    -0.00013715
     6
  Step:    12            Position(A)                                  Velocity(au)
C        -0.03579998     0.03001376    -0.04320199     0.00013124     0.00018484    -0.00094300
N        -0.04760100    -0.04964078     1.34908384     0.00006440    -0.00001465     0.00076579
H         0.93746179    -0.09347045    -0.54542983     0.00020854    -0.00064521    -0.00050129
H         0.85512630    -0.16227103     1.88041214    -0.00064115    -0.00025832     0.00006031
H        -0.91222459    -0.11259911     1.83162623    -0.00098315    -0.00043720     0.00121226
H        -1.00522312     0.03074182    -0.50711424    -0.00104295    -0.00065830    -0.00017606
     6
  Step:    13            Position(A)                                  Velocity(au)
C        -0.03505950     0.03104511    -0.04848615     0.00013234     0.00018325    -0.00094143
N        -0.04719598    -0.04971455     1.35338100     0.00007804    -0.00001165     0.00076667
H         0.93854253    -0.09706160    -0.54820172     0.00017838    -0.00063698    -0.00048925
H         0.85141106    -0.16375060     1.88063156    -0.00067495    -0.00027077     0.00002459
H        -0.91813199    -0.11510175     1.83857807    -0.00110596    -0.00045462     0.00125855
H        -1.01113295     0.02705065    -0.50826217    -0.00105890    -0.00065940    -0.00022974
     6
  Step:    14            Position(A)                                  Velocity(au)
C        -0.03431748     0.03206663    -0.05374836     0.00013132     0.00018068    -0.00093201
N        -0.04672670    -0.04977127     1.35767250     0.00008699    -0.00000853     0.00076119
H         0.93946011    -0.10060624    -0.55091062     0.00014995    -0.00062636    -0.00047711
H         0.84756515    -0.16530436     1.88068762    -0.00068499    -0.00028392     0.00000211
H        -0.92461418    -0.11769196     1.84572523    -0.00118399    -0.00046672     0.00127738
H        -1.01708549     0.02335490    -0.50968790    -0.00105453    -0.00065749    -0.00027431
     6
  Step:    15            Position(A)                                  Velocity(au)
C        -0.03358563     0.03307298    -0.05894663     0.00012850     0.00017752    -0.00091714
N        -0.04621969    -0.04981027     1.36192430     0.00009138    -0.00000532     0.00075129
H         0.94022556    -0.10409166    -0.55355666     0.00012407    -0.00061474    -0.00046597
H         0.84372293    -0.16693716     1.88065521    -0.00067244    -0.00029847    -0.00000703
H        -0.93142062    -0.12034002     1.85291495    -0.00122005    -0.00047435     0.00127187
H        -1.02296860     0.01967127    -0.51134088    -0.00103263    -0.00065379    -0.00031035
     6
  Step:    16            Position(A)                                  Velocity(au)
C        -0.03287383     0.03406099    -0.06405212     0.00012424     0.00017417    -0.00089928
N        -0.04570006    -0.04983108     1.36611297     0.00009161    -0.00000206     0.00073895
H         0.94085397    -0.10751261    -0.55614567     0.00010125    -0.00060349    -0.00045683
H         0.84001052    -0.16865756     1.88060866    -0.00063926    -0.00031517    -0.00000323
H        -0.93832105    -0.12302111     1.86001430    -0.00121906    -0.00047859     0.00124623
H        -1.02868680     0.01600973    -0.51317464    -0.00099651    -0.00064964    -0.00033898
     6
  Step:    17            Position(A)                                  Velocity(au)
C        -0.03218984     0.03502971    -0.06904940     0.00011889     0.00017099    -0.00088051
N        -0.04519046    -0.04983337     1.37022585     0.00008817     0.00000127     0.00072585
H         0.94136301    -0.11087140    -0.55868883     0.00008174    -0.00059375    -0.00045046
H         0.83654131    -0.17047793     1.88061888    -0.00058772    -0.00033470     0.00001271
H        -0.94511590    -0.12571666     1.86691551    -0.00118661    -0.00048052     0.00120475
H        -1.03416373     0.01237300    -0.51514914    -0.00094927    -0.00064617    -0.00036149
     6
  Step:    18            Position(A)                                  Velocity(au)
C        -0.03153947     0.03598005    -0.07393440     0.00011270     0.00016818    -0.00086224
N        -0.04471055    -0.04981683     1.37425946     0.00008152     0.00000467     0.00071314
H         0.94177136    -0.11417651    -0.56120137     0.00006554    -0.00058626    -0.00044730
H         0.83341430    -0.17241398     1.88075129    -0.00052003    -0.00035750     0.00003978
H        -0.95163884    -0.12841420     1.87353567    -0.00112792    -0.00048099     0.00115103
H        -1.03934083     0.00875751    -0.51723178    -0.00089332    -0.00064414    -0.00037909
     6
  Step:    19            Position(A)                                  Velocity(au)
C        -0.03092704     0.03691412    -0.07871065     0.00010583     0.00016583    -0.00084513
N        -0.04427706    -0.04978108     1.37821648     0.00007212     0.00000816     0.00070136
H         0.94209742    -0.11744029    -0.56370079     0.00005250    -0.00058125    -0.00044743
H         0.83071442    -0.17448369     1.88106461    -0.00043825    -0.00038379     0.00007677
H        -0.95775404    -0.13110611     1.87981261    -0.00104729    -0.00048052     0.00108770
H        -1.04417328     0.00515554    -0.51939683    -0.00083025    -0.00064383    -0.00039277
     6
  Step:    20            Position(A)                                  Velocity(au)
C        -0.03035598     0.03783449    -0.08338527     0.00009837     0.00016392    -0.00082925
N        -0.04390405    -0.04972563     1.38210258     0.00006038     0.00001175     0.00069057
H         0.94235849    -0.12067643    -0.56620482     0.00004236    -0.00057860    -0.00045061
H         0.82851344    -0.17670581     1.88160978    -0.00034445    -0.00041347     0.00012225
H        -0.96335037    -0.13378775     1.88569905    -0.00094816    -0.00047933     0.00101652
H        -1.04862525     0.00155774    -0.52162399    -0.00076096    -0.00064514    -0.00040320
     6
  Step:    21            Position(A)                                  Velocity(au)
C        -0.02982918     0.03874360    -0.08796565     0.00009036     0.00016236    -0.00081428
N        -0.04360317    -0.04964997     1.38592373     0.00004670     0.00001544     0.00068054
H         0.94257018    -0.12389787    -0.56872989     0.00003480    -0.00057794    -0.00045643
H         0.82687007    -0.17909825     1.88242901    -0.00024097    -0.00044616     0.00017455
H        -0.96833615    -0.13645581     1.89115769    -0.00083347    -0.00047746     0.00093880
H        -1.05266615    -0.00204470    -0.52389679    -0.00068606    -0.00064772    -0.00041084
     6
  Step:    22            Position(A)                                  Velocity(au)
C        -0.02934930     0.03964337    -0.09245742     0.00008183     0.00016102    -0.00079978
N        -0.04338370    -0.04955357     1.38968461     0.00003152     0.00001924     0.00067091
H         0.94274622    -0.12711545    -0.57129000     0.00002949    -0.00057880    -0.00046437
H         0.82582876    -0.18167665     1.88355450    -0.00013055    -0.00048133     0.00023173
H        -0.97263624    -0.13910724     1.89615844    -0.00070603    -0.00047486     0.00085567
H        -1.05626879    -0.00565866    -0.52620127    -0.00060608    -0.00065110    -0.00041603
     6
  Step:    23            Position(A)                                  Velocity(au)
C        -0.02891872     0.04053507    -0.09686363     0.00007286     0.00015980    -0.00078528
N        -0.04325247    -0.04943595     1.39338798     0.00001530     0.00002311     0.00066135
H         0.94289831    -0.13033738    -0.57389625     0.00002607    -0.00058069    -0.00047388
H         0.82541760    -0.18445329     1.88500712    -0.00001644    -0.00051824     0.00029161
H        -0.97619111    -0.14173886     1.90067747    -0.00056875    -0.00047149     0.00076833
H        -1.05940912    -0.00928854    -0.52852535    -0.00052170    -0.00065483    -0.00041904
     6
  Step:    24            Position(A)                                  Velocity(au)
C        -0.02853950     0.04141935    -0.10118487     0.00006353     0.00015859    -0.00077042
N        -0.04321368    -0.04929678     1.39703478    -0.00000147     0.00002702     0.00065160
H         0.94303601    -0.13356918    -0.57655668     0.00002416    -0.00058317    -0.00048445
H         0.82564603    -0.18743634     1.88679540     0.00009776    -0.00055612     0.00035187
H        -0.97895727    -0.14434736     1.90469758    -0.00042471    -0.00046740     0.00067814
H        -1.06206685    -0.01293632    -0.53085848    -0.00043377    -0.00065852    -0.00042017
     6
  Step:    25            Position(A)                                  Velocity(au)
C        -0.02821322     0.04229630    -0.10541964     0.00005393     0.00015731    -0.00075493
N        -0.04326877    -0.04913589     1.40062450    -0.00001826     0.00003094     0.00064149
H         0.94316662    -0.13681390    -0.57927638     0.00002335    -0.00058586    -0.00049556
H         0.82650329    -0.19062940     1.88891494     0.00020828    -0.00059412     0.00041018
H        -0.98090786    -0.14692966     1.90820868    -0.00027711    -0.00046267     0.00058655
H        -1.06422643    -0.01660190    -0.53319163    -0.00034333    -0.00066188    -0.00041970
     6
  Step:    26            Position(A)                                  Velocity(au)
C        -0.02794089     0.04316559    -0.10956501     0.00004419     0.00015591    -0.00073866
N        -0.04341638    -0.04895331     1.40415563    -0.00003457     0.00003484     0.00063091
H         0.94329515    -0.14007247    -0.58205769     0.00002322    -0.00058842    -0.00050677
H         0.82795801    -0.19403139     1.89134860     0.00031138    -0.00063141     0.00046427
H        -0.98203330    -0.14948321     1.91120857    -0.00012919    -0.00045746     0.00049512
H        -1.06587796    -0.02028355    -0.53551742    -0.00025153    -0.00066469    -0.00041797
     6
  Step:    27            Position(A)                                  Velocity(au)
C        -0.02772282     0.04402656    -0.11361708     0.00003445     0.00015435    -0.00072152
N        -0.04365243    -0.04874927     1.40762609    -0.00004991     0.00003867     0.00061981
H         0.94342426    -0.14334397    -0.58490041     0.00002335    -0.00059058    -0.00051767
H         0.82995892    -0.19763658     1.89406730     0.00040361    -0.00066718     0.00051212
H        -0.98234157    -0.15200638     1.91370333     0.00001578    -0.00045199     0.00040544
H        -1.06701784    -0.02397843    -0.53783018    -0.00015963    -0.00066682    -0.00041532
     6
  Step:    28            Position(A)                                  Velocity(au)
C        -0.02755861     0.04487833    -0.11757147     0.00002485     0.00015259    -0.00070349
N        -0.04397024    -0.04852421     1.41103345    -0.00006384     0.00004240     0.00060819
H         0.94355422    -0.14662596    -0.58780208     0.00002332    -0.00059211    -0.00052788
H         0.83243679    -0.20143491     1.89703139     0.00048197    -0.00070072     0.00055197
H        -0.98185817    -0.15449881     1.91570759     0.00015462    -0.00044653     0.00031911
H        -1.06764926    -0.02768300    -0.54012610    -0.00006889    -0.00066820    -0.00041210
     6
  Step:    29            Position(A)                                  Velocity(au)
C        -0.02744706     0.04571988    -0.12142371     0.00001553     0.00015063    -0.00068461
N        -0.04436083    -0.04827872     1.41437524    -0.00007596     0.00004601     0.00059608
H         0.94368307    -0.14991466    -0.59075826     0.00002275    -0.00059281    -0.00053708
H         0.83530732    -0.20541246     1.90019257     0.00054404    -0.00073138     0.00058249
H        -0.98062575    -0.15696158     1.91724449     0.00028426    -0.00044138     0.00023768
H        -1.06778236    -0.03139343    -0.54240324     0.00001938    -0.00066883    -0.00040866
     6
  Step:    30            Position(A)                                  Velocity(au)
C        -0.02738621     0.04655013    -0.12516948     0.00000664     0.00014847    -0.00066495
N        -0.04481323    -0.04801352     1.41764898    -0.00008594     0.00004948     0.00058350
H         0.94380671    -0.15320524    -0.59376276     0.00002127    -0.00059252    -0.00054500
H         0.83847480    -0.20955210     1.90349613     0.00058815    -0.00075869     0.00060274
H        -0.97870331    -0.15939743     1.91834548     0.00040185    -0.00043686     0.00016264
H        -1.06743418    -0.03510592    -0.54466154     0.00010395    -0.00066877    -0.00040535
     6
  Step:    31            Position(A)                                  Velocity(au)
C        -0.02737336     0.04736796    -0.12880489    -0.00000170     0.00014611    -0.00064461
N        -0.04531485    -0.04772942     1.42085232    -0.00009355     0.00005281     0.00057048
H         0.94391917    -0.15649189    -0.59680796     0.00001856    -0.00059110    -0.00055144
H         0.84183597    -0.21383423     1.90688322     0.00061330    -0.00078230     0.00061220
H        -0.97616512    -0.16181089     1.91904983     0.00050476    -0.00043329     0.00009534
H        -1.06662843    -0.03881705    -0.54690275     0.00018366    -0.00066815    -0.00040250
     6
  Step:    32            Position(A)                                  Velocity(au)
C        -0.02740510     0.04817232    -0.13232640    -0.00000937     0.00014356    -0.00062367
N        -0.04585188    -0.04742724     1.42398286    -0.00009860     0.00005598     0.00055702
H         0.94401282    -0.15976801    -0.59988520     0.00001437    -0.00058841    -0.00055625
H         0.84528414    -0.21823776     1.91029324     0.00061927    -0.00080205     0.00061079
H        -0.97309914    -0.16420819     1.91940399     0.00059071    -0.00043100     0.00003700
H        -1.06539507    -0.04252416    -0.54913040     0.00025741    -0.00066713    -0.00040043
     6
  Step:    33            Position(A)                                  Velocity(au)
C        -0.02747737     0.04896218    -0.13573081    -0.00001624     0.00014084    -0.00060221
N        -0.04640979    -0.04710772     1.42703810    -0.00010100     0.00005903     0.00054311
H         0.94407874    -0.16302627    -0.60298519     0.00000848    -0.00058433    -0.00055938
H         0.84871313    -0.22274114     1.91366610     0.00060651    -0.00081800     0.00059877
H        -0.96960513    -0.16659719     1.91946070     0.00065785    -0.00043023    -0.00001136
H        -1.06376980    -0.04622569    -0.55134960     0.00032425    -0.00066601    -0.00039941
     6
  Step:    34            Position(A)                                  Velocity(au)
C        -0.02758552     0.04973666    -0.13901538    -0.00002223     0.00013798    -0.00058036
N        -0.04697372    -0.04677154     1.43001547    -0.00010075     0.00006198     0.00052880
H         0.94410702    -0.16625842    -0.60609844     0.00000075    -0.00057866    -0.00056085
H         0.85202096    -0.22732361     1.91694404     0.00057609    -0.00083045     0.00057673
H        -0.96579211    -0.16898692     1.91927785     0.00070479    -0.00043111    -0.00004892
H        -1.06179344    -0.04992182    -0.55356686     0.00038331    -0.00066519    -0.00039968
     6
  Step:    35            Position(A)                                  Velocity(au)
C        -0.02772431     0.05049502    -0.14217823    -0.00002720     0.00013502    -0.00055831
N        -0.04752904    -0.04641921     1.43291267    -0.00009794     0.00006485     0.00051415
H         0.94408708    -0.16945476    -0.60921589    -0.00000892    -0.00057095    -0.00056089
H         0.85511304    -0.23196690     1.92007317     0.00052956    -0.00084019     0.00054541
H        -0.96177541    -0.17138651     1.91891725     0.00073073    -0.00043341    -0.00007506
H        -1.05951143    -0.05361547    -0.55578976     0.00043377    -0.00066543    -0.00040136
     6
  Step:    36            Position(A)                                  Velocity(au)
C        -0.02788769     0.05123677    -0.14521858    -0.00003088     0.00013200    -0.00053609
N        -0.04806193    -0.04605106     1.43572798    -0.00009285     0.00006768     0.00049916
H         0.94400796    -0.17260203    -0.61233032    -0.00002057    -0.00055958    -0.00056038
H         0.85790472    -0.23665861     1.92300386     0.00046902    -0.00084949     0.00050534
H        -0.95767325    -0.17380243     1.91844389     0.00073562    -0.00043546    -0.00008902
H        -1.05697401    -0.05731520    -0.55802627     0.00047431    -0.00066901    -0.00040437
     6
  Step:    37            Position(A)                                  Velocity(au)
C        -0.02806747     0.05196173    -0.14813485    -0.00002909     0.00012983    -0.00049070
N        -0.04856076    -0.04566715     1.43845895    -0.00008825     0.00007015     0.00046750
H         0.94385847    -0.17567232    -0.61544240    -0.00001570    -0.00053241    -0.00059861
H         0.86032444    -0.24140571     1.92568809     0.00040487    -0.00087522     0.00045537
H        -0.95360183    -0.17622498     1.91792814     0.00072148    -0.00040562    -0.00007703
H        -1.05424131    -0.06104896    -0.56028284     0.00046246    -0.00070863    -0.00042904
     6
  Step:    38            Position(A)                                  Velocity(au)
C        -0.02821094     0.05267925    -0.15067061    -0.00002679     0.00013972    -0.00044293
N        -0.04904248    -0.04527165     1.44092220    -0.00008886     0.00007732     0.00044379
H         0.94383352    -0.17851747    -0.61898121     0.00002493    -0.00057316    -0.00074187
H         0.86240312    -0.24638289     1.92806333     0.00036859    -0.00094670     0.00044463
H        -0.94965719    -0.17830915     1.91758805     0.00074033    -0.00040460    -0.00004872
H        -1.05183580    -0.06518855    -0.56279319     0.00042024    -0.00081499    -0.00054309
     6
  Step:    39            Position(A)                                  Velocity(au)
C        -0.02836852     0.05344557    -0.15307958    -0.00002921     0.00013622    -0.00042483
N        -0.04950256    -0.04483510     1.44335020    -0.00007607     0.00007992     0.00043052
H         0.94392177    -0.18169359    -0.62305835     0.00000469    -0.00056741    -0.00072566
H         0.86419870    -0.25160128     1.93038844     0.00027411    -0.00093413     0.00038949
H        -0.94568330    -0.18062402     1.91733917     0.00068144    -0.00042787    -0.00003522
H        -1.04942221    -0.06967707    -0.56582721     0.00044496    -0.00080437    -0.00054905
     6
  Step:    40            Position(A)                                  Velocity(au)
C        -0.02853543     0.05419225    -0.15538930    -0.00003039     0.00013272    -0.00040739
N        -0.04988739    -0.04438392     1.44570416    -0.00006183     0.00008262     0.00041733
H         0.94388557    -0.18481996    -0.62704141    -0.00001941    -0.00055729    -0.00070792
H         0.86544776    -0.25675868     1.93238956     0.00017307    -0.00092343     0.00032942
H        -0.94208813    -0.18306165     1.91719685     0.00060516    -0.00045074    -0.00001149
H        -1.04689341    -0.07412305    -0.56889170     0.00046248    -0.00079811    -0.00055486
     6
  Step:    41            Position(A)                                  Velocity(au)
C        -0.02870595     0.05491938    -0.15760356    -0.00003061     0.00012925    -0.00039067
N        -0.05018916    -0.04391765     1.44798452    -0.00004634     0.00008541     0.00040426
H         0.94370622    -0.18788222    -0.63091963    -0.00004658    -0.00054512    -0.00068827
H         0.86612061    -0.26185572     1.93404658     0.00006790    -0.00091269     0.00026656
H        -0.93896316    -0.18562944     1.91721161     0.00051378    -0.00047534     0.00002046
H        -1.04428644    -0.07853994    -0.57198882     0.00047362    -0.00079386    -0.00056122
     6
  Step:    42            Position(A)                                  Velocity(au)
C        -0.02887526     0.05562710    -0.15972636    -0.00003003     0.00012582    -0.00037469
N        -0.05040183    -0.04343575     1.45019207    -0.00002995     0.00008831     0.00039137
H         0.94336843    -0.19087169    -0.63468232    -0.00007624    -0.00053166    -0.00066682
H         0.86620159    -0.26689092     1.93534876    -0.00003891    -0.00090183     0.00020245
H        -0.93638437    -0.18833862     1.91742399     0.00041032    -0.00050199     0.00005880
H        -1.04163546    -0.08293611    -0.57512217     0.00047884    -0.00079097    -0.00056831
     6
  Step:    43            Position(A)                                  Velocity(au)
C        -0.02903917     0.05631568    -0.16176175    -0.00002873     0.00012244    -0.00035942
N        -0.05052155    -0.04293759     1.45232789    -0.00001307     0.00009134     0.00037871
H         0.94286010    -0.19378246    -0.63831986    -0.00010781    -0.00051728    -0.00064376
H         0.86568881    -0.27186413     1.93629336    -0.00014495    -0.00089120     0.00013846
H        -0.93440953    -0.19120046     1.91786421     0.00029819    -0.00053056     0.00010163
H        -1.03897233    -0.08731803    -0.57829579     0.00047855    -0.00078920    -0.00057612
     6
  Step:    44            Position(A)                                  Velocity(au)
C        -0.02919402     0.05698541    -0.16371372    -0.00002683     0.00011912    -0.00034486
N        -0.05054678    -0.04242249     1.45439339     0.00000389     0.00009449     0.00036632
H         0.94217237    -0.19661031    -0.64182404    -0.00014071    -0.00050226    -0.00061935
H         0.86459354    -0.27677769     1.93688483    -0.00024791    -0.00088125     0.00007583
H        -0.93307627    -0.19422454     1.91855149     0.00018112    -0.00056065     0.00014694
H        -1.03632658    -0.09169126    -0.58151352     0.00047316    -0.00078838    -0.00058460
     6