     6
  Step:     0            Position(A)                                  Velocity(au)
C        -0.03183573     0.01964345     0.00526402    -0.00000285     0.00012169    -0.00011984
N        -0.04257564    -0.06664491     1.31637237    -0.00001565    -0.00002751     0.00016928
H         0.95087204     0.00101605    -0.57612697     0.00037523    -0.00038365    -0.00003622
H         0.80722044    -0.04547060     1.77740597    -0.00004787    -0.00015167    -0.00088666
H        -0.98977749    -0.02517262     1.85423648    -0.00010588     0.00004294     0.00017796
H        -1.01025044     0.09189827    -0.51897465     0.00003000    -0.00057545    -0.00017952
     6
  Step:     1            Position(A)                                  Velocity(au)
C        -0.03184667     0.02031569     0.00453816    -0.00000108     0.00012418    -0.00014502
N        -0.04275229    -0.06680432     1.31734087    -0.00004933    -0.00003077     0.00018412
H         0.95272788    -0.00109257    -0.57633470     0.00030207    -0.00038761    -0.00003895
H         0.80776721    -0.04624613     1.77322692     0.00025350    -0.00013207    -0.00063864
H        -0.98977797    -0.02495354     1.85499393     0.00010587     0.00003731     0.00009940
H        -1.01006716     0.08876776    -0.52015497     0.00003701    -0.00056988    -0.00025246
     6
  Step:     2            Position(A)                                  Velocity(au)
C        -0.03184753     0.02100144     0.00367817     0.00000084     0.00012677    -0.00016900
N        -0.04311511    -0.06698138     1.31838582    -0.00008326    -0.00003400     0.00019759
H         0.95417531    -0.00322263    -0.57655292     0.00022645    -0.00039192    -0.00004032
H         0.80999256    -0.04691487     1.77042227     0.00056019    -0.00011287    -0.00038827
H        -0.98861980    -0.02476462     1.85532340     0.00031635     0.00003203     0.00002260
H        -1.00984573     0.08566641    -0.52173537     0.00004399    -0.00056542    -0.00032603
     6
  Step:     3            Position(A)                                  Velocity(au)
C        -0.03183745     0.02170114     0.00269110     0.00000293     0.00012941    -0.00019164
N        -0.04366224    -0.06717586     1.31950037    -0.00011631    -0.00003717     0.00020992
H         0.95520282    -0.00537601    -0.57677531     0.00014889    -0.00039654    -0.00004073
H         0.81388962    -0.04747969     1.76898343     0.00085960    -0.00009425    -0.00014269
H        -0.98632055    -0.02460352     1.85524091     0.00052202     0.00002724    -0.00005025
H        -1.00958639     0.08258816    -0.52371826     0.00005093    -0.00056198    -0.00039995
     6
  Step:     4            Position(A)                                  Velocity(au)
C        -0.03181549     0.02241514     0.00158472     0.00000520     0.00013209    -0.00021277
N        -0.04438572    -0.06738748     1.32067897    -0.00014738    -0.00004029     0.00022130
H         0.95580174    -0.00755444    -0.57699790     0.00006993    -0.00040138    -0.00004062
H         0.81938280    -0.04794450     1.76886350     0.00113936    -0.00007640     0.00009130
H        -0.98291729    -0.02446708     1.85477453     0.00071906     0.00002311    -0.00011683
H        -1.00928941     0.07952732    -0.52610443     0.00005782    -0.00055945    -0.00047383
     6
  Step:     5            Position(A)                                  Velocity(au)
C        -0.03178068     0.02314355     0.00036765     0.00000765     0.00013474    -0.00023220
N        -0.04527167    -0.06761584     1.32191698    -0.00017539    -0.00004332     0.00023182
H         0.95596650    -0.00975914    -0.57721893    -0.00000978    -0.00040632    -0.00004040
H         0.82633157    -0.04831396     1.76998049     0.00138809    -0.00005943     0.00030764
H        -0.97846832    -0.02435118     1.85396506     0.00090327     0.00001982    -0.00017471
H        -1.00895502     0.07647891    -0.52889254     0.00006467    -0.00055764    -0.00054716
     6
  Step:     6            Position(A)                                  Velocity(au)
C        -0.03173202     0.02388625    -0.00095049     0.00001026     0.00013731    -0.00024973
N        -0.04630067    -0.06786050     1.32321003    -0.00019936    -0.00004626     0.00024147
H         0.95569501    -0.01199072    -0.57743894    -0.00008950    -0.00041122    -0.00004046
H         0.83453819    -0.04859333     1.77222234     0.00159610    -0.00004344     0.00050121
H        -0.97305522    -0.02425065     1.85286697     0.00107007     0.00001758    -0.00022128
H        -1.00858332     0.07343895    -0.53207839     0.00007152    -0.00055634    -0.00061930
     6
  Step:     7            Position(A)                                  Velocity(au)
C        -0.03166865     0.02464276    -0.00235898     0.00001302     0.00013974    -0.00026513
N        -0.04744838    -0.06812092     1.32455341    -0.00021845    -0.00004908     0.00025011
H         0.95498932    -0.01424901    -0.57766069    -0.00016837    -0.00041593    -0.00004123
H         0.84375838    -0.04878822     1.77545287     0.00175593    -0.00002849     0.00066811
H        -0.96678483    -0.02415918     1.85154909     0.00121464     0.00001662    -0.00025382
H        -1.00817418     0.07040455    -0.53565434     0.00007840    -0.00055535    -0.00068953
     6
  Step:     8            Position(A)                                  Velocity(au)
C        -0.03158985     0.02541229    -0.00384593     0.00001588     0.00014196    -0.00027819
N        -0.04868636    -0.06839648     1.32594149    -0.00023201    -0.00005177     0.00025754
H         0.95385630    -0.01653302    -0.57788917    -0.00024539    -0.00042031    -0.00004310
H         0.85371452    -0.04890445     1.77951866     0.00186279    -0.00001461     0.00080578
H        -0.95979034    -0.02406918     1.85009503     0.00133209     0.00001716    -0.00026967
H        -1.00772711     0.06737400    -0.53960866     0.00008540    -0.00055447    -0.00075703
     6
  Step:     9            Position(A)                                  Velocity(au)
C        -0.03149518     0.02619369    -0.00539836     0.00001878     0.00014392    -0.00028874
N        -0.04998315    -0.06868650     1.32736718    -0.00023958    -0.00005432     0.00026347
H         0.95230832    -0.01884106    -0.57813160    -0.00031949    -0.00042425    -0.00004649
H         0.86411023    -0.04894784     1.78425641     0.00191459    -0.00000180     0.00091303
H        -0.95223118    -0.02397174     1.84860282     0.00141779     0.00001944    -0.00026630
H        -1.00724112     0.06434667    -0.54392528     0.00009263    -0.00055354    -0.00082100
     6
  Step:    10            Position(A)                                  Velocity(au)
C        -0.03138457     0.02698556    -0.00700234     0.00002165     0.00014558    -0.00029663
N        -0.05130535    -0.06899028     1.32882169    -0.00024094    -0.00005673     0.00026759
H         0.95036368    -0.02117085    -0.57839739    -0.00038955    -0.00042770    -0.00005178
H         0.87464439    -0.04892414     1.78949967     0.00191185     0.00000996     0.00098992
H        -0.94429134    -0.02385665     1.84718392     0.00146774     0.00002370    -0.00024153
H        -1.00671452     0.06132287    -0.54858362     0.00010022    -0.00055242    -0.00088065
     6
  Step:    11            Position(A)                                  Velocity(au)
C        -0.03125839     0.02778628    -0.00864324     0.00002439     0.00014694    -0.00030178
N        -0.05261882    -0.06930712     1.33029446    -0.00023609    -0.00005902     0.00026962
H         0.94804688    -0.02351981    -0.57869799    -0.00045446    -0.00043065    -0.00005933
H         0.88502451    -0.04883884     1.79508546     0.00185732     0.00002074     0.00103765
H        -0.93617509    -0.02371244     1.84596066     0.00147895     0.00003015    -0.00019375
H        -1.00614483     0.05830355    -0.55355896     0.00010833    -0.00055107    -0.00093531
     6
  Step:    12            Position(A)                                  Velocity(au)
C        -0.03111754     0.02859415    -0.01030610     0.00002692     0.00014798    -0.00030420
N        -0.05388990    -0.06963638     1.33177334    -0.00022524    -0.00006118     0.00026932
H         0.94538854    -0.02588534    -0.57904689    -0.00051314    -0.00043314    -0.00006950
H         0.89497738    -0.04869712     1.80085939     0.00175552     0.00003058     0.00105831
H        -0.92810059    -0.02352661     1.84506279     0.00144977     0.00003893    -0.00012211
H        -1.00552856     0.05529001    -0.55882294     0.00011717    -0.00054948    -0.00098446
     6
  Step:    13            Position(A)                                  Velocity(au)
C        -0.03096349     0.02940747    -0.01197595     0.00002875     0.00015016    -0.00034828
N        -0.05508649    -0.06997745     1.33324501    -0.00020773    -0.00006611     0.00029984
H         0.94242503    -0.02826515    -0.57945939    -0.00059288    -0.00050708    -0.00004723
H         0.90425748    -0.04850376     1.80667993     0.00159207     0.00012855     0.00105338
H        -0.92029184    -0.02328589     1.84462290     0.00138520    -0.00002980    -0.00003527
H        -1.00486114     0.05228360    -0.56434436     0.00015972    -0.00046232    -0.00098747
     6
  Step:    14            Position(A)                                  Velocity(au)
C        -0.03080229     0.03024050    -0.01412459     0.00002895     0.00015423    -0.00044461
N        -0.05616740    -0.07036123     1.33506069    -0.00018342    -0.00007397     0.00037047
H         0.93888837    -0.03144484    -0.57956467    -0.00069193    -0.00061255     0.00001378
H         0.91243239    -0.04728778     1.81240844     0.00136320     0.00026837     0.00102010
H        -0.91291366    -0.02385334     1.84467611     0.00129230    -0.00013600     0.00005641
H        -1.00377738     0.05022126    -0.56964935     0.00024047    -0.00032985    -0.00094052
     6
  Step:    15            Position(A)                                  Velocity(au)
C        -0.03064586     0.03109980    -0.01685443     0.00002744     0.00015870    -0.00054881
N        -0.05709910    -0.07078907     1.33730996    -0.00015370    -0.00008175     0.00044803
H         0.93483284    -0.03498627    -0.57930819    -0.00077832    -0.00066890     0.00007753
H         0.91921511    -0.04555907     1.81787289     0.00109412     0.00035073     0.00096231
H        -0.90611214    -0.02477813     1.84524180     0.00116762    -0.00019121     0.00015817
H        -1.00222262     0.04866439    -0.57466411     0.00032554    -0.00024563    -0.00088444
     6
  Step:    16            Position(A)                                  Velocity(au)
C        -0.03050092     0.03198344    -0.02015203     0.00002474     0.00016262    -0.00064841
N        -0.05785546    -0.07125913     1.33998130    -0.00011968    -0.00008908     0.00052176
H         0.93034021    -0.03879119    -0.57871321    -0.00084793    -0.00071065     0.00013527
H         0.92444885    -0.04343575     1.82297730     0.00080137     0.00041539     0.00088911
H        -0.90008998    -0.02595339     1.84641330     0.00100723    -0.00023059     0.00027620
H        -1.00020205     0.04752350    -0.57936301     0.00040773    -0.00017411    -0.00082466
     6
  Step:    17            Position(A)                                  Velocity(au)
C        -0.03037385     0.03288788    -0.02398412     0.00002089     0.00016574    -0.00074035
N        -0.05841507    -0.07176854     1.34304698    -0.00008232    -0.00009575     0.00058923
H         0.92550931    -0.04280030    -0.57782083    -0.00089771    -0.00074281     0.00018416
H         0.92802662    -0.04099159     1.82764922     0.00049377     0.00046798     0.00080442
H        -0.89503704    -0.02731361     1.84827878     0.00081511    -0.00025965     0.00040820
H        -0.99773933     0.04675000    -0.58373171     0.00048385    -0.00010994    -0.00076297
     6
  Step:    18            Position(A)                                  Velocity(au)
C        -0.03027084     0.03380848    -0.02830441     0.00001594     0.00016786    -0.00082238
N        -0.05876194    -0.07231349     1.34646962    -0.00004272    -0.00010159     0.00064886
H         0.92045498    -0.04697071    -0.57668536    -0.00092486    -0.00076754     0.00022197
H         0.92988598    -0.03828256     1.83183525     0.00017964     0.00051091     0.00071165
H        -0.89111433    -0.02881253     1.85090823     0.00059791    -0.00028111     0.00054985
H        -0.99487410     0.04631287    -0.58776449     0.00055098    -0.00005078    -0.00070089
     6
  Step:    19            Position(A)                                  Velocity(au)
C        -0.03019796     0.03473964    -0.03305599     0.00000995     0.00016883    -0.00089264
N        -0.05888632    -0.07288926     1.35020477    -0.00000214    -0.00010644     0.00069947
H         0.91530694    -0.05126732    -0.57537219    -0.00092699    -0.00078596     0.00024692
H         0.93000832    -0.03535563     1.83549961    -0.00013261     0.00054547     0.00061408
H        -0.88844131    -0.03041465     1.85434431     0.00036444    -0.00029673     0.00069534
H        -0.99166127     0.04618988    -0.59146342     0.00060640     0.00000459    -0.00063984
     6
  Step:    20            Position(A)                                  Velocity(au)
C        -0.03016088     0.03567492    -0.03817262     0.00000301     0.00016851    -0.00094959
N        -0.05878558    -0.07349025     1.35420239     0.00003803    -0.00011015     0.00074018
H         0.91020695    -0.05565960    -0.57395558    -0.00090257    -0.00079876     0.00025775
H         0.92841999    -0.03225237     1.83862395    -0.00043444     0.00057241     0.00051501
H        -0.88708539    -0.03209296     1.85859529     0.00012511    -0.00030781     0.00083789
H        -0.98817030     0.04636362    -0.59483806     0.00064760     0.00005679    -0.00058125
     6
  Step:    21            Position(A)                                  Velocity(au)
C        -0.03016459     0.03660729    -0.04358035    -0.00000469     0.00016686    -0.00099216
N        -0.05846485    -0.07411007     1.35840829     0.00007633    -0.00011261     0.00077049
H         0.90530373    -0.06012002    -0.57251551    -0.00085116    -0.00080647     0.00025385
H         0.92519340    -0.02901159     1.84120754    -0.00071727     0.00059228     0.00041786
H        -0.88705468    -0.03382615     1.86363072    -0.00010883    -0.00031535     0.00097038
H        -0.98448384     0.04681924    -0.59790549     0.00067254     0.00010607    -0.00052653
     6
  Step:    22            Position(A)                                  Velocity(au)
C        -0.03021304     0.03752946    -0.04920005    -0.00001293     0.00016388    -0.00101995
N        -0.05793724    -0.07474185     1.36276605     0.00011135    -0.00011378     0.00079036
H         0.90074669    -0.06462321    -0.57113412    -0.00077374    -0.00080967     0.00023539
H         0.92044783    -0.02566938     1.84326823    -0.00097290     0.00060577     0.00032610
H        -0.88829500    -0.03559788     1.86938063    -0.00032636    -0.00032021     0.00108617
H        -0.98069536     0.04754253    -0.60069018     0.00067981     0.00015246    -0.00047705
     6
  Step:    23            Position(A)                                  Velocity(au)
C        -0.03030879     0.03843421    -0.05495086    -0.00002145     0.00015970    -0.00103343
N        -0.05722351    -0.07537853     1.36721928     0.00014188    -0.00011373     0.00080034
H         0.89667799    -0.06914633    -0.56989135    -0.00067284    -0.00080913     0.00020337
H         0.91434735    -0.02225842     1.84484299    -0.00119424     0.00061381     0.00024322
H        -0.89069295    -0.03739595     1.87573943    -0.00051787    -0.00032323     0.00118001
H        -0.97690522     0.04851893    -0.60322369     0.00066898     0.00019595    -0.00043411
     6
  Step:    24            Position(A)                                  Velocity(au)
C        -0.03045283     0.03931505    -0.06075501    -0.00002994     0.00015455    -0.00103407
N        -0.05635089    -0.07601344     1.37171481     0.00016702    -0.00011261     0.00080165
H         0.89322352    -0.07367030    -0.56886015    -0.00055245    -0.00080597     0.00015961
H         0.90709477    -0.01880627     1.84598768    -0.00137604     0.00061777     0.00017241
H        -0.89408542    -0.03921204     1.88257463    -0.00067632    -0.00032521     0.00124884
H        -0.97321539     0.04973348    -0.60554403     0.00064063     0.00023661    -0.00039883
     6
  Step:    25            Position(A)                                  Velocity(au)
C        -0.03064443     0.04016674    -0.06654326    -0.00003815     0.00014875    -0.00102431
N        -0.05535115    -0.07664089     1.37620608     0.00018632    -0.00011069     0.00079609
H         0.89048483    -0.07818158    -0.56810204    -0.00041752    -0.00080163     0.00010646
H         0.89892138    -0.01533298     1.84677578    -0.00151546     0.00061945     0.00011645
H        -0.89827482    -0.04104174     1.88973945    -0.00079791    -0.00032699     0.00129207
H        -0.96972352     0.05117141    -0.60769473     0.00059633     0.00027477    -0.00037210
     6
  Step:    26            Position(A)                                  Velocity(au)
C        -0.03088127     0.04098577    -0.07225982    -0.00004584     0.00014266    -0.00100713
N        -0.05425823    -0.07725666     1.38065632     0.00019972    -0.00010829     0.00078583
H         0.88853402    -0.08267398    -0.56766437    -0.00027325    -0.00079771     0.00004648
H         0.89007350    -0.01184870     1.84729565    -0.00161201     0.00062095     0.00007749
H        -0.90304733    -0.04288472     1.89708689    -0.00088204    -0.00032939     0.00131136
H        -0.96651757     0.05281958    -0.60972336     0.00053824     0.00031103    -0.00035449
     6
  Step:    27            Position(A)                                  Velocity(au)
C        -0.03115980     0.04177057    -0.07786557    -0.00005287     0.00013661    -0.00098558
N        -0.05310589    -0.07785834     1.38504046     0.00020748    -0.00010576     0.00077297
H         0.88741296    -0.08714959    -0.56757953    -0.00012439    -0.00079573    -0.00001793
H         0.88079884    -0.00835220     1.84764693    -0.00166686     0.00062438     0.00005704
H        -0.90819085    -0.04474479     1.90448196    -0.00093065    -0.00033315     0.00130977
H        -0.96367255     0.05466809    -0.61167994     0.00046864     0.00034623    -0.00034621
     6
  Step:    28            Position(A)                                  Velocity(au)
C        -0.03147550     0.04252136    -0.08333814    -0.00005908     0.00013084    -0.00096218
N        -0.05192606    -0.07844541     1.38934485     0.00020999    -0.00010336     0.00075921
H         0.88713584    -0.09161836    -0.56786588     0.00002502    -0.00079677    -0.00008462
H         0.87133726    -0.00483041     1.84793683    -0.00168163     0.00063165     0.00005612
H        -0.91350821    -0.04662951     1.91180927    -0.00094699    -0.00033880     0.00129073
H        -0.96124984     0.05671136    -0.61361494     0.00038955     0.00038119    -0.00034709
     6
  Step:    29            Position(A)                                  Velocity(au)
C        -0.03182317     0.04323960    -0.08866900    -0.00006437     0.00012542    -0.00093859
N        -0.05074811    -0.07901888     1.39356488     0.00020760    -0.00010129     0.00074552
H         0.88769388    -0.09609576    -0.56852965     0.00017165    -0.00080121    -0.00015180
H         0.86191735    -0.00125999     1.84827706    -0.00165751     0.00064417     0.00007534
H        -0.91882375    -0.04854888     1.91897436    -0.00093462    -0.00034661     0.00125713
H        -0.95929866     0.05894808    -0.61557709     0.00030257     0.00041664    -0.00035653
     6
  Step:    30            Position(A)                                  Velocity(au)
C        -0.03219702     0.04392723    -0.09385864    -0.00006860     0.00012035    -0.00091555
N        -0.04959904    -0.07958078     1.39770132     0.00020060    -0.00009965     0.00073222
H         0.88905983    -0.10059904    -0.56956739     0.00031254    -0.00080875    -0.00021786
H         0.85275848     0.00239000     1.84878136    -0.00159497     0.00066281     0.00011495
H        -0.92398421    -0.05051459     1.92590029    -0.00089676    -0.00035658     0.00121104
H        -0.95785832     0.06138143    -0.61761130     0.00020906     0.00045309    -0.00037360
     6
  Step:    31            Position(A)                                  Velocity(au)
C        -0.03259062     0.04458603    -0.09891158    -0.00007163     0.00011551    -0.00089315
N        -0.04850394    -0.08013366     1.40175646     0.00018920    -0.00009845     0.00071908
H         0.89119041    -0.10514359    -0.57096696     0.00044481    -0.00081855    -0.00028124
H         0.84407379     0.00615508     1.84956309    -0.00149442     0.00068794     0.00017466
H        -0.92885617    -0.05253812     1.93252268    -0.00083632    -0.00036848     0.00115385
H        -0.95695986     0.06401699    -0.61975670     0.00011034     0.00049069    -0.00039704
     6
  Step:    32            Position(A)                                  Velocity(au)
C        -0.03299695     0.04521718    -0.10383277    -0.00007334     0.00011076    -0.00087115
N        -0.04748620    -0.08068017     1.40573151     0.00017368    -0.00009767     0.00070567
H         0.89402714    -0.10974012    -0.57270814     0.00056554    -0.00082949    -0.00034043
H         0.83606983     0.01007247     1.85073184    -0.00135699     0.00071956     0.00025344
H        -0.93332370    -0.05462956     1.93878576    -0.00075609    -0.00038192     0.00108671
H        -0.95662614     0.06686112    -0.62204516     0.00000801     0.00052934    -0.00042537
     6
  Step:    33            Position(A)                                  Velocity(au)
C        -0.03340842     0.04582107    -0.10862568    -0.00007363     0.00010595    -0.00084919
N        -0.04656729    -0.08122281     1.40962534     0.00015442    -0.00009728     0.00069153
H         0.89749673    -0.11439317    -0.57476305     0.00067197    -0.00084037    -0.00039400
H         0.82894206     0.01417884     1.85238924    -0.00118541     0.00075735     0.00034940
H        -0.93728725    -0.05679687     1.94464048    -0.00065898    -0.00039646     0.00101077
H        -0.95687059     0.06991958    -0.62450003    -0.00009600     0.00056878    -0.00045700
     6
  Step:    34            Position(A)                                  Velocity(au)
C        -0.03381715     0.04639736    -0.11329180    -0.00007249     0.00010098    -0.00082701
N        -0.04576613    -0.08176378     1.41343441     0.00013199    -0.00009722     0.00067634
H         0.90151208    -0.11910085    -0.57709686     0.00076163    -0.00085009    -0.00044075
H         0.82286568     0.01850850     1.85462374    -0.00098443     0.00080074     0.00045961
H        -0.94066396    -0.05904565     1.95004455    -0.00054816    -0.00041168     0.00092741
H        -0.95769551     0.07319672    -0.62713558    -0.00019944     0.00060871    -0.00049023
     6
  Step:    35            Position(A)                                  Velocity(au)
C        -0.03421526     0.04694509    -0.11783101    -0.00006993     0.00009576    -0.00080443
N        -0.04509814    -0.08230496     1.41715353     0.00010711    -0.00009743     0.00065991
H         0.90597430    -0.12385543    -0.57966894     0.00083259    -0.00085774    -0.00047973
H         0.81798452     0.02309177     1.85750512    -0.00076083     0.00084889     0.00058023
H        -0.94338877    -0.06137921     1.95496338    -0.00042707    -0.00042720     0.00083827
H        -0.95909053     0.07669505    -0.62995675    -0.00029985     0.00064877    -0.00052342
     6
  Step:    36            Position(A)                                  Velocity(au)
C        -0.03459521     0.04746286    -0.12224216    -0.00006606     0.00009024    -0.00078140
N        -0.04457437    -0.08284777     1.42077671     0.00008066    -0.00009782     0.00064223
H         0.91077569    -0.12864437    -0.58243448     0.00088353    -0.00086261    -0.00051033
H         0.81440044     0.02795351     1.86107959    -0.00052311     0.00090071     0.00070663
H        -0.94541567    -0.06379881     1.95937138    -0.00029931    -0.00044270     0.00074517
H        -0.96103176     0.08041515    -0.63295932    -0.00039474     0.00068862    -0.00055497
     6
  Step:    37            Position(A)                                  Velocity(au)
C        -0.03495016     0.04794901    -0.12652360    -0.00006103     0.00008440    -0.00075790
N        -0.04420087    -0.08339320     1.42429796     0.00005358    -0.00009833     0.00062341
H         0.91580309    -0.13345143    -0.58534610     0.00091381    -0.00086416    -0.00053225
H         0.81216517     0.03311166     1.86536599    -0.00028090     0.00095486     0.00083365
H        -0.94671844    -0.06630402     1.96325292    -0.00016857    -0.00045791     0.00065005
H        -0.96348175     0.08435560    -0.63613053    -0.00048168     0.00072792    -0.00058343
     6
  Step:    38            Position(A)                                  Velocity(au)
C        -0.03527416     0.04840176    -0.13067355    -0.00005503     0.00007822    -0.00073400
N        -0.04397827    -0.08394166     1.42771194     0.00002688    -0.00009884     0.00060364
H         0.92094155    -0.13825783    -0.58835564     0.00092345    -0.00086207    -0.00054551
H         0.81127547     0.03857597     1.87035373    -0.00004427     0.00100978     0.00095597
H        -0.94729098    -0.06889296     1.96660293    -0.00003851    -0.00047262     0.00055490
H        -0.96639024     0.08851305    -0.63944985    -0.00055847     0.00076634    -0.00060752
     6
  Step:    39            Position(A)                                  Velocity(au)
C        -0.03556246     0.04881936    -0.13469045    -0.00004828     0.00007174    -0.00070976
N        -0.04390177    -0.08449299     1.43101444     0.00000152    -0.00009926     0.00058317
H         0.92607793    -0.14304328    -0.59141572     0.00091311    -0.00085619    -0.00055039
H         0.81167265     0.04434700     1.87600262     0.00017707     0.00106381     0.00106843
H        -0.94714696    -0.07156263     1.96942705     0.00008731    -0.00048665     0.00046170
H        -0.96969558     0.09288230    -0.64289014    -0.00062324     0.00080356    -0.00062617
     6
  Step:    40            Position(A)                                  Velocity(au)
C        -0.03581150     0.04920019    -0.13857295    -0.00004101     0.00006498    -0.00068528
N        -0.04396139    -0.08504642     1.43420243    -0.00002164    -0.00009948     0.00056224
H         0.93110408    -0.14778696    -0.59448125     0.00088396    -0.00084655    -0.00054742
H         0.81324615     0.05041577     1.88224492     0.00037440     0.00111527     0.00116643
H        -0.94631921    -0.07430917     1.97174153     0.00020555    -0.00049989     0.00037237
H        -0.97332670     0.09745637    -0.64641892    -0.00067453     0.00083930    -0.00063858
     6
  Step:    41            Position(A)                                  Velocity(au)
C        -0.03601908     0.04954282    -0.14232010    -0.00003346     0.00005799    -0.00066066
N        -0.04414264    -0.08560059     1.43727414    -0.00004183    -0.00009941     0.00054108
H         0.93591958    -0.15246841    -0.59751051     0.00083764    -0.00083330    -0.00053733
H         0.81584100     0.05676396     1.88898919     0.00054065     0.00116261     0.00124626
H        -0.94485845    -0.07712820     1.97357285     0.00031311    -0.00051229     0.00028869
H        -0.97720549     0.10222668    -0.64999981    -0.00071133     0.00087331    -0.00064421
     6
  Step:    42            Position(A)                                  Velocity(au)
C        -0.03618418     0.04984611    -0.14593136    -0.00002584     0.00005083    -0.00063600
N        -0.04442734    -0.08615360     1.44022894    -0.00005851    -0.00009895     0.00051990
H         0.94043372    -0.15706825    -0.60046606     0.00077608    -0.00081673    -0.00052096
H         0.81926790     0.06336489     1.89612579     0.00067074     0.00120449     0.00130525
H        -0.94283180    -0.08001506     1.97495700     0.00040725    -0.00052384     0.00021232
H        -0.98124944     0.10718331    -0.65359411    -0.00073313     0.00090542    -0.00064281
     6
  Step:    43            Position(A)                                  Velocity(au)
C        -0.03630700     0.05010922    -0.14940674    -0.00001835     0.00004356    -0.00061142
N        -0.04479454    -0.08670315     1.44306718    -0.00007126    -0.00009806     0.00049889
H         0.94456711    -0.16156888    -0.60331534     0.00070146    -0.00079726    -0.00049926
H         0.82331476     0.07018501     1.90353305     0.00076172     0.00123991     0.00134191
H        -0.94032067    -0.08296516     1.97593862     0.00048565    -0.00053462     0.00014468
H        -0.98537440     0.11231537    -0.65716231    -0.00073992     0.00093552    -0.00063439
     6
  Step:    44            Position(A)                                  Velocity(au)
C        -0.03638873     0.05033167    -0.15274674    -0.00001116     0.00003624    -0.00058704
N        -0.04522165    -0.08724664     1.44578996    -0.00007989    -0.00009669     0.00047816
H         0.94825283    -0.16595512    -0.60603120     0.00061611    -0.00077537    -0.00047324
H         0.82775871     0.07718597     1.91108385     0.00081277     0.00126827     0.00135590
H        -0.93741834    -0.08597435     1.97656971     0.00054649    -0.00054474     0.00008695
H        -0.98949719     0.11761143    -0.66066560    -0.00073214     0.00096361    -0.00061924
     6