|===============================================================================
|
|  DFTB+ release 20.1
|
|  Copyright (C) 2006 - 2020  DFTB+ developers group
|
|===============================================================================
|
|  When publishing results obtained with DFTB+, please cite the following
|  reference:
|
|  * DFTB+, a software package for efficient approximate density functional
|    theory based atomistic simulations, J. Chem. Phys. 152, 124101 (2020).
|    [doi: 10.1063/1.5143190]
|
|  You should also cite additional publications crediting the parametrization
|  data you use. Please consult the documentation of the SK-files for the
|  references.
|
|===============================================================================

Reading input file 'dftb_in.hsd'
Parser version: 8

--------------------------------------------------------------------------------
Reading SK-files:
Done.


Processed input in HSD format written to 'dftb_pin.hsd'

Starting initialization...
--------------------------------------------------------------------------------
OpenMP threads:              1
Chosen random seed:          498570973
Mode:                        Static calculation
Self consistent charges:     Yes
SCC-tolerance:                 0.100000E-05
Max. scc iterations:                   1000
Shell resolved Hubbard:      No
Spin polarisation:           No
Nr. of up electrons:            16.000000
Nr. of down electrons:          16.000000
Periodic boundaries:         No
Electronic solver:           Relatively robust
Maximal SCC-cycles:                    1000
Initial charges:             Set automatically (system chrg:   0.100E+01)
Included shells:             C:  s, p
                             H:  s
                             N:  s, p
Spin coupling constants:     C   1(s)-1(s):  -0.455900E-01
                             C   1(s)-2(p):  -0.293000E-01
                             C   2(p)-1(s):  -0.293000E-01
                             C   2(p)-2(p):  -0.275500E-01
                             H   1(s)-1(s):  -0.792500E-01
                             N   1(s)-1(s):  -0.468700E-01
                             N   1(s)-2(p):  -0.317000E-01
                             N   2(p)-1(s):  -0.317000E-01
                             N   2(p)-2(p):  -0.307200E-01
Range separated hybrid:      Yes
  Screening parameter omega:   0.300000E+00
  Range separated algorithm:   MatrixBased
Extra options:
                             Mulliken analysis
                             Force calculation
Force type                   original
                             Eigenvector printing


REKS Calcuation:             Yes
SSR(2,2) Calcuation:         Yes
Energy Functional:           (PPS+OSS)/2
Number of Core Orbitals:                 15
Number of Active Orbitals:                2
Number of Basis:                         32
Number of States:                         2
State-Averaging Weight:          0.500000
                                 0.500000
State of Interest:                        1
Initial Guess:               Diagonalize H0 matrix
Newton-Raphson for FON opt:  Yes
NR max. Iterations:                      50
Level Shifting:              Yes
Shift Value:                     0.300000
W Scale Factor:              C  =    3.200000
                             H  =    3.200000
                             N  =    3.200000
Transition Dipole:           No
Gradient of Microstate:      No
CP-REKS Solver:              Preconditioned Conjugate-Gradient
CG max. Iterations:                     100
CG Tolerance:                  0.100000E-07
Memory for A and Hxc:        Direct Updating Without Saving
Non-Adiabatic Coupling:      Yes

--------------------------------------------------------------------------------

***  Geometry step: 0

  iSCC       reks energy        Diff energy         x_a       SCC error   
    1      -16.3483164923       0.0000000000     0.997647    1.22848845
    2      -16.3705653046      -0.0222488123     0.999744    0.06157391
    3      -16.3762353245      -0.0056700199     0.999939    0.03133191
    4      -16.3783328696      -0.0020975451     0.999976    0.01653975
    5      -16.3792808606      -0.0009479909     0.999988    0.00978314
    6      -16.3797735393      -0.0004926788     0.999993    0.00727321
    7      -16.3800556874      -0.0002821481     0.999995    0.00552985
    8      -16.3802287031      -0.0001730157     0.999996    0.00426572
    9      -16.3803404496      -0.0001117465     0.999997    0.00332695
   10      -16.3804157307      -0.0000752811     0.999997    0.00262035
   11      -16.3804682688      -0.0000525380     0.999998    0.00208403
   12      -16.3805060446      -0.0000377759     0.999998    0.00167443
   13      -16.3805339016      -0.0000278569     0.999998    0.00135990
   14      -16.3805548930      -0.0000209914     0.999998    0.00111709
   15      -16.3805710119      -0.0000161190     0.999998    0.00092859
   16      -16.3805836002      -0.0000125883     0.999999    0.00078138
   17      -16.3805935859      -0.0000099857     0.999999    0.00066568
   18      -16.3806016256      -0.0000080397     0.999999    0.00057413
   19      -16.3806081930      -0.0000065673     0.999999    0.00050116
   20      -16.3806136347      -0.0000054418     0.999999    0.00045293
   21      -16.3806182082      -0.0000045735     0.999999    0.00044434
   22      -16.3806221061      -0.0000038979     0.999999    0.00043367
   23      -16.3806254740      -0.0000033679     0.999999    0.00042188
   24      -16.3806284228      -0.0000029488     0.999999    0.00040966
   25      -16.3806310373      -0.0000026145     0.999999    0.00039744
   26      -16.3806333829      -0.0000023456     0.999999    0.00038553
   27      -16.3806355100      -0.0000021271     0.999999    0.00037410
   28      -16.3806374580      -0.0000019480     0.999999    0.00036326
   29      -16.3806392577      -0.0000017996     0.999999    0.00035305
   30      -16.3806409330      -0.0000016753     0.999999    0.00034349
   31      -16.3806425032      -0.0000015702     0.999999    0.00033457
   32      -16.3806439833      -0.0000014801     0.999999    0.00032627
   33      -16.3806453855      -0.0000014022     0.999999    0.00031854
   34      -16.3806467196      -0.0000013341     0.999999    0.00031135
   35      -16.3806479935      -0.0000012739     0.999999    0.00030466
   36      -16.3806492137      -0.0000012202     0.999999    0.00029843
   37      -16.3806503855      -0.0000011718     0.999999    0.00029261
   38      -16.3806515133      -0.0000011279     0.999999    0.00028717
   39      -16.3806526010      -0.0000010877     0.999999    0.00028207
   40      -16.3806536517      -0.0000010507     0.999999    0.00027727
   41      -16.3806546680      -0.0000010164     0.999999    0.00027275
   42      -16.3806556524      -0.0000009844     0.999999    0.00026849
   43      -16.3806566069      -0.0000009544     0.999999    0.00026444
   44      -16.3806575331      -0.0000009263     0.999999    0.00026060
   45      -16.3806584328      -0.0000008997     0.999999    0.00025695
   46      -16.3806593073      -0.0000008745     0.999999    0.00025346
   47      -16.3806601579      -0.0000008506     0.999999    0.00025011
   48      -16.3806609858      -0.0000008278     0.999999    0.00024691
   49      -16.3806617918      -0.0000008061     0.999999    0.00024382
   50      -16.3806625772      -0.0000007853     0.999999    0.00024085
   51      -16.3806633426      -0.0000007654     0.999999    0.00023798
   52      -16.3806640889      -0.0000007463     0.999999    0.00023521
   53      -16.3806648169      -0.0000007280     0.999999    0.00023252
   54      -16.3806655272      -0.0000007103     0.999999    0.00022991
   55      -16.3806662205      -0.0000006933     0.999999    0.00022737
   56      -16.3806668975      -0.0000006769     0.999999    0.00022490
   57      -16.3806675586      -0.0000006611     0.999999    0.00022249
   58      -16.3806682045      -0.0000006459     0.999999    0.00022014
   59      -16.3806688356      -0.0000006311     0.999999    0.00021785
   60      -16.3806694524      -0.0000006168     0.999999    0.00021560
   61      -16.3806700555      -0.0000006030     0.999999    0.00021341
   62      -16.3806706451      -0.0000005897     0.999999    0.00021126
   63      -16.3806712218      -0.0000005767     0.999999    0.00020915
   64      -16.3806717860      -0.0000005641     0.999999    0.00020708
   65      -16.3806723379      -0.0000005520     0.999999    0.00020506
   66      -16.3806728781      -0.0000005401     0.999999    0.00020307
   67      -16.3806734067      -0.0000005287     0.999999    0.00020112
   68      -16.3806739243      -0.0000005175     0.999999    0.00019920
   69      -16.3806744309      -0.0000005067     0.999999    0.00019731
   70      -16.3806749271      -0.0000004962     0.999999    0.00019545
   71      -16.3806754131      -0.0000004859     0.999999    0.00019363
   72      -16.3806758891      -0.0000004760     0.999999    0.00019183
   73      -16.3806763554      -0.0000004663     0.999999    0.00019007
   74      -16.3806768123      -0.0000004569     0.999999    0.00018833
   75      -16.3806772601      -0.0000004478     0.999999    0.00018662
   76      -16.3806776989      -0.0000004388     0.999999    0.00018493
   77      -16.3806781291      -0.0000004302     0.999999    0.00018327
   78      -16.3806785508      -0.0000004217     0.999999    0.00018163
   79      -16.3806789643      -0.0000004135     0.999999    0.00018002
   80      -16.3806793697      -0.0000004054     0.999999    0.00017843
   81      -16.3806797673      -0.0000003976     0.999999    0.00017687
   82      -16.3806801574      -0.0000003900     0.999999    0.00017533
   83      -16.3806805399      -0.0000003826     0.999999    0.00017380
   84      -16.3806809153      -0.0000003753     0.999999    0.00017231
   85      -16.3806812835      -0.0000003683     0.999999    0.00017083
   86      -16.3806816449      -0.0000003614     0.999999    0.00016937
   87      -16.3806819995      -0.0000003546     0.999999    0.00016793
   88      -16.3806823476      -0.0000003481     0.999999    0.00016651
   89      -16.3806826893      -0.0000003417     0.999999    0.00016511
   90      -16.3806830247      -0.0000003354     0.999999    0.00016373
   91      -16.3806833541      -0.0000003293     0.999999    0.00016237
   92      -16.3806836775      -0.0000003234     0.999999    0.00016103
   93      -16.3806839950      -0.0000003176     0.999999    0.00015970
   94      -16.3806843069      -0.0000003119     0.999999    0.00015839
   95      -16.3806846133      -0.0000003063     0.999999    0.00015710
   96      -16.3806849142      -0.0000003009     0.999999    0.00015583
   97      -16.3806852098      -0.0000002956     0.999999    0.00015457
   98      -16.3806855003      -0.0000002905     0.999999    0.00015333
   99      -16.3806857857      -0.0000002854     0.999999    0.00015210
  100      -16.3806860662      -0.0000002805     0.999999    0.00015089
  101      -16.3806863418      -0.0000002756     0.999999    0.00014970
  102      -16.3806866127      -0.0000002709     0.999999    0.00014852
  103      -16.3806868790      -0.0000002663     0.999999    0.00014736
  104      -16.3806871409      -0.0000002618     0.999999    0.00014621
  105      -16.3806873983      -0.0000002574     0.999999    0.00014508
  106      -16.3806876513      -0.0000002531     0.999999    0.00014396
  107      -16.3806879002      -0.0000002489     0.999999    0.00014285
  108      -16.3806881449      -0.0000002447     0.999999    0.00014176
  109      -16.3806883856      -0.0000002407     0.999999    0.00014068
  110      -16.3806886224      -0.0000002368     0.999999    0.00013961
  111      -16.3806888553      -0.0000002329     0.999999    0.00013856
  112      -16.3806890844      -0.0000002291     0.999999    0.00013752
  113      -16.3806893098      -0.0000002254     0.999999    0.00013649
  114      -16.3806895316      -0.0000002218     0.999999    0.00013548
  115      -16.3806897498      -0.0000002182     0.999999    0.00013448
  116      -16.3806899646      -0.0000002148     0.999999    0.00013349
  117      -16.3806901760      -0.0000002114     0.999999    0.00013251
  118      -16.3806903840      -0.0000002080     0.999999    0.00013154
  119      -16.3806905888      -0.0000002048     0.999999    0.00013059
  120      -16.3806907904      -0.0000002016     0.999999    0.00012965
  121      -16.3806909889      -0.0000001985     0.999999    0.00012872
  122      -16.3806911843      -0.0000001954     0.999999    0.00012779
  123      -16.3806913768      -0.0000001924     0.999999    0.00012689
  124      -16.3806915662      -0.0000001895     0.999999    0.00012599
  125      -16.3806917528      -0.0000001866     0.999999    0.00012510
  126      -16.3806919366      -0.0000001838     0.999999    0.00012422
  127      -16.3806921176      -0.0000001810     0.999999    0.00012335
  128      -16.3806922960      -0.0000001783     0.999999    0.00012249
  129      -16.3806924716      -0.0000001757     0.999999    0.00012165
  130      -16.3806926447      -0.0000001731     0.999999    0.00012081
  131      -16.3806928152      -0.0000001705     0.999999    0.00011998
  132      -16.3806929832      -0.0000001680     0.999999    0.00011916
  133      -16.3806931488      -0.0000001656     0.999999    0.00011835
  134      -16.3806933119      -0.0000001632     0.999999    0.00011755
  135      -16.3806934727      -0.0000001608     0.999999    0.00011676
  136      -16.3806936312      -0.0000001585     0.999999    0.00011598
  137      -16.3806937874      -0.0000001562     0.999999    0.00011520
  138      -16.3806939414      -0.0000001540     0.999999    0.00011444
  139      -16.3806940933      -0.0000001518     0.999999    0.00011368
  140      -16.3806942429      -0.0000001497     0.999999    0.00011294
  141      -16.3806943905      -0.0000001476     0.999999    0.00011220
  142      -16.3806945360      -0.0000001455     0.999999    0.00011147
  143      -16.3806946795      -0.0000001435     0.999999    0.00011074
  144      -16.3806948211      -0.0000001415     0.999999    0.00011003
  145      -16.3806949606      -0.0000001396     0.999999    0.00010932
  146      -16.3806950983      -0.0000001377     0.999999    0.00010862
  147      -16.3806952341      -0.0000001358     0.999999    0.00010793
  148      -16.3806953681      -0.0000001340     0.999999    0.00010725
  149      -16.3806955002      -0.0000001322     0.999999    0.00010657
  150      -16.3806956306      -0.0000001304     0.999999    0.00010590
  151      -16.3806957592      -0.0000001286     0.999999    0.00010524
  152      -16.3806958862      -0.0000001269     0.999999    0.00010458
  153      -16.3806960114      -0.0000001253     0.999999    0.00010394
  154      -16.3806961350      -0.0000001236     0.999999    0.00010330
  155      -16.3806962570      -0.0000001220     0.999999    0.00010266
  156      -16.3806963774      -0.0000001204     0.999999    0.00010204
  157      -16.3806964963      -0.0000001188     0.999999    0.00010142
  158      -16.3806966136      -0.0000001173     0.999999    0.00010080
  159      -16.3806967294      -0.0000001158     0.999999    0.00010020
  160      -16.3806968437      -0.0000001143     0.999999    0.00009959
  161      -16.3806969566      -0.0000001129     0.999999    0.00009900
  162      -16.3806970680      -0.0000001114     0.999999    0.00009841
  163      -16.3806971781      -0.0000001100     0.999999    0.00009783
  164      -16.3806972867      -0.0000001087     0.999999    0.00009726
  165      -16.3806973941      -0.0000001073     0.999999    0.00009669
  166      -16.3806975000      -0.0000001060     0.999999    0.00009612
  167      -16.3806976047      -0.0000001047     0.999999    0.00009556
  168      -16.3806977081      -0.0000001034     0.999999    0.00009501
  169      -16.3806978102      -0.0000001021     0.999999    0.00009447
  170      -16.3806979111      -0.0000001009     0.999999    0.00009393
  171      -16.3806980108      -0.0000000997     0.999999    0.00009339
  172      -16.3806981092      -0.0000000985     0.999999    0.00009286
  173      -16.3806982065      -0.0000000973     0.999999    0.00009234
  174      -16.3806983026      -0.0000000961     0.999999    0.00009182
  175      -16.3806983976      -0.0000000950     0.999999    0.00009130
  176      -16.3806984914      -0.0000000939     0.999999    0.00009080
  177      -16.3806985842      -0.0000000927     0.999999    0.00009029
  178      -16.3806986758      -0.0000000917     0.999999    0.00008979
  179      -16.3806987664      -0.0000000906     0.999999    0.00008930
  180      -16.3806988560      -0.0000000895     0.999999    0.00008881
  181      -16.3806989445      -0.0000000885     0.999999    0.00008833
  182      -16.3806990320      -0.0000000875     0.999999    0.00008785
  183      -16.3806991185      -0.0000000865     0.999999    0.00008738
  184      -16.3806992040      -0.0000000855     0.999999    0.00008691
  185      -16.3806992885      -0.0000000845     0.999999    0.00008645
  186      -16.3806993721      -0.0000000836     0.999999    0.00008599
  187      -16.3806994548      -0.0000000827     0.999999    0.00008553
  188      -16.3806995365      -0.0000000817     0.999999    0.00008508
  189      -16.3806996174      -0.0000000808     0.999999    0.00008464
  190      -16.3806996973      -0.0000000799     0.999999    0.00008420
  191      -16.3806997764      -0.0000000791     0.999999    0.00008376
  192      -16.3806998545      -0.0000000782     0.999999    0.00008333
  193      -16.3806999319      -0.0000000773     0.999999    0.00008290
  194      -16.3807000084      -0.0000000765     0.999999    0.00008247
  195      -16.3807000841      -0.0000000757     0.999999    0.00008205
  196      -16.3807001589      -0.0000000749     0.999999    0.00008164
  197      -16.3807002330      -0.0000000741     0.999999    0.00008122
  198      -16.3807003063      -0.0000000733     0.999999    0.00008082
  199      -16.3807003788      -0.0000000725     0.999999    0.00008041
  200      -16.3807004505      -0.0000000717     0.999999    0.00008001
  201      -16.3807005215      -0.0000000710     0.999999    0.00007961
  202      -16.3807005918      -0.0000000702     0.999999    0.00007922
  203      -16.3807006613      -0.0000000695     0.999999    0.00007883
  204      -16.3807007301      -0.0000000688     0.999999    0.00007845
  205      -16.3807007982      -0.0000000681     0.999999    0.00007807
  206      -16.3807008656      -0.0000000674     0.999999    0.00007769
  207      -16.3807009323      -0.0000000667     0.999999    0.00007732
  208      -16.3807009983      -0.0000000660     0.999999    0.00007694
  209      -16.3807010637      -0.0000000654     0.999999    0.00007658
  210      -16.3807011284      -0.0000000647     0.999999    0.00007621
  211      -16.3807011925      -0.0000000641     0.999999    0.00007585
  212      -16.3807012559      -0.0000000634     0.999999    0.00007550
  213      -16.3807013187      -0.0000000628     0.999999    0.00007514
  214      -16.3807013809      -0.0000000622     0.999999    0.00007479
  215      -16.3807014425      -0.0000000616     0.999999    0.00007445
  216      -16.3807015035      -0.0000000610     0.999999    0.00007410
  217      -16.3807015639      -0.0000000604     0.999999    0.00007376
  218      -16.3807016237      -0.0000000598     0.999999    0.00007343
  219      -16.3807016829      -0.0000000592     0.999999    0.00007309
  220      -16.3807017416      -0.0000000587     0.999999    0.00007276
  221      -16.3807017997      -0.0000000581     0.999999    0.00007243
  222      -16.3807018572      -0.0000000576     0.999999    0.00007211
  223      -16.3807019143      -0.0000000570     0.999999    0.00007179
  224      -16.3807019707      -0.0000000565     0.999999    0.00007147
  225      -16.3807020267      -0.0000000560     0.999999    0.00007115
  226      -16.3807020821      -0.0000000554     0.999999    0.00007084
  227      -16.3807021371      -0.0000000549     0.999999    0.00007053
  228      -16.3807021915      -0.0000000544     0.999999    0.00007022
  229      -16.3807022454      -0.0000000539     0.999999    0.00006992
  230      -16.3807022989      -0.0000000534     0.999999    0.00006962
  231      -16.3807023518      -0.0000000530     0.999999    0.00006932
  232      -16.3807024043      -0.0000000525     0.999999    0.00006902
  233      -16.3807024563      -0.0000000520     0.999999    0.00006873
  234      -16.3807025078      -0.0000000515     0.999999    0.00006844
  235      -16.3807025589      -0.0000000511     0.999999    0.00006815
  236      -16.3807026095      -0.0000000506     0.999999    0.00006786
  237      -16.3807026597      -0.0000000502     0.999999    0.00006758
  238      -16.3807027095      -0.0000000497     0.999999    0.00006730
  239      -16.3807027588      -0.0000000493     0.999999    0.00006702
  240      -16.3807028077      -0.0000000489     0.999999    0.00006675
  241      -16.3807028561      -0.0000000485     0.999999    0.00006647
  242      -16.3807029042      -0.0000000481     0.999999    0.00006620
  243      -16.3807029518      -0.0000000476     0.999999    0.00006593
  244      -16.3807029991      -0.0000000472     0.999999    0.00006567
  245      -16.3807030459      -0.0000000468     0.999999    0.00006541
  246      -16.3807030924      -0.0000000464     0.999999    0.00006514
  247      -16.3807031384      -0.0000000461     0.999999    0.00006489
  248      -16.3807031841      -0.0000000457     0.999999    0.00006463
  249      -16.3807032294      -0.0000000453     0.999999    0.00006438
  250      -16.3807032743      -0.0000000449     0.999999    0.00006412
  251      -16.3807033189      -0.0000000446     0.999999    0.00006387
  252      -16.3807033631      -0.0000000442     0.999999    0.00006363
  253      -16.3807034069      -0.0000000438     0.999999    0.00006338
  254      -16.3807034504      -0.0000000435     0.999999    0.00006314
  255      -16.3807034935      -0.0000000431     0.999999    0.00006290
  256      -16.3807035363      -0.0000000428     0.999999    0.00006266
  257      -16.3807035787      -0.0000000424     0.999999    0.00006242
  258      -16.3807036208      -0.0000000421     0.999999    0.00006219
  259      -16.3807036626      -0.0000000418     0.999999    0.00006196
  260      -16.3807037041      -0.0000000415     0.999999    0.00006173
  261      -16.3807037452      -0.0000000411     0.999999    0.00006150
  262      -16.3807037860      -0.0000000408     0.999999    0.00006127
  263      -16.3807038265      -0.0000000405     0.999999    0.00006105
  264      -16.3807038667      -0.0000000402     0.999999    0.00006083
  265      -16.3807039066      -0.0000000399     0.999999    0.00006061
  266      -16.3807039462      -0.0000000396     0.999999    0.00006039
  267      -16.3807039854      -0.0000000393     0.999999    0.00006017
  268      -16.3807040244      -0.0000000390     0.999999    0.00005996
  269      -16.3807040631      -0.0000000387     0.999999    0.00005974
  270      -16.3807041015      -0.0000000384     0.999999    0.00005953
  271      -16.3807041396      -0.0000000381     0.999999    0.00005932
  272      -16.3807041775      -0.0000000378     0.999999    0.00005912
  273      -16.3807042151      -0.0000000376     0.999999    0.00005891
  274      -16.3807042523      -0.0000000373     0.999999    0.00005871
  275      -16.3807042894      -0.0000000370     0.999999    0.00005851
  276      -16.3807043261      -0.0000000368     0.999999    0.00005831
  277      -16.3807043626      -0.0000000365     0.999999    0.00005811
  278      -16.3807043988      -0.0000000362     0.999999    0.00005791
  279      -16.3807044348      -0.0000000360     0.999999    0.00005772
  280      -16.3807044705      -0.0000000357     0.999999    0.00005752
  281      -16.3807045060      -0.0000000355     0.999999    0.00005733
  282      -16.3807045412      -0.0000000352     0.999999    0.00005714
  283      -16.3807045762      -0.0000000350     0.999999    0.00005695
  284      -16.3807046110      -0.0000000347     0.999999    0.00005677
  285      -16.3807046455      -0.0000000345     0.999999    0.00005658
  286      -16.3807046797      -0.0000000343     0.999999    0.00005640
  287      -16.3807047137      -0.0000000340     0.999999    0.00005622
  288      -16.3807047476      -0.0000000338     0.999999    0.00005604
  289      -16.3807047811      -0.0000000336     0.999999    0.00005586
  290      -16.3807048145      -0.0000000334     0.999999    0.00005568
  291      -16.3807048476      -0.0000000331     0.999999    0.00005551
  292      -16.3807048805      -0.0000000329     0.999999    0.00005533
  293      -16.3807049132      -0.0000000327     0.999999    0.00005516
  294      -16.3807049457      -0.0000000325     0.999999    0.00005499
  295      -16.3807049780      -0.0000000323     0.999999    0.00005482
  296      -16.3807050100      -0.0000000321     0.999999    0.00005465
  297      -16.3807050419      -0.0000000319     0.999999    0.00005448
  298      -16.3807050735      -0.0000000317     0.999999    0.00005432
  299      -16.3807051050      -0.0000000315     0.999999    0.00005415
  300      -16.3807051362      -0.0000000313     0.999999    0.00005399
  301      -16.3807051673      -0.0000000311     0.999999    0.00005383
  302      -16.3807051982      -0.0000000309     0.999999    0.00005367
  303      -16.3807052288      -0.0000000307     0.999999    0.00005351
  304      -16.3807052593      -0.0000000305     0.999999    0.00005336
  305      -16.3807052896      -0.0000000303     0.999999    0.00005320
  306      -16.3807053197      -0.0000000301     0.999999    0.00005305
  307      -16.3807053496      -0.0000000299     0.999999    0.00005289
  308      -16.3807053794      -0.0000000297     0.999999    0.00005274
  309      -16.3807054090      -0.0000000296     0.999999    0.00005259
  310      -16.3807054384      -0.0000000294     0.999999    0.00005244
  311      -16.3807054676      -0.0000000292     0.999999    0.00005230
  312      -16.3807054966      -0.0000000290     0.999999    0.00005215
  313      -16.3807055255      -0.0000000289     0.999999    0.00005201
  314      -16.3807055542      -0.0000000287     0.999999    0.00005186
  315      -16.3807055827      -0.0000000285     0.999999    0.00005172
  316      -16.3807056111      -0.0000000284     0.999999    0.00005158
  317      -16.3807056393      -0.0000000282     0.999999    0.00005144
  318      -16.3807056674      -0.0000000281     0.999999    0.00005130
  319      -16.3807056953      -0.0000000279     0.999999    0.00005116
  320      -16.3807057230      -0.0000000277     0.999999    0.00005103
  321      -16.3807057506      -0.0000000276     0.999999    0.00005089
  322      -16.3807057780      -0.0000000274     0.999999    0.00005076
  323      -16.3807058053      -0.0000000273     0.999999    0.00005063
  324      -16.3807058324      -0.0000000271     0.999999    0.00005049
  325      -16.3807058594      -0.0000000270     0.999999    0.00005036
  326      -16.3807058863      -0.0000000268     0.999999    0.00005023
  327      -16.3807059129      -0.0000000267     0.999999    0.00005011
  328      -16.3807059395      -0.0000000265     0.999999    0.00004998
  329      -16.3807059659      -0.0000000264     0.999999    0.00004985
  330      -16.3807059922      -0.0000000263     0.999999    0.00004973
  331      -16.3807060183      -0.0000000261     0.999999    0.00004960
  332      -16.3807060443      -0.0000000260     0.999999    0.00004948
  333      -16.3807060701      -0.0000000259     0.999999    0.00004936
  334      -16.3807060959      -0.0000000257     0.999999    0.00004924
  335      -16.3807061215      -0.0000000256     0.999999    0.00004912
  336      -16.3807061469      -0.0000000255     0.999999    0.00004900
  337      -16.3807061723      -0.0000000253     0.999999    0.00004889
  338      -16.3807061975      -0.0000000252     0.999999    0.00004877
  339      -16.3807062225      -0.0000000251     0.999999    0.00004865
  340      -16.3807062475      -0.0000000250     0.999999    0.00004854
  341      -16.3807062723      -0.0000000248     0.999999    0.00004843
  342      -16.3807062970      -0.0000000247     0.999999    0.00004832
  343      -16.3807063216      -0.0000000246     0.999999    0.00004820
  344      -16.3807063461      -0.0000000245     0.999999    0.00004809
  345      -16.3807063705      -0.0000000244     0.999999    0.00004799
  346      -16.3807063947      -0.0000000242     0.999999    0.00004788
  347      -16.3807064188      -0.0000000241     0.999999    0.00004777
  348      -16.3807064428      -0.0000000240     0.999999    0.00004767
  349      -16.3807064667      -0.0000000239     0.999999    0.00004756
  350      -16.3807064905      -0.0000000238     0.999999    0.00004746
  351      -16.3807065142      -0.0000000237     0.999999    0.00004735
  352      -16.3807065378      -0.0000000236     0.999999    0.00004725
  353      -16.3807065612      -0.0000000235     0.999999    0.00004715
  354      -16.3807065846      -0.0000000234     0.999999    0.00004705
  355      -16.3807066078      -0.0000000233     0.999999    0.00004695
  356      -16.3807066310      -0.0000000231     0.999999    0.00004685
  357      -16.3807066540      -0.0000000230     0.999999    0.00004675
  358      -16.3807066770      -0.0000000229     0.999999    0.00004666
  359      -16.3807066998      -0.0000000228     0.999999    0.00004656
  360      -16.3807067226      -0.0000000227     0.999999    0.00004647
  361      -16.3807067452      -0.0000000226     0.999999    0.00004637
  362      -16.3807067678      -0.0000000226     0.999999    0.00004628
  363      -16.3807067902      -0.0000000225     0.999999    0.00004619
  364      -16.3807068126      -0.0000000224     0.999999    0.00004610
  365      -16.3807068349      -0.0000000223     0.999999    0.00004601
  366      -16.3807068570      -0.0000000222     0.999999    0.00004592
  367      -16.3807068791      -0.0000000221     0.999999    0.00004583
  368      -16.3807069011      -0.0000000220     0.999999    0.00004574
  369      -16.3807069230      -0.0000000219     0.999999    0.00004565
  370      -16.3807069449      -0.0000000218     0.999999    0.00004557
  371      -16.3807069666      -0.0000000217     0.999999    0.00004548
  372      -16.3807069882      -0.0000000216     0.999999    0.00004540
  373      -16.3807070098      -0.0000000216     0.999999    0.00004531
  374      -16.3807070313      -0.0000000215     0.999999    0.00004523
  375      -16.3807070527      -0.0000000214     0.999999    0.00004515
  376      -16.3807070740      -0.0000000213     0.999999    0.00004507
  377      -16.3807070952      -0.0000000212     0.999999    0.00004499
  378      -16.3807071164      -0.0000000212     0.999999    0.00004491
  379      -16.3807071374      -0.0000000211     0.999999    0.00004483
  380      -16.3807071584      -0.0000000210     0.999999    0.00004475
  381      -16.3807071794      -0.0000000209     0.999999    0.00004468
  382      -16.3807072002      -0.0000000208     0.999999    0.00004460
  383      -16.3807072210      -0.0000000208     0.999999    0.00004452
  384      -16.3807072416      -0.0000000207     0.999999    0.00004445
  385      -16.3807072623      -0.0000000206     0.999999    0.00004438
  386      -16.3807072828      -0.0000000205     0.999999    0.00004430
  387      -16.3807073033      -0.0000000205     0.999999    0.00004423
  388      -16.3807073237      -0.0000000204     0.999999    0.00004416
  389      -16.3807073440      -0.0000000203     0.999999    0.00004409
  390      -16.3807073643      -0.0000000203     0.999999    0.00004402
  391      -16.3807073845      -0.0000000202     0.999999    0.00004395
  392      -16.3807074046      -0.0000000201     0.999999    0.00004388
  393      -16.3807074247      -0.0000000201     0.999999    0.00004381
  394      -16.3807074446      -0.0000000200     0.999999    0.00004374
  395      -16.3807074646      -0.0000000199     0.999999    0.00004368
  396      -16.3807074844      -0.0000000199     0.999999    0.00004361
  397      -16.3807075042      -0.0000000198     0.999999    0.00004355
  398      -16.3807075240      -0.0000000197     0.999999    0.00004348
  399      -16.3807075437      -0.0000000197     0.999999    0.00004342
  400      -16.3807075633      -0.0000000196     0.999999    0.00004336
  401      -16.3807075828      -0.0000000196     0.999999    0.00004330
  402      -16.3807076023      -0.0000000195     0.999999    0.00004323
  403      -16.3807076217      -0.0000000194     0.999999    0.00004317
  404      -16.3807076411      -0.0000000194     0.999999    0.00004311
  405      -16.3807076604      -0.0000000193     0.999999    0.00004305
  406      -16.3807076797      -0.0000000193     0.999999    0.00004300
  407      -16.3807076989      -0.0000000192     0.999999    0.00004294
  408      -16.3807077181      -0.0000000192     0.999999    0.00004288
  409      -16.3807077372      -0.0000000191     0.999999    0.00004282
  410      -16.3807077562      -0.0000000190     0.999999    0.00004277
  411      -16.3807077752      -0.0000000190     0.999999    0.00004271
  412      -16.3807077941      -0.0000000189     0.999999    0.00004266
  413      -16.3807078130      -0.0000000189     0.999999    0.00004260
  414      -16.3807078318      -0.0000000188     0.999999    0.00004255
  415      -16.3807078506      -0.0000000188     0.999999    0.00004250
  416      -16.3807078694      -0.0000000187     0.999999    0.00004245
  417      -16.3807078880      -0.0000000187     0.999999    0.00004240
  418      -16.3807079067      -0.0000000186     0.999999    0.00004235
  419      -16.3807079253      -0.0000000186     0.999999    0.00004230
  420      -16.3807079438      -0.0000000185     0.999999    0.00004225
  421      -16.3807079623      -0.0000000185     0.999999    0.00004220
  422      -16.3807079807      -0.0000000184     0.999999    0.00004215
  423      -16.3807079991      -0.0000000184     0.999999    0.00004210
  424      -16.3807080175      -0.0000000184     0.999999    0.00004206
  425      -16.3807080358      -0.0000000183     0.999999    0.00004201
  426      -16.3807080541      -0.0000000183     0.999999    0.00004197
  427      -16.3807080723      -0.0000000182     0.999999    0.00004192
  428      -16.3807080905      -0.0000000182     0.999999    0.00004188
  429      -16.3807081087      -0.0000000181     0.999999    0.00004183
  430      -16.3807081268      -0.0000000181     0.999999    0.00004179
  431      -16.3807081448      -0.0000000181     0.999999    0.00004175
  432      -16.3807081628      -0.0000000180     0.999999    0.00004171
  433      -16.3807081808      -0.0000000180     0.999999    0.00004167
  434      -16.3807081988      -0.0000000179     0.999999    0.00004163
  435      -16.3807082167      -0.0000000179     0.999999    0.00004159
  436      -16.3807082346      -0.0000000179     0.999999    0.00004155
  437      -16.3807082524      -0.0000000178     0.999999    0.00004151
  438      -16.3807082702      -0.0000000178     0.999999    0.00004147
  439      -16.3807082880      -0.0000000178     0.999999    0.00004144
  440      -16.3807083057      -0.0000000177     0.999999    0.00004140
  441      -16.3807083234      -0.0000000177     0.999999    0.00004136
  442      -16.3807083411      -0.0000000177     0.999999    0.00004133
  443      -16.3807083587      -0.0000000176     0.999999    0.00004129
  444      -16.3807083763      -0.0000000176     0.999999    0.00004126
  445      -16.3807083938      -0.0000000176     0.999999    0.00004123
  446      -16.3807084114      -0.0000000175     0.999999    0.00004119
  447      -16.3807084289      -0.0000000175     0.999999    0.00004116
  448      -16.3807084464      -0.0000000175     0.999999    0.00004113
  449      -16.3807084638      -0.0000000174     0.999999    0.00004110
  450      -16.3807084812      -0.0000000174     0.999999    0.00004107
  451      -16.3807084986      -0.0000000174     0.999999    0.00004104
  452      -16.3807085159      -0.0000000174     0.999999    0.00004101
  453      -16.3807085333      -0.0000000173     0.999999    0.00004098
  454      -16.3807085506      -0.0000000173     0.999999    0.00004095
  455      -16.3807085678      -0.0000000173     0.999999    0.00004093
  456      -16.3807085851      -0.0000000172     0.999999    0.00004090
  457      -16.3807086023      -0.0000000172     0.999999    0.00004087
  458      -16.3807086195      -0.0000000172     0.999999    0.00004085
  459      -16.3807086367      -0.0000000172     0.999999    0.00004082
  460      -16.3807086538      -0.0000000171     0.999999    0.00004080
  461      -16.3807086710      -0.0000000171     0.999999    0.00004077
  462      -16.3807086881      -0.0000000171     0.999999    0.00004075
  463      -16.3807087051      -0.0000000171     0.999999    0.00004073
  464      -16.3807087222      -0.0000000171     0.999999    0.00004070
  465      -16.3807087392      -0.0000000170     0.999999    0.00004068
  466      -16.3807087563      -0.0000000170     0.999999    0.00004066
  467      -16.3807087732      -0.0000000170     0.999999    0.00004064
  468      -16.3807087902      -0.0000000170     0.999999    0.00004062
  469      -16.3807088072      -0.0000000170     0.999999    0.00004060
  470      -16.3807088241      -0.0000000169     0.999999    0.00004058
  471      -16.3807088410      -0.0000000169     0.999999    0.00004056
  472      -16.3807088579      -0.0000000169     0.999999    0.00004055
  473      -16.3807088748      -0.0000000169     0.999999    0.00004053
  474      -16.3807088917      -0.0000000169     0.999999    0.00004051
  475      -16.3807089085      -0.0000000168     0.999999    0.00004050
  476      -16.3807089254      -0.0000000168     0.999999    0.00004048
  477      -16.3807089422      -0.0000000168     0.999999    0.00004047
  478      -16.3807089590      -0.0000000168     0.999999    0.00004045
  479      -16.3807089758      -0.0000000168     0.999999    0.00004044
  480      -16.3807089925      -0.0000000168     0.999999    0.00004042
  481      -16.3807090093      -0.0000000168     0.999999    0.00004041
  482      -16.3807090261      -0.0000000167     0.999999    0.00004040
  483      -16.3807090428      -0.0000000167     0.999999    0.00004039
  484      -16.3807090595      -0.0000000167     0.999999    0.00004038
  485      -16.3807090762      -0.0000000167     0.999999    0.00004037
  486      -16.3807090929      -0.0000000167     0.999999    0.00004036
  487      -16.3807091096      -0.0000000167     0.999999    0.00004035
  488      -16.3807091263      -0.0000000167     0.999999    0.00004034
  489      -16.3807091430      -0.0000000167     0.999999    0.00004033
  490      -16.3807091596      -0.0000000167     0.999999    0.00004032
  491      -16.3807091763      -0.0000000167     0.999999    0.00004032
  492      -16.3807091929      -0.0000000166     0.999999    0.00004031
  493      -16.3807092095      -0.0000000166     0.999999    0.00004030
  494      -16.3807092262      -0.0000000166     0.999999    0.00004030
  495      -16.3807092428      -0.0000000166     0.999999    0.00004029
  496      -16.3807092594      -0.0000000166     0.999999    0.00004029
  497      -16.3807092760      -0.0000000166     0.999999    0.00004029
  498      -16.3807092926      -0.0000000166     0.999999    0.00004028
  499      -16.3807093092      -0.0000000166     0.999999    0.00004028
  500      -16.3807093258      -0.0000000166     0.999999    0.00004028
  501      -16.3807093424      -0.0000000166     0.999999    0.00004028
  502      -16.3807093590      -0.0000000166     0.999999    0.00004028
  503      -16.3807093755      -0.0000000166     0.999999    0.00004028
  504      -16.3807093921      -0.0000000166     0.999999    0.00004028
  505      -16.3807094087      -0.0000000166     0.999999    0.00004028
  506      -16.3807094253      -0.0000000166     0.999999    0.00004028
  507      -16.3807094418      -0.0000000166     0.999999    0.00004028
  508      -16.3807094584      -0.0000000166     0.999999    0.00004028
  509      -16.3807094750      -0.0000000166     0.999999    0.00004029
  510      -16.3807094916      -0.0000000166     0.999999    0.00004029
  511      -16.3807095081      -0.0000000166     0.999999    0.00004029
  512      -16.3807095247      -0.0000000166     0.999999    0.00004030
  513      -16.3807095413      -0.0000000166     0.999999    0.00004030
  514      -16.3807095579      -0.0000000166     0.999999    0.00004031
  515      -16.3807095744      -0.0000000166     0.999999    0.00004032
  516      -16.3807095910      -0.0000000166     0.999999    0.00004032
  517      -16.3807096076      -0.0000000166     0.999999    0.00004033
  518      -16.3807096242      -0.0000000166     0.999999    0.00004034
  519      -16.3807096408      -0.0000000166     0.999999    0.00004035
  520      -16.3807096574      -0.0000000166     0.999999    0.00004036
  521      -16.3807096740      -0.0000000166     0.999999    0.00004037
  522      -16.3807096906      -0.0000000166     0.999999    0.00004038
  523      -16.3807097072      -0.0000000166     0.999999    0.00004039
  524      -16.3807097238      -0.0000000166     0.999999    0.00004040
  525      -16.3807097404      -0.0000000166     0.999999    0.00004041
  526      -16.3807097571      -0.0000000166     0.999999    0.00004042
  527      -16.3807097737      -0.0000000166     0.999999    0.00004044
  528      -16.3807097904      -0.0000000167     0.999999    0.00004045
  529      -16.3807098070      -0.0000000167     0.999999    0.00004046
  530      -16.3807098237      -0.0000000167     0.999999    0.00004048
  531      -16.3807098404      -0.0000000167     0.999999    0.00004049
  532      -16.3807098571      -0.0000000167     0.999999    0.00004051
  533      -16.3807098738      -0.0000000167     0.999999    0.00004053
  534      -16.3807098905      -0.0000000167     0.999999    0.00004054
  535      -16.3807099072      -0.0000000167     0.999999    0.00004056
  536      -16.3807099239      -0.0000000167     0.999999    0.00004058
  537      -16.3807099407      -0.0000000167     0.999999    0.00004060
  538      -16.3807099574      -0.0000000168     0.999999    0.00004062
  539      -16.3807099742      -0.0000000168     0.999999    0.00004064
  540      -16.3807099910      -0.0000000168     0.999999    0.00004066
  541      -16.3807100078      -0.0000000168     0.999999    0.00004068
  542      -16.3807100246      -0.0000000168     0.999999    0.00004070
  543      -16.3807100414      -0.0000000168     0.999999    0.00004072
  544      -16.3807100583      -0.0000000168     0.999999    0.00004075
  545      -16.3807100752      -0.0000000169     0.999999    0.00004077
  546      -16.3807100920      -0.0000000169     0.999999    0.00004079
  547      -16.3807101089      -0.0000000169     0.999999    0.00004082
  548      -16.3807101259      -0.0000000169     0.999999    0.00004084
  549      -16.3807101428      -0.0000000169     0.999999    0.00004087
  550      -16.3807101598      -0.0000000170     0.999999    0.00004090
  551      -16.3807101767      -0.0000000170     0.999999    0.00004092
  552      -16.3807101937      -0.0000000170     0.999999    0.00004095
  553      -16.3807102108      -0.0000000170     0.999999    0.00004098
  554      -16.3807102278      -0.0000000170     0.999999    0.00004101
  555      -16.3807102449      -0.0000000171     0.999999    0.00004104
  556      -16.3807102619      -0.0000000171     0.999999    0.00004107
  557      -16.3807102790      -0.0000000171     0.999999    0.00004110
  558      -16.3807102962      -0.0000000171     0.999999    0.00004113
  559      -16.3807103133      -0.0000000172     0.999999    0.00004116
  560      -16.3807103305      -0.0000000172     0.999999    0.00004120
  561      -16.3807103477      -0.0000000172     0.999999    0.00004123
  562      -16.3807103649      -0.0000000172     0.999999    0.00004126
  563      -16.3807103822      -0.0000000173     0.999999    0.00004130
  564      -16.3807103995      -0.0000000173     0.999999    0.00004133
  565      -16.3807104168      -0.0000000173     0.999999    0.00004137
  566      -16.3807104341      -0.0000000173     0.999999    0.00004140
  567      -16.3807104515      -0.0000000174     0.999999    0.00004144
  568      -16.3807104689      -0.0000000174     0.999999    0.00004148
  569      -16.3807104863      -0.0000000174     0.999999    0.00004152
  570      -16.3807105037      -0.0000000175     0.999999    0.00004156
  571      -16.3807105212      -0.0000000175     0.999999    0.00004160
  572      -16.3807105387      -0.0000000175     0.999999    0.00004164
  573      -16.3807105563      -0.0000000175     0.999999    0.00004168
  574      -16.3807105738      -0.0000000176     0.999999    0.00004172
  575      -16.3807105915      -0.0000000176     0.999999    0.00004176
  576      -16.3807106091      -0.0000000176     0.999999    0.00004180
  577      -16.3807106268      -0.0000000177     0.999999    0.00004185
  578      -16.3807106445      -0.0000000177     0.999999    0.00004189
  579      -16.3807106622      -0.0000000177     0.999999    0.00004194
  580      -16.3807106800      -0.0000000178     0.999999    0.00004198
  581      -16.3807106978      -0.0000000178     0.999999    0.00004203
  582      -16.3807107157      -0.0000000179     0.999999    0.00004207
  583      -16.3807107336      -0.0000000179     0.999999    0.00004212
  584      -16.3807107515      -0.0000000179     0.999999    0.00004217
  585      -16.3807107695      -0.0000000180     0.999999    0.00004222
  586      -16.3807107875      -0.0000000180     0.999999    0.00004227
  587      -16.3807108055      -0.0000000180     0.999999    0.00004232
  588      -16.3807108236      -0.0000000181     0.999999    0.00004237
  589      -16.3807108417      -0.0000000181     0.999999    0.00004242
  590      -16.3807108599      -0.0000000182     0.999999    0.00004247
  591      -16.3807108781      -0.0000000182     0.999999    0.00004253
  592      -16.3807108963      -0.0000000183     0.999999    0.00004258
  593      -16.3807109146      -0.0000000183     0.999999    0.00004263
  594      -16.3807109330      -0.0000000183     0.999999    0.00004269
  595      -16.3807109514      -0.0000000184     0.999999    0.00004274
  596      -16.3807109698      -0.0000000184     0.999999    0.00004280
  597      -16.3807109883      -0.0000000185     0.999999    0.00004286
  598      -16.3807110068      -0.0000000185     0.999999    0.00004292
  599      -16.3807110254      -0.0000000186     0.999999    0.00004298
  600      -16.3807110440      -0.0000000186     0.999999    0.00004303
  601      -16.3807110627      -0.0000000187     0.999999    0.00004309
  602      -16.3807110814      -0.0000000187     0.999999    0.00004316
  603      -16.3807111002      -0.0000000188     0.999999    0.00004322
  604      -16.3807111190      -0.0000000188     0.999999    0.00004328
  605      -16.3807111379      -0.0000000189     0.999999    0.00004334
  606      -16.3807111568      -0.0000000189     0.999999    0.00004341
  607      -16.3807111758      -0.0000000190     0.999999    0.00004347
  608      -16.3807111948      -0.0000000190     0.999999    0.00004354
  609      -16.3807112139      -0.0000000191     0.999999    0.00004360
  610      -16.3807112330      -0.0000000191     0.999999    0.00004367
  611      -16.3807112522      -0.0000000192     0.999999    0.00004374
  612      -16.3807112715      -0.0000000193     0.999999    0.00004381
  613      -16.3807112908      -0.0000000193     0.999999    0.00004388
  614      -16.3807113102      -0.0000000194     0.999999    0.00004395
  615      -16.3807113296      -0.0000000194     0.999999    0.00004402
  616      -16.3807113491      -0.0000000195     0.999999    0.00004409
  617      -16.3807113687      -0.0000000196     0.999999    0.00004416
  618      -16.3807113883      -0.0000000196     0.999999    0.00004423
  619      -16.3807114080      -0.0000000197     0.999999    0.00004431
  620      -16.3807114277      -0.0000000197     0.999999    0.00004438
  621      -16.3807114475      -0.0000000198     0.999999    0.00004446
  622      -16.3807114674      -0.0000000199     0.999999    0.00004454
  623      -16.3807114873      -0.0000000199     0.999999    0.00004461
  624      -16.3807115074      -0.0000000200     0.999999    0.00004469
  625      -16.3807115274      -0.0000000201     0.999999    0.00004477
  626      -16.3807115476      -0.0000000201     0.999999    0.00004485
  627      -16.3807115678      -0.0000000202     0.999999    0.00004493
  628      -16.3807115881      -0.0000000203     0.999999    0.00004501
  629      -16.3807116084      -0.0000000204     0.999999    0.00004509
  630      -16.3807116288      -0.0000000204     0.999999    0.00004518
  631      -16.3807116493      -0.0000000205     0.999999    0.00004526
  632      -16.3807116699      -0.0000000206     0.999999    0.00004535
  633      -16.3807116906      -0.0000000206     0.999999    0.00004543
  634      -16.3807117113      -0.0000000207     0.999999    0.00004552
  635      -16.3807117321      -0.0000000208     0.999999    0.00004561
  636      -16.3807117530      -0.0000000209     0.999999    0.00004570
  637      -16.3807117739      -0.0000000210     0.999999    0.00004579
  638      -16.3807117949      -0.0000000210     0.999999    0.00004588
  639      -16.3807118161      -0.0000000211     0.999999    0.00004597
  640      -16.3807118373      -0.0000000212     0.999999    0.00004606
  641      -16.3807118585      -0.0000000213     0.999999    0.00004616
  642      -16.3807118799      -0.0000000214     0.999999    0.00004625
  643      -16.3807119014      -0.0000000214     0.999999    0.00004635
  644      -16.3807119229      -0.0000000215     0.999999    0.00004644
  645      -16.3807119445      -0.0000000216     0.999999    0.00004654
  646      -16.3807119662      -0.0000000217     0.999999    0.00004664
  647      -16.3807119880      -0.0000000218     0.999999    0.00004674
  648      -16.3807120099      -0.0000000219     0.999999    0.00004684
  649      -16.3807120319      -0.0000000220     0.999999    0.00004694
  650      -16.3807120540      -0.0000000221     0.999999    0.00004704
  651      -16.3807120761      -0.0000000222     0.999999    0.00004714
  652      -16.3807120984      -0.0000000223     0.999999    0.00004725
  653      -16.3807121207      -0.0000000224     0.999999    0.00004735
  654      -16.3807121432      -0.0000000225     0.999999    0.00004746
  655      -16.3807121657      -0.0000000226     0.999999    0.00004757
  656      -16.3807121884      -0.0000000227     0.999999    0.00004767
  657      -16.3807122111      -0.0000000228     0.999999    0.00004778
  658      -16.3807122340      -0.0000000229     0.999999    0.00004789
  659      -16.3807122570      -0.0000000230     0.999999    0.00004801
  660      -16.3807122800      -0.0000000231     0.999999    0.00004812
  661      -16.3807123032      -0.0000000232     0.999999    0.00004823
  662      -16.3807123265      -0.0000000233     0.999999    0.00004835
  663      -16.3807123498      -0.0000000234     0.999999    0.00004846
  664      -16.3807123733      -0.0000000235     0.999999    0.00004858
  665      -16.3807123969      -0.0000000236     0.999999    0.00004870
  666      -16.3807124206      -0.0000000237     0.999999    0.00004882
  667      -16.3807124445      -0.0000000238     0.999999    0.00004894
  668      -16.3807124684      -0.0000000239     0.999999    0.00004906
  669      -16.3807124925      -0.0000000241     0.999999    0.00004918
  670      -16.3807125166      -0.0000000242     0.999999    0.00004931
  671      -16.3807125409      -0.0000000243     0.999999    0.00004943
  672      -16.3807125654      -0.0000000244     0.999999    0.00004956
  673      -16.3807125899      -0.0000000245     0.999999    0.00004969
  674      -16.3807126145      -0.0000000247     0.999999    0.00004982
  675      -16.3807126393      -0.0000000248     0.999999    0.00004995
  676      -16.3807126642      -0.0000000249     0.999999    0.00005008
  677      -16.3807126893      -0.0000000250     0.999999    0.00005021
  678      -16.3807127145      -0.0000000252     0.999999    0.00005034
  679      -16.3807127398      -0.0000000253     0.999999    0.00005048
  680      -16.3807127652      -0.0000000254     0.999999    0.00005061
  681      -16.3807127908      -0.0000000256     0.999999    0.00005075
  682      -16.3807128165      -0.0000000257     0.999999    0.00005089
  683      -16.3807128423      -0.0000000258     0.999999    0.00005103
  684      -16.3807128683      -0.0000000260     0.999999    0.00005117
  685      -16.3807128944      -0.0000000261     0.999999    0.00005132
  686      -16.3807129207      -0.0000000263     0.999999    0.00005146
  687      -16.3807129471      -0.0000000264     0.999999    0.00005161
  688      -16.3807129736      -0.0000000266     0.999999    0.00005175
  689      -16.3807130003      -0.0000000267     0.999999    0.00005190
  690      -16.3807130272      -0.0000000269     0.999999    0.00005205
  691      -16.3807130542      -0.0000000270     0.999999    0.00005220
  692      -16.3807130814      -0.0000000272     0.999999    0.00005235
  693      -16.3807131087      -0.0000000273     0.999999    0.00005251
  694      -16.3807131362      -0.0000000275     0.999999    0.00005266
  695      -16.3807131638      -0.0000000276     0.999999    0.00005282
  696      -16.3807131916      -0.0000000278     0.999999    0.00005298
  697      -16.3807132195      -0.0000000280     0.999999    0.00005314
  698      -16.3807132477      -0.0000000281     0.999999    0.00005330
  699      -16.3807132760      -0.0000000283     0.999999    0.00005346
  700      -16.3807133044      -0.0000000285     0.999999    0.00005363
  701      -16.3807133330      -0.0000000286     0.999999    0.00005379
  702      -16.3807133619      -0.0000000288     0.999999    0.00005396
  703      -16.3807133908      -0.0000000290     0.999999    0.00005413
  704      -16.3807134200      -0.0000000292     0.999999    0.00005430
  705      -16.3807134493      -0.0000000293     0.999999    0.00005447
  706      -16.3807134789      -0.0000000295     0.999999    0.00005465
  707      -16.3807135086      -0.0000000297     0.999999    0.00005482
  708      -16.3807135385      -0.0000000299     0.999999    0.00005500
  709      -16.3807135686      -0.0000000301     0.999999    0.00005518
  710      -16.3807135988      -0.0000000303     0.999999    0.00005536
  711      -16.3807136293      -0.0000000305     0.999999    0.00005554
  712      -16.3807136600      -0.0000000307     0.999999    0.00005573
  713      -16.3807136909      -0.0000000309     0.999999    0.00005591
  714      -16.3807137219      -0.0000000311     0.999999    0.00005610
  715      -16.3807137532      -0.0000000313     0.999999    0.00005629
  716      -16.3807137847      -0.0000000315     0.999999    0.00005648
  717      -16.3807138164      -0.0000000317     0.999999    0.00005667
  718      -16.3807138483      -0.0000000319     0.999999    0.00005687
  719      -16.3807138804      -0.0000000321     0.999999    0.00005706
  720      -16.3807139128      -0.0000000323     0.999999    0.00005726
  721      -16.3807139454      -0.0000000326     0.999999    0.00005746
  722      -16.3807139781      -0.0000000328     0.999999    0.00005766
  723      -16.3807140112      -0.0000000330     0.999999    0.00005787
  724      -16.3807140444      -0.0000000332     0.999999    0.00005807
  725      -16.3807140779      -0.0000000335     0.999999    0.00005828
  726      -16.3807141116      -0.0000000337     0.999999    0.00005849
  727      -16.3807141456      -0.0000000340     0.999999    0.00005870
  728      -16.3807141798      -0.0000000342     0.999999    0.00005892
  729      -16.3807142142      -0.0000000344     0.999999    0.00005913
  730      -16.3807142489      -0.0000000347     0.999999    0.00005935
  731      -16.3807142838      -0.0000000349     0.999999    0.00005957
  732      -16.3807143190      -0.0000000352     0.999999    0.00005979
  733      -16.3807143545      -0.0000000355     0.999999    0.00006002
  734      -16.3807143902      -0.0000000357     0.999999    0.00006024
  735      -16.3807144262      -0.0000000360     0.999999    0.00006047
  736      -16.3807144625      -0.0000000363     0.999999    0.00006070
  737      -16.3807144990      -0.0000000365     0.999999    0.00006094
  738      -16.3807145358      -0.0000000368     0.999999    0.00006117
  739      -16.3807145729      -0.0000000371     0.999999    0.00006141
  740      -16.3807146103      -0.0000000374     0.999999    0.00006165
  741      -16.3807146479      -0.0000000377     0.999999    0.00006189
  742      -16.3807146859      -0.0000000380     0.999999    0.00006213
  743      -16.3807147241      -0.0000000382     0.999999    0.00006238
  744      -16.3807147627      -0.0000000385     0.999999    0.00006263
  745      -16.3807148015      -0.0000000389     0.999999    0.00006288
  746      -16.3807148407      -0.0000000392     0.999999    0.00006314
  747      -16.3807148802      -0.0000000395     0.999999    0.00006339
  748      -16.3807149200      -0.0000000398     0.999999    0.00006365
  749      -16.3807149601      -0.0000000401     0.999999    0.00006391
  750      -16.3807150005      -0.0000000404     0.999999    0.00006418
  751      -16.3807150413      -0.0000000408     0.999999    0.00006444
  752      -16.3807150824      -0.0000000411     0.999999    0.00006471
  753      -16.3807151238      -0.0000000414     0.999999    0.00006499
  754      -16.3807151656      -0.0000000418     0.999999    0.00006526
  755      -16.3807152077      -0.0000000421     0.999999    0.00006554
  756      -16.3807152502      -0.0000000425     0.999999    0.00006582
  757      -16.3807152931      -0.0000000428     0.999999    0.00006610
  758      -16.3807153363      -0.0000000432     0.999999    0.00006639
  759      -16.3807153799      -0.0000000436     0.999999    0.00006668
  760      -16.3807154238      -0.0000000440     0.999999    0.00006697
  761      -16.3807154682      -0.0000000443     0.999999    0.00006726
  762      -16.3807155129      -0.0000000447     0.999999    0.00006756
  763      -16.3807155580      -0.0000000451     0.999999    0.00006786
  764      -16.3807156035      -0.0000000455     0.999999    0.00006816
  765      -16.3807156494      -0.0000000459     0.999999    0.00006847
  766      -16.3807156958      -0.0000000463     0.999999    0.00006878
  767      -16.3807157425      -0.0000000467     0.999999    0.00006909
  768      -16.3807157897      -0.0000000472     0.999999    0.00006941
  769      -16.3807158372      -0.0000000476     0.999999    0.00006972
  770      -16.3807158853      -0.0000000480     0.999999    0.00007005
  771      -16.3807159337      -0.0000000485     0.999999    0.00007037
  772      -16.3807159826      -0.0000000489     0.999999    0.00007070
  773      -16.3807160320      -0.0000000494     0.999999    0.00007103
  774      -16.3807160818      -0.0000000498     0.999999    0.00007137
  775      -16.3807161321      -0.0000000503     0.999999    0.00007171
  776      -16.3807161828      -0.0000000508     0.999999    0.00007205
  777      -16.3807162341      -0.0000000512     0.999999    0.00007240
  778      -16.3807162858      -0.0000000517     0.999999    0.00007274
  779      -16.3807163380      -0.0000000522     0.999999    0.00007310
  780      -16.3807163907      -0.0000000527     0.999999    0.00007345
  781      -16.3807164439      -0.0000000532     0.999999    0.00007382
  782      -16.3807164977      -0.0000000537     0.999999    0.00007418
  783      -16.3807165520      -0.0000000543     0.999999    0.00007455
  784      -16.3807166068      -0.0000000548     0.999999    0.00007492
  785      -16.3807166621      -0.0000000554     0.999999    0.00007530
  786      -16.3807167180      -0.0000000559     0.999999    0.00007568
  787      -16.3807167745      -0.0000000565     0.999999    0.00007606
  788      -16.3807168315      -0.0000000570     0.999999    0.00007645
  789      -16.3807168891      -0.0000000576     0.999999    0.00007684
  790      -16.3807169473      -0.0000000582     0.999999    0.00007723
  791      -16.3807170061      -0.0000000588     0.999999    0.00007763
  792      -16.3807170655      -0.0000000594     0.999999    0.00007804
  793      -16.3807171255      -0.0000000600     0.999999    0.00007845
  794      -16.3807171862      -0.0000000606     0.999999    0.00007886
  795      -16.3807172474      -0.0000000613     0.999999    0.00007928
  796      -16.3807173093      -0.0000000619     0.999999    0.00007970
  797      -16.3807173719      -0.0000000626     0.999999    0.00008013
  798      -16.3807174351      -0.0000000632     0.999999    0.00008056
  799      -16.3807174990      -0.0000000639     0.999999    0.00008100
  800      -16.3807175636      -0.0000000646     0.999999    0.00008144
  801      -16.3807176289      -0.0000000653     0.999999    0.00008188
  802      -16.3807176949      -0.0000000660     0.999999    0.00008233
  803      -16.3807177617      -0.0000000667     0.999999    0.00008279
  804      -16.3807178291      -0.0000000675     0.999999    0.00008325
  805      -16.3807178973      -0.0000000682     0.999999    0.00008372
  806      -16.3807179663      -0.0000000690     0.999999    0.00008419
  807      -16.3807180361      -0.0000000697     0.999999    0.00008466
  808      -16.3807181066      -0.0000000705     0.999999    0.00008514
  809      -16.3807181779      -0.0000000713     0.999999    0.00008563
  810      -16.3807182500      -0.0000000721     0.999999    0.00008612
  811      -16.3807183230      -0.0000000730     0.999999    0.00008662
  812      -16.3807183968      -0.0000000738     0.999999    0.00008712
  813      -16.3807184714      -0.0000000747     0.999999    0.00008763
  814      -16.3807185470      -0.0000000755     0.999999    0.00008815
  815      -16.3807186234      -0.0000000764     0.999999    0.00008867
  816      -16.3807187007      -0.0000000773     0.999999    0.00008919
  817      -16.3807187789      -0.0000000782     0.999999    0.00008973
  818      -16.3807188580      -0.0000000791     0.999999    0.00009027
  819      -16.3807189381      -0.0000000801     0.999999    0.00009081
  820      -16.3807190192      -0.0000000811     0.999999    0.00009136
  821      -16.3807191012      -0.0000000820     0.999999    0.00009192
  822      -16.3807191843      -0.0000000830     1.000000    0.00009248
  823      -16.3807192683      -0.0000000840     1.000000    0.00009306
  824      -16.3807193534      -0.0000000851     1.000000    0.00009363
  825      -16.3807194395      -0.0000000861     1.000000    0.00009422
  826      -16.3807195267      -0.0000000872     1.000000    0.00009481
  827      -16.3807196150      -0.0000000883     1.000000    0.00009541
  828      -16.3807197044      -0.0000000894     1.000000    0.00009601
  829      -16.3807197950      -0.0000000905     1.000000    0.00009662
  830      -16.3807198867      -0.0000000917     1.000000    0.00009724
  831      -16.3807199795      -0.0000000929     1.000000    0.00009787
  832      -16.3807200736      -0.0000000941     1.000000    0.00009851
  833      -16.3807201689      -0.0000000953     1.000000    0.00009915
  834      -16.3807202654      -0.0000000965     1.000000    0.00009980
  835      -16.3807203632      -0.0000000978     1.000000    0.00010046
  836      -16.3807204622      -0.0000000991     1.000000    0.00010112
  837      -16.3807205626      -0.0000001004     1.000000    0.00010180
  838      -16.3807206643      -0.0000001017     1.000000    0.00010248
  839      -16.3807207674      -0.0000001031     1.000000    0.00010317
  840      -16.3807208719      -0.0000001045     1.000000    0.00010387
  841      -16.3807209777      -0.0000001059     1.000000    0.00010458
  842      -16.3807210850      -0.0000001073     1.000000    0.00010529
  843      -16.3807211938      -0.0000001088     1.000000    0.00010602
  844      -16.3807213041      -0.0000001103     1.000000    0.00010675
  845      -16.3807214159      -0.0000001118     1.000000    0.00010750
  846      -16.3807215293      -0.0000001134     1.000000    0.00010825
  847      -16.3807216443      -0.0000001150     1.000000    0.00010901
  848      -16.3807217608      -0.0000001166     1.000000    0.00010979
  849      -16.3807218791      -0.0000001182     1.000000    0.00011057
  850      -16.3807219990      -0.0000001199     1.000000    0.00011136
  851      -16.3807221206      -0.0000001216     1.000000    0.00011216
  852      -16.3807222440      -0.0000001234     1.000000    0.00011298
  853      -16.3807223692      -0.0000001252     1.000000    0.00011380
  854      -16.3807224962      -0.0000001270     1.000000    0.00011463
  855      -16.3807226251      -0.0000001289     1.000000    0.00011548
  856      -16.3807227559      -0.0000001308     1.000000    0.00011634
  857      -16.3807228886      -0.0000001327     1.000000    0.00011720
  858      -16.3807230233      -0.0000001347     1.000000    0.00011808
  859      -16.3807231600      -0.0000001367     1.000000    0.00011897
  860      -16.3807232988      -0.0000001388     1.000000    0.00011988
  861      -16.3807234396      -0.0000001409     1.000000    0.00012079
  862      -16.3807235827      -0.0000001430     1.000000    0.00012172
  863      -16.3807237279      -0.0000001452     1.000000    0.00012266
  864      -16.3807238754      -0.0000001475     1.000000    0.00012361
  865      -16.3807240252      -0.0000001498     1.000000    0.00012457
  866      -16.3807241773      -0.0000001521     1.000000    0.00012555
  867      -16.3807243319      -0.0000001545     1.000000    0.00012654
  868      -16.3807244888      -0.0000001570     1.000000    0.00012754
  869      -16.3807246483      -0.0000001595     1.000000    0.00012856
  870      -16.3807248103      -0.0000001620     1.000000    0.00012960
  871      -16.3807249750      -0.0000001646     1.000000    0.00013064
  872      -16.3807251423      -0.0000001673     1.000000    0.00013170
  873      -16.3807253123      -0.0000001700     1.000000    0.00013278
  874      -16.3807254851      -0.0000001728     1.000000    0.00013387
  875      -16.3807256608      -0.0000001757     1.000000    0.00013498
  876      -16.3807258394      -0.0000001786     1.000000    0.00013610
  877      -16.3807260210      -0.0000001816     1.000000    0.00013724
  878      -16.3807262056      -0.0000001846     1.000000    0.00013840
  879      -16.3807263934      -0.0000001878     1.000000    0.00013957
  880      -16.3807265844      -0.0000001910     1.000000    0.00014075
  881      -16.3807267786      -0.0000001942     1.000000    0.00014196
  882      -16.3807269761      -0.0000001976     1.000000    0.00014318
  883      -16.3807271771      -0.0000002010     1.000000    0.00014442
  884      -16.3807273816      -0.0000002045     1.000000    0.00014568
  885      -16.3807275897      -0.0000002081     1.000000    0.00014696
  886      -16.3807278015      -0.0000002118     1.000000    0.00014826
  887      -16.3807280170      -0.0000002155     1.000000    0.00014957
  888      -16.3807282364      -0.0000002194     1.000000    0.00015091
  889      -16.3807284597      -0.0000002233     1.000000    0.00015226
  890      -16.3807286871      -0.0000002274     1.000000    0.00015364
  891      -16.3807289186      -0.0000002315     1.000000    0.00015504
  892      -16.3807291543      -0.0000002357     1.000000    0.00015645
  893      -16.3807293944      -0.0000002401     1.000000    0.00015789
  894      -16.3807296389      -0.0000002445     1.000000    0.00015935
  895      -16.3807298880      -0.0000002491     1.000000    0.00016084
  896      -16.3807301418      -0.0000002538     1.000000    0.00016234
  897      -16.3807304004      -0.0000002586     1.000000    0.00016387
  898      -16.3807306639      -0.0000002635     1.000000    0.00016543
  899      -16.3807309325      -0.0000002686     1.000000    0.00016701
  900      -16.3807312062      -0.0000002737     1.000000    0.00016861
  901      -16.3807314853      -0.0000002790     1.000000    0.00017024
  902      -16.3807317697      -0.0000002845     1.000000    0.00017189
  903      -16.3807320598      -0.0000002901     1.000000    0.00017357
  904      -16.3807323556      -0.0000002958     1.000000    0.00017528
  905      -16.3807326573      -0.0000003017     1.000000    0.00017701
  906      -16.3807329651      -0.0000003077     1.000000    0.00017878
  907      -16.3807332790      -0.0000003139     1.000000    0.00018057
  908      -16.3807335993      -0.0000003203     1.000000    0.00018239
  909      -16.3807339262      -0.0000003269     1.000000    0.00018424
  910      -16.3807342598      -0.0000003336     1.000000    0.00018612
  911      -16.3807346003      -0.0000003405     1.000000    0.00018804
  912      -16.3807349478      -0.0000003476     1.000000    0.00018998
  913      -16.3807353027      -0.0000003549     1.000000    0.00019196
  914      -16.3807356651      -0.0000003624     1.000000    0.00019397
  915      -16.3807360351      -0.0000003701     1.000000    0.00019601
  916      -16.3807364131      -0.0000003780     1.000000    0.00019809
  917      -16.3807367992      -0.0000003861     1.000000    0.00020020
  918      -16.3807371937      -0.0000003945     1.000000    0.00020235
  919      -16.3807375968      -0.0000004031     1.000000    0.00020454
  920      -16.3807380087      -0.0000004120     1.000000    0.00020677
  921      -16.3807384298      -0.0000004211     1.000000    0.00020903
  922      -16.3807388603      -0.0000004304     1.000000    0.00021133
  923      -16.3807393004      -0.0000004401     1.000000    0.00021368
  924      -16.3807397504      -0.0000004500     1.000000    0.00021606
  925      -16.3807402107      -0.0000004603     1.000000    0.00021849
  926      -16.3807406815      -0.0000004708     1.000000    0.00022096
  927      -16.3807411632      -0.0000004817     1.000000    0.00022347
  928      -16.3807416560      -0.0000004928     1.000000    0.00022603
  929      -16.3807421604      -0.0000005044     1.000000    0.00022864
  930      -16.3807426766      -0.0000005162     1.000000    0.00023129
  931      -16.3807432051      -0.0000005285     1.000000    0.00023399
  932      -16.3807437461      -0.0000005411     1.000000    0.00023674
  933      -16.3807443002      -0.0000005541     1.000000    0.00023954
  934      -16.3807448677      -0.0000005675     1.000000    0.00024240
  935      -16.3807454491      -0.0000005813     1.000000    0.00024530
  936      -16.3807460447      -0.0000005956     1.000000    0.00024827
  937      -16.3807466550      -0.0000006103     1.000000    0.00025128
  938      -16.3807472805      -0.0000006255     1.000000    0.00025435
  939      -16.3807479218      -0.0000006412     1.000000    0.00025749
  940      -16.3807485792      -0.0000006574     1.000000    0.00026068
  941      -16.3807492533      -0.0000006742     1.000000    0.00026393
  942      -16.3807499448      -0.0000006914     1.000000    0.00026724
  943      -16.3807506541      -0.0000007093     1.000000    0.00027062
  944      -16.3807513818      -0.0000007277     1.000000    0.00027407
  945      -16.3807521286      -0.0000007468     1.000000    0.00027758
  946      -16.3807528951      -0.0000007665     1.000000    0.00028116
  947      -16.3807536819      -0.0000007869     1.000000    0.00028481
  948      -16.3807544899      -0.0000008079     1.000000    0.00028853
  949      -16.3807553196      -0.0000008297     1.000000    0.00029233
  950      -16.3807561719      -0.0000008523     1.000000    0.00029620
  951      -16.3807570475      -0.0000008756     1.000000    0.00030016
  952      -16.3807579473      -0.0000008998     1.000000    0.00030419
  953      -16.3807588721      -0.0000009248     1.000000    0.00030830
  954      -16.3807598227      -0.0000009507     1.000000    0.00031249
  955      -16.3807608002      -0.0000009775     1.000000    0.00031678
  956      -16.3807618055      -0.0000010053     1.000000    0.00032114
  957      -16.3807628395      -0.0000010341     1.000000    0.00032560
  958      -16.3807639034      -0.0000010639     1.000000    0.00033016
  959      -16.3807649982      -0.0000010948     1.000000    0.00033480
  960      -16.3807661251      -0.0000011269     1.000000    0.00033955
  961      -16.3807672853      -0.0000011602     1.000000    0.00034439
  962      -16.3807684800      -0.0000011947     1.000000    0.00034933
  963      -16.3807697104      -0.0000012305     1.000000    0.00035438
  964      -16.3807709781      -0.0000012676     1.000000    0.00035954
  965      -16.3807722843      -0.0000013062     1.000000    0.00036481
  966      -16.3807736306      -0.0000013463     1.000000    0.00037019
  967      -16.3807750185      -0.0000013879     1.000000    0.00037568
  968      -16.3807764496      -0.0000014311     1.000000    0.00038130
  969      -16.3807779257      -0.0000014760     1.000000    0.00038703
  970      -16.3807794484      -0.0000015227     1.000000    0.00039289
  971      -16.3807810197      -0.0000015713     1.000000    0.00039888
  972      -16.3807826414      -0.0000016218     1.000000    0.00040499
  973      -16.3807843157      -0.0000016743     1.000000    0.00041124
  974      -16.3807860446      -0.0000017289     1.000000    0.00041763
  975      -16.3807878303      -0.0000017857     1.000000    0.00042416
  976      -16.3807896752      -0.0000018449     1.000000    0.00043083
  977      -16.3807915817      -0.0000019065     1.000000    0.00043765
  978      -16.3807935524      -0.0000019707     1.000000    0.00044462
  979      -16.3807955899      -0.0000020375     1.000000    0.00045175
  980      -16.3807976970      -0.0000021071     1.000000    0.00045903
  981      -16.3807998767      -0.0000021797     1.000000    0.00046648
  982      -16.3808021321      -0.0000022554     1.000000    0.00047409
  983      -16.3808044663      -0.0000023342     1.000000    0.00048187
  984      -16.3808068828      -0.0000024165     1.000000    0.00048983
  985      -16.3808093852      -0.0000025023     1.000000    0.00049796
  986      -16.3808119770      -0.0000025919     1.000000    0.00050627
  987      -16.3808146624      -0.0000026853     1.000000    0.00051477
  988      -16.3808174452      -0.0000027829     1.000000    0.00052346
  989      -16.3808203300      -0.0000028847     1.000000    0.00053234
  990      -16.3808233211      -0.0000029911     1.000000    0.00054141
  991      -16.3808264233      -0.0000031022     1.000000    0.00055069
  992      -16.3808296416      -0.0000032183     1.000000    0.00056017
  993      -16.3808329813      -0.0000033396     1.000000    0.00056985
  994      -16.3808364477      -0.0000034664     1.000000    0.00057975
  995      -16.3808400467      -0.0000035990     1.000000    0.00058986
  996      -16.3808437843      -0.0000037376     1.000000    0.00060019
  997      -16.3808476668      -0.0000038825     1.000000    0.00061074
  998      -16.3808517009      -0.0000040341     1.000000    0.00062151
  999      -16.3808558936      -0.0000041927     1.000000    0.00063251
 1000      -16.3808602522      -0.0000043586     1.000000    0.00064373

Total Energy:                      -16.3808602522 H         -445.7459 eV
Extrapolated to 0:                 -16.3330757339 H         -444.4456 eV

----------------------------------------------------------------------------------
 Solving CP-REKS equation for  1 state vector...
----------------------------------------------------------------------------------
  CG solver: Constructing Y initial guess
  CG solver: Iteration    1    eps =    0.040024445402
  CG solver: Iteration    2    eps =    0.014796736309
  CG solver: Iteration    3    eps =    0.031801866848
  CG solver: Iteration    4    eps =    7.473195512422
  CG solver: Iteration    5    eps =    0.269269248380
  CG solver: Iteration    6    eps =    0.026746799232
  CG solver: Iteration    7    eps =    0.004971959750
  CG solver: Iteration    8    eps =    0.002149871995
  CG solver: Iteration    9    eps =    0.000326063734
  CG solver: Iteration   10    eps =    0.000094567774
  CG solver: Iteration   11    eps =    0.000018828444
  CG solver: Iteration   12    eps =    0.000001201032
  CG solver: Iteration   13    eps =    0.000000213665
  CG solver: Iteration   14    eps =    0.000000052710
  CG solver: Iteration   15    eps =    0.000000010402
  CG solver: Iteration   16    eps =    0.000000000829
  Convergence reached in CG solver after   16 iterations
  CG solver: Calculating converged R, Z, Q2 matrix
----------------------------------------------------------------------------------

----------------------------------------------------------------------------------
 Solving CP-REKS equation for SI between  1 and  2 state vectors...
----------------------------------------------------------------------------------
  CG solver: Constructing Y initial guess
  CG solver: Iteration    1    eps =    0.039755982450
  CG solver: Iteration    2    eps =    0.001968519999
  CG solver: Iteration    3    eps =    0.001295192548
  CG solver: Iteration    4    eps =   78.065663558701
  CG solver: Iteration    5    eps =    0.021083560232
  CG solver: Iteration    6    eps =    0.000825978060
  CG solver: Iteration    7    eps =    0.000440071361
  CG solver: Iteration    8    eps =    0.000086599758
  CG solver: Iteration    9    eps =    0.000025517959
  CG solver: Iteration   10    eps =    0.000014177805
  CG solver: Iteration   11    eps =    0.000003102459
  CG solver: Iteration   12    eps =    0.000000795458
  CG solver: Iteration   13    eps =    0.000000066915
  CG solver: Iteration   14    eps =    0.000000009853
  Convergence reached in CG solver after   14 iterations
  CG solver: Calculating converged R, Z, Q2 matrix
----------------------------------------------------------------------------------

--------------------------------------------------
 Gradient Information
--------------------------------------------------
           1 st state (SSR)
     0.00000000     0.00000000     0.00000000
     0.00000000     0.00000000     0.00000000
     0.00000000     0.00000000     0.00000000
     0.00000000     0.00000000     0.00000000
     0.00000000     0.00000000     0.00000000
     0.00000000     0.00000000     0.00000000
     0.00000000     0.00000000     0.00000000
     0.00000000     0.00000000     0.00000000
     0.00000000     0.00000000     0.00000000
     0.00000000     0.00000000     0.00000000
     0.00000000     0.00000000     0.00000000
     0.00000000     0.00000000     0.00000000
     0.00000000     0.00000000     0.00000000
     0.00000000     0.00000000     0.00000000

           2 st state (SSR)
     0.00000000     0.00000000     0.00000000
     0.00000000     0.00000000     0.00000000
     0.00000000     0.00000000     0.00000000
     0.00000000     0.00000000     0.00000000
     0.00000000     0.00000000     0.00000000
     0.00000000     0.00000000     0.00000000
     0.00000000     0.00000000     0.00000000
     0.00000000     0.00000000     0.00000000
     0.00000000     0.00000000     0.00000000
     0.00000000     0.00000000     0.00000000
     0.00000000     0.00000000     0.00000000
     0.00000000     0.00000000     0.00000000
     0.00000000     0.00000000     0.00000000
     0.00000000     0.00000000     0.00000000
--------------------------------------------------
 Coupling Information
--------------------------------------------------
 between  1 and  2 states
--------------------------------------------------
 g vector - difference gradient
     0.20161202    -0.10092350     0.02097321
     0.01996048     0.11551434    -0.04796518
    -0.14865631     0.25955830    -0.00880291
     0.10896041    -0.13344955     0.01849952
     0.06500283    -0.25691464    -0.04734222
    -0.32167675     0.05660924     0.20952161
     0.22050197     0.00691595     0.10015613
    -0.09502197     0.07716360     0.05412486
    -0.11791598    -0.07820348    -0.07935226
    -0.14419560     0.01746840    -0.28419276
    -0.06181597     0.10199361    -0.07730656
     0.23448757    -0.05347978     0.14058583
     0.04072516     0.08417216    -0.02783503
    -0.00196788    -0.09642465     0.02893577

 h vector - derivative coupling
     0.04507133     0.02369293     0.05151115
    -0.08583631    -0.05226635    -0.06465896
     0.00238327    -0.00522247     0.00237366
     0.00319033    -0.00162251    -0.00137269
     0.02130857    -0.00253143    -0.00702933
     0.01342426     0.04988613     0.00264049
    -0.02740302    -0.02667426     0.02289426
     0.00654297    -0.00718920    -0.00891992
    -0.01461939     0.00342918     0.02698384
    -0.02056451     0.02340053    -0.04756402
    -0.00910463    -0.01393822     0.01193381
     0.06623280     0.00527655     0.01271771
    -0.00102098    -0.00467510     0.00292777
     0.00039533     0.00843423    -0.00443778

 G vector - GDV
     0.00000000     0.00000000     0.00000000
     0.00000000     0.00000000     0.00000000
     0.00000000     0.00000000     0.00000000
     0.00000000     0.00000000     0.00000000
     0.00000000     0.00000000     0.00000000
     0.00000000     0.00000000     0.00000000
     0.00000000     0.00000000     0.00000000
     0.00000000     0.00000000     0.00000000
     0.00000000     0.00000000     0.00000000
     0.00000000     0.00000000     0.00000000
     0.00000000     0.00000000     0.00000000
     0.00000000     0.00000000     0.00000000
     0.00000000     0.00000000     0.00000000
     0.00000000     0.00000000     0.00000000

 H vector - DCV - non-adiabatic coupling
     0.00000000     0.00000000     0.00000000
     0.00000000     0.00000000     0.00000000
     0.00000000     0.00000000     0.00000000
     0.00000000     0.00000000     0.00000000
     0.00000000     0.00000000     0.00000000
     0.00000000     0.00000000     0.00000000
     0.00000000     0.00000000     0.00000000
     0.00000000     0.00000000     0.00000000
     0.00000000     0.00000000     0.00000000
     0.00000000     0.00000000     0.00000000
     0.00000000     0.00000000     0.00000000
     0.00000000     0.00000000     0.00000000
     0.00000000     0.00000000     0.00000000
     0.00000000     0.00000000     0.00000000
--------------------------------------------------

WARNING!
-> SCC is NOT converged, maximal SCC iterations exceeded

--------------------------------------------------------------------------------
DFTB+ running times                          cpu [s]             wall clock [s]
--------------------------------------------------------------------------------
SCC                                    +     1.39  ( 78.2%)      1.39  ( 78.1%)
      Sparse to dense                        0.07  (  4.0%)      0.08  (  4.5%)
      Dense to sparse                        0.24  ( 13.7%)      0.25  ( 13.8%)
      Range separated Hamiltonian            0.12  (  7.0%)      0.13  (  7.2%)
  Density matrix creation                    0.15  (  8.5%)      0.16  (  8.9%)
  Force calculation                          0.39  ( 21.7%)      0.39  ( 21.7%)
--------------------------------------------------------------------------------
Missing                                +     0.39  ( 21.8%)      0.39  ( 21.9%)
Total                                  =     1.77  (100.0%)      1.78  (100.0%)
--------------------------------------------------------------------------------
