     6
  Step:   300            Position(A)                                  Velocity(au)
C        -0.04057985     0.03295936     0.02614907     0.00001138     0.00002753    -0.00005769
N        -0.04932329    -0.08275398     1.29435331    -0.00000388    -0.00002179     0.00004112
H         0.92724447     0.11695900    -0.48282292    -0.00002372     0.00123611     0.00049197
H         0.81559757    -0.15915623     1.83592337     0.00014096    -0.00137899    -0.00027347
H        -0.86520875     0.14948151     1.86833204    -0.00001645     0.00140430    -0.00067904
H        -0.92160999    -0.01981534    -0.62776765    -0.00018249    -0.00128668     0.00057656
