     6
  Step:     0            Position(A)                                  Velocity(au)
C        -0.03531192     0.01139466     0.03674559    -0.00009373    -0.00011633     0.00009048
N        -0.04612971    -0.06066126     1.28118659     0.00022167     0.00004472    -0.00015659
H         0.89160136     0.03553946    -0.53191926     0.00008312     0.00051611    -0.00006256
H         0.82211948    -0.07077523     1.86371466    -0.00211916    -0.00014164    -0.00050469
H        -0.89444525     0.01390162     1.82702443    -0.00078757     0.00009916     0.00078914
H        -0.97039959     0.05874732    -0.50846048     0.00086006     0.00029106     0.00087603
     6
  Step:     1            Position(A)                                  Velocity(au)
C        -0.03581706     0.01077404     0.03701139    -0.00009033    -0.00011068     0.00000653
N        -0.04489414    -0.06043680     1.28055616     0.00022767     0.00003748    -0.00007357
H         0.89228449     0.03838545    -0.53252771     0.00016563     0.00052479    -0.00015849
H         0.81042409    -0.07154237     1.86091455    -0.00213496    -0.00013938    -0.00050492
H        -0.89899726     0.01450289     1.83155824    -0.00086215     0.00011931     0.00085696
H        -0.96598622     0.06034311    -0.50399197     0.00074394     0.00029319     0.00075113
     6
  Step:     2            Position(A)                                  Velocity(au)
C        -0.03630013     0.01018379     0.03681700    -0.00008562    -0.00010518    -0.00007721
N        -0.04363885    -0.06025118     1.28038166     0.00022861     0.00003054     0.00000946
H         0.89341349     0.04128090    -0.53365327     0.00024524     0.00053377    -0.00025100
H         0.79876192    -0.07230007     1.85819061    -0.00210379    -0.00013818    -0.00047497
H        -0.90387761     0.01520691     1.83640004    -0.00090721     0.00013666     0.00090125
H        -0.96226053     0.06195495    -0.50024273     0.00060917     0.00029671     0.00061328
     6
  Step:     3            Position(A)                                  Velocity(au)
C        -0.03675417     0.00962288     0.03616636    -0.00007971    -0.00009991    -0.00015963
N        -0.04239211    -0.06010261     1.28065974     0.00022436     0.00002395     0.00009115
H         0.89496852     0.04422723    -0.53527474     0.00032045     0.00054299    -0.00033912
H         0.78739923    -0.07305464     1.85571625    -0.00202306    -0.00013822    -0.00041230
H        -0.90892621     0.01599853     1.84142196    -0.00092374     0.00015128     0.00092270
H        -0.95931919     0.06359042    -0.49727991     0.00045830     0.00030158     0.00046430
     6
  Step:     4            Position(A)                                  Velocity(au)
C        -0.03717279     0.00908995     0.03506935    -0.00007271    -0.00009493    -0.00023971
N        -0.04118252    -0.05998893     1.28137957     0.00021495     0.00001780     0.00017018
H         0.89692176     0.04722551    -0.53736593     0.00038986     0.00055236    -0.00042201
H         0.77661347    -0.07381335     1.85367673    -0.00189159    -0.00013967    -0.00031539
H        -0.91399067     0.01686312     1.84650177    -0.00091344     0.00016330     0.00092261
H        -0.95724307     0.06525669    -0.49515954     0.00029451     0.00030771     0.00030640
     6
  Step:     5            Position(A)                                  Velocity(au)
C        -0.03755040     0.00858333     0.03354124    -0.00006477    -0.00009026    -0.00031650
N        -0.04003817    -0.05990765     1.28252338     0.00020053     0.00001213     0.00024536
H         0.89923797     0.05027627    -0.53989628     0.00045219     0.00056177    -0.00049894
H         0.76668398    -0.07458422     1.85226234    -0.00171001    -0.00014263    -0.00018409
H        -0.91892952     0.01778691     1.85152572    -0.00087855     0.00017290     0.00090272
H        -0.95609392     0.06696018    -0.49392443     0.00012155     0.00031489     0.00014214
     6
  Step:     6            Position(A)                                  Velocity(au)
C        -0.03788234     0.00810116     0.03160223    -0.00005610    -0.00008595    -0.00038916
N        -0.03898582    -0.05985601     1.28406741     0.00018144     0.00000699     0.00031571
H         0.90187524     0.05337936    -0.54283152     0.00050627     0.00057105    -0.00056926
H         0.75788115    -0.07537577     1.85166011    -0.00148119    -0.00014715    -0.00001999
H        -0.92361475     0.01875710     1.85639062    -0.00082167     0.00018025     0.00086508
H        -0.95591154     0.06870610    -0.49360246    -0.00005637     0.00032286    -0.00002563
     6
  Step:     7            Position(A)                                  Velocity(au)
C        -0.03816513     0.00764151     0.02927679    -0.00004690    -0.00008198    -0.00045694
N        -0.03804991    -0.05983108     1.28598287     0.00015821     0.00000239     0.00038038
H         0.90478566     0.05653379    -0.54613416     0.00055106     0.00058001    -0.00063240
H         0.75045318    -0.07619667     1.85204333    -0.00121042    -0.00015320     0.00017336
H        -0.92793333     0.01976204     1.86100520    -0.00074559     0.00018556     0.00081191
H        -0.95671167     0.07049803    -0.49420527    -0.00023473     0.00033127    -0.00019385
     6
  Step:     8            Position(A)                                  Velocity(au)
C        -0.03839647     0.00720246     0.02659321    -0.00003740    -0.00007835    -0.00051915
N        -0.03725154    -0.05982981     1.28823721     0.00013151    -0.00000165     0.00043879
H         0.90791604     0.05973748    -0.54976394     0.00058565     0.00058840    -0.00068786
H         0.74461246    -0.07705519     1.85356053    -0.00090552    -0.00016066     0.00039033
H        -0.93178795     0.02079121     1.86529079    -0.00065320     0.00018903     0.00074551
H        -0.95848468     0.07233749    -0.49572745    -0.00040880     0.00033969    -0.00035933
     6
  Step:     9            Position(A)                                  Velocity(au)
C        -0.03857534     0.00678219     0.02358315    -0.00002784    -0.00007503    -0.00057514
N        -0.03660758    -0.05984913     1.29079520     0.00010221    -0.00000512     0.00049049
H         0.91120866     0.06298695    -0.55367816     0.00060923     0.00059590    -0.00073516
H         0.74052204    -0.07795871     1.85632416    -0.00057670    -0.00016929     0.00062323
H        -0.93509716     0.02183523     1.86918145    -0.00054743     0.00019086     0.00066822
H        -0.96119509     0.07422357    -0.49814610    -0.00057382     0.00034764    -0.00051880
     6
  Step:    10            Position(A)                                  Velocity(au)
C        -0.03870196     0.00637910     0.02028143    -0.00001843    -0.00007195    -0.00062432
N        -0.03612981    -0.05988600     1.29361995     0.00007132    -0.00000805     0.00053519
H         0.91460189     0.06627709    -0.55783181     0.00062113     0.00060215    -0.00077383
H         0.73828355    -0.07891307     1.86040006    -0.00023617    -0.00017875     0.00086266
H        -0.93779562     0.02288578     1.87262405    -0.00043131     0.00019123     0.00058241
H        -0.96478197     0.07615256    -0.50142089    -0.00072517     0.00035454    -0.00066902
     6
  Step:    11            Position(A)                                  Velocity(au)
C        -0.03877778     0.00599188     0.01672587    -0.00000940    -0.00006908    -0.00066608
N        -0.03582421    -0.05993751     1.29667357     0.00003994    -0.00001045     0.00057273
H         0.91803093     0.06960075    -0.56217759     0.00062085     0.00060672    -0.00080341
H         0.73792802    -0.07992200     1.86579934     0.00010254    -0.00018857     0.00109800
H        -0.93983455     0.02393559     1.87557840    -0.00030799     0.00019031     0.00049049
H        -0.96916010     0.07811774    -0.50549439    -0.00085851     0.00035983    -0.00080684
     6
  Step:    12            Position(A)                                  Velocity(au)
C        -0.03880530     0.00561952     0.01295729    -0.00000093    -0.00006634    -0.00069985
N        -0.03569060    -0.06000089     1.29991761     0.00000923    -0.00001236     0.00060298
H         0.92142870     0.07294848    -0.56666604     0.00060810     0.00060915    -0.00082352
H         0.73941108    -0.08098662     1.87247357     0.00042548    -0.00019825     0.00131815
H        -0.94118227     0.02497842     1.87801748    -0.00018078     0.00018830     0.00039499
H        -0.97422207     0.08010924    -0.51029286    -0.00097001     0.00036292    -0.00092932
     6
  Step:    13            Position(A)                                  Velocity(au)
C        -0.03878801     0.00526139     0.00901938     0.00000681    -0.00006367    -0.00072516
N        -0.03572258    -0.06007357     1.30331333    -0.00001969    -0.00001381     0.00062591
H         0.92472711     0.07630848    -0.57124585     0.00058292     0.00060903    -0.00083389
H         0.74261321    -0.08210507     1.88031432     0.00071931    -0.00020722     0.00151250
H        -0.94182521     0.02600908     1.87992787    -0.00005318     0.00018540     0.00029851
H        -0.97984145     0.08211411    -0.51572764    -0.00105658     0.00036329    -0.00103387
     6
  Step:    14            Position(A)                                  Velocity(au)
C        -0.03873022     0.00491721     0.00495822     0.00001368    -0.00006101    -0.00074166
N        -0.03590779    -0.06015321     1.30682185    -0.00004579    -0.00001485     0.00064154
H         0.92785879     0.07966660    -0.57586454     0.00054572     0.00060601    -0.00083447
H         0.74734569    -0.08327245     1.88915762     0.00097247    -0.00021495     0.00167182
H        -0.94176885     0.02702352     1.88131033     0.00007116     0.00018184     0.00020377
H        -0.98587697     0.08411666    -0.52169726    -0.00111609     0.00036052    -0.00111847
     6
  Step:    15            Position(A)                                  Velocity(au)
C        -0.03863681     0.00458698     0.00082162     0.00001960    -0.00005834    -0.00074925
N        -0.03622869    -0.06023775     1.31040443    -0.00006822    -0.00001554     0.00065001
H         0.93075915     0.08300686    -0.58046958     0.00049736     0.00059987    -0.00082552
H         0.75336219    -0.08448097     1.89879345     0.00117610    -0.00022098     0.00178923
H        -0.94103862     0.02801898     1.88218022     0.00018855     0.00017789     0.00011349
H        -0.99217794     0.08609905    -0.52809049    -0.00114758     0.00035434    -0.00118184
     6
  Step:    16            Position(A)                                  Velocity(au)
C        -0.03851310     0.00427092    -0.00334224     0.00002451    -0.00005562    -0.00074816
N        -0.03666355    -0.06032542     1.31402292    -0.00008637    -0.00001594     0.00065163
H         0.93336872     0.08631223    -0.58501002     0.00043913     0.00059063    -0.00080767
H         0.76037500    -0.08572056     1.90897946     0.00132483    -0.00022500     0.00186082
H        -0.93968000     0.02899425     1.88256760     0.00029546     0.00017388     0.00003029
H        -0.99859030     0.08804218    -0.53479024    -0.00115135     0.00034469    -0.00122361
     6
  Step:    17            Position(A)                                  Velocity(au)
C        -0.03836459     0.00396932    -0.00748653     0.00002842    -0.00005287    -0.00073902
N        -0.03718779    -0.06041474     1.31764067    -0.00009990    -0.00001610     0.00064695
H         0.93563565     0.08956575    -0.58943858     0.00037276     0.00057857    -0.00078198
H         0.76807421    -0.08697958     1.91945746     0.00141713    -0.00022689     0.00188597
H        -0.93775758     0.02994993     1.88251661     0.00038878     0.00017020    -0.00004346
H        -1.00496351     0.08992675    -0.54167850    -0.00112909     0.00033173    -0.00124449
     6
  Step:    18            Position(A)                                  Velocity(au)
C        -0.03819672     0.00368247    -0.01156797     0.00003138    -0.00005011    -0.00072286
N        -0.03777553    -0.06050458     1.32122382    -0.00010878    -0.00001609     0.00063675
H         0.93751778     0.09275202    -0.59371396     0.00030021     0.00056421    -0.00074994
H         0.77614846    -0.08824596     1.92997138     0.00145514    -0.00022672     0.00186726
H        -0.93535267     0.03088870     1.88208386     0.00046605     0.00016727    -0.00010586
H        -1.01115777     0.09173456    -0.54864211    -0.00108369     0.00031586    -0.00124624
     6
  Step:    19            Position(A)                                  Velocity(au)
C        -0.03801463     0.00341043    -0.01554891     0.00003346    -0.00004739    -0.00070103
N        -0.03840104    -0.06059417     1.32474258    -0.00011320    -0.00001598     0.00062204
H         0.93898399     0.09585864    -0.59780294     0.00022352     0.00054834    -0.00071329
H         0.78430397    -0.08950824     1.94028382     0.00144398    -0.00022476     0.00180981
H        -0.93255949     0.03181552     1.88133589     0.00052573     0.00016553    -0.00015561
H        -1.01705032     0.09344963    -0.55557840    -0.00101886     0.00029760    -0.00123156
     6
  Step:    20            Position(A)                                  Velocity(au)
C        -0.03782298     0.00315304    -0.01939908     0.00003478    -0.00004478    -0.00067505
N        -0.03904008    -0.06068304     1.32817262    -0.00011357    -0.00001583     0.00060398
H         0.94001467     0.09887744    -0.60168205     0.00014458     0.00053186    -0.00067391
H         0.79227905    -0.09075678     1.95018868     0.00139087    -0.00022144     0.00172041
H        -0.92947977     0.03273784     1.88034559     0.00056709     0.00016546    -0.00019199
H        -1.02253938     0.09505901    -0.56239977    -0.00093872     0.00027758    -0.00120367
     6
  Step:    21            Position(A)                                  Velocity(au)
C        -0.03762580     0.00290976    -0.02309672     0.00003546    -0.00004232    -0.00064648
N        -0.03967089    -0.06077111     1.33149575    -0.00011040    -0.00001570     0.00058371
H         0.94060052     0.10180541    -0.60533798     0.00006494     0.00051574    -0.00063357
H         0.79985535    -0.09198420     1.95951982     0.00130389    -0.00021723     0.00160638
H        -0.92621884     0.03366554     1.87918927     0.00059008     0.00016751    -0.00021482
H        -1.02754622     0.09655329    -0.56903666    -0.00084728     0.00025642    -0.00116595
     6
  Step:    22            Position(A)                                  Velocity(au)
C        -0.03742643     0.00267976    -0.02662837     0.00003563    -0.00004007    -0.00061659
N        -0.04027466    -0.06085860     1.33470001    -0.00010422    -0.00001564     0.00056220
H         0.94074081     0.10464472    -0.60876705    -0.00001425     0.00050079    -0.00059377
H         0.80685997    -0.09318601     1.96815225     0.00119072    -0.00021260     0.00147450
H        -0.92288114     0.03461104     1.87794337     0.00059522     0.00017207    -0.00022437
H        -1.03201423     0.09792648    -0.57543818    -0.00074800     0.00023462    -0.00112152
     6
  Step:    23            Position(A)                                  Velocity(au)
C        -0.03722759     0.00246192    -0.02998760     0.00003539    -0.00003806    -0.00058635
N        -0.04083563    -0.06094596     1.33777876    -0.00009551    -0.00001570     0.00054016
H         0.94044124     0.10740212    -0.61197378    -0.00009219     0.00048765    -0.00055561
H         0.81316253    -0.09436023     1.97599846     0.00105796    -0.00020795     0.00133036
H        -0.91956675     0.03558851     1.87668179     0.00058333     0.00017942    -0.00022119
H        -1.03590576     0.09917531    -0.58157049    -0.00064354     0.00021250    -0.00107285
     6
  Step:    24            Position(A)                                  Velocity(au)
C        -0.03703146     0.00225498    -0.03317313     0.00003479    -0.00003629    -0.00055632
N        -0.04134073    -0.06103384     1.34072923    -0.00008468    -0.00001589     0.00051801
H         0.93971178     0.11008780    -0.61496871    -0.00016835     0.00047670    -0.00051981
H         0.81866879    -0.09550713     1.98300158     0.00091088    -0.00020357     0.00117819
H        -0.91637000     0.03661367     1.87547451     0.00055531     0.00018978    -0.00020596
H        -1.03919741     0.10029838    -0.58741323    -0.00053573     0.00019024    -0.00102169
     6
  Step:    25            Position(A)                                  Velocity(au)
C        -0.03683989     0.00205759    -0.03618676     0.00003250    -0.00003224    -0.00056686
N        -0.04177922    -0.06112302     1.34355101    -0.00007170    -0.00001878     0.00052733
H         0.93856530     0.11271412    -0.61776617    -0.00026190     0.00051584    -0.00044728
H         0.82331274    -0.09662870     1.98912735     0.00073955    -0.00025092     0.00100841
H        -0.91337882     0.03770332     1.87438669     0.00053021     0.00027045    -0.00019197
H        -1.04187556     0.10129519    -0.59295546    -0.00039878     0.00010974    -0.00094240
     6
  Step:    26            Position(A)                                  Velocity(au)
C        -0.03666995     0.00189639    -0.03947826     0.00002861    -0.00002559    -0.00062281
N        -0.04213826    -0.06124274     1.34659471    -0.00005703    -0.00002445     0.00057273
H         0.93679863     0.11582545    -0.61994381    -0.00037295     0.00059047    -0.00033723
H         0.82689479    -0.09829806     1.99421807     0.00054603    -0.00033465     0.00081710
H        -0.91047249     0.03962188     1.87333923     0.00051016     0.00040402    -0.00018531
H        -1.04363300     0.10151901    -0.59789553    -0.00023161    -0.00001516    -0.00083196
     6
  Step:    27            Position(A)                                  Velocity(au)
C        -0.03652221     0.00177339    -0.04310278     0.00002448    -0.00001881    -0.00068354
N        -0.04241253    -0.06139450     1.34991092    -0.00004128    -0.00003028     0.00062250
H         0.93442388     0.11927101    -0.62151094    -0.00047960     0.00064598    -0.00023038
H         0.82937618    -0.10034487     1.99820087     0.00034733    -0.00039648     0.00061737
H        -0.90771374     0.04218974     1.87232895     0.00047680     0.00051528    -0.00017522
H        -1.04444753     0.10112683    -0.60219405    -0.00006254    -0.00011991    -0.00071711
     6
  Step:    28            Position(A)                                  Velocity(au)
C        -0.03639849     0.00168778    -0.04705900     0.00001997    -0.00001221    -0.00074247
N        -0.04259609    -0.06157854     1.35349848    -0.00002451    -0.00003612     0.00067061
H         0.93147970     0.12298961    -0.62249883    -0.00057801     0.00069230    -0.00012954
H         0.83074678    -0.10269519     2.00106496     0.00014808    -0.00044715     0.00041712
H        -0.90518461     0.04533658     1.87139599     0.00042826     0.00061631    -0.00015711
H        -1.04432655     0.10018914    -0.60584861     0.00010429    -0.00021411    -0.00060224
     6
  Step:    29            Position(A)                                  Velocity(au)
C        -0.03630093     0.00163811    -0.05133024     0.00001506    -0.00000588    -0.00079725
N        -0.04268413    -0.06179474     1.35734214    -0.00000700    -0.00004190     0.00071496
H         0.92801887     0.12694258    -0.62294644    -0.00066550     0.00073230    -0.00003619
H         0.83101707    -0.10529984     2.00282307    -0.00004764    -0.00048989     0.00022047
H        -0.90296805     0.04901921     1.87058801     0.00036491     0.00071047    -0.00013025
H        -1.04329184     0.09875423    -0.60886762     0.00026607    -0.00030052    -0.00048919
     6
  Step:    30            Position(A)                                  Velocity(au)
C        -0.03623170     0.00162260    -0.05589034     0.00000975     0.00000009    -0.00084630
N        -0.04267363    -0.06204269     1.36141820     0.00001086    -0.00004756     0.00075413
H         0.92410780     0.13110145    -0.62289973    -0.00073952     0.00076740     0.00004827
H         0.83021901    -0.10812180     2.00350716    -0.00023555    -0.00052639     0.00003118
H        -0.90114243     0.05320657     1.86995315     0.00028810     0.00079921    -0.00009499
H        -1.04137928     0.09686018    -0.61126747     0.00041992    -0.00038041    -0.00037957
     6
  Step:    31            Position(A)                                  Velocity(au)
C        -0.03619292     0.00163914    -0.06070570     0.00000408     0.00000565    -0.00088834
N        -0.04256388    -0.06232164     1.36569655     0.00002857    -0.00005302     0.00078708
H         0.91982635     0.13544392    -0.62241175    -0.00079761     0.00079847     0.00012244
H         0.82840758    -0.11113130     2.00316843    -0.00041108    -0.00055772    -0.00014696
H        -0.89977641     0.05787299     1.86953566     0.00020014     0.00088306    -0.00005237
H        -1.03863984     0.09453998    -0.61307258     0.00056285    -0.00045432    -0.00027505
     6
  Step:    32            Position(A)                                  Velocity(au)
C        -0.03618643     0.00168524    -0.06573652    -0.00000187     0.00001072    -0.00092238
N        -0.04235696    -0.06263040     1.37014198     0.00004558    -0.00005820     0.00081298
H         0.91526726     0.13995148    -0.62154266    -0.00083756     0.00082613     0.00018500
H         0.82566267    -0.11430349     2.00187826    -0.00056942    -0.00058464    -0.00031004
H        -0.89892413     0.06299420     1.86937269     0.00010413     0.00096197    -0.00000396
H        -1.03514082     0.09182460    -0.61431605     0.00069169    -0.00052241    -0.00017739
     6
  Step:    33            Position(A)                                  Velocity(au)
C        -0.03621367     0.00175808    -0.07093805    -0.00000802     0.00001524    -0.00094766
N        -0.04205820    -0.06296733     1.37471535     0.00006128    -0.00006301     0.00083130
H         0.91053485     0.14460860    -0.62035947    -0.00085754     0.00085091     0.00023478
H         0.82209069    -0.11761701     1.99972899    -0.00070569    -0.00060777    -0.00045418
H        -0.89862124     0.06854457     1.86949167     0.00000383     0.00103555     0.00004823
H        -1.03096665     0.08874461    -0.61504042     0.00080331    -0.00058464    -0.00008841
     6
  Step:    34            Position(A)                                  Velocity(au)
C        -0.03627546     0.00185450    -0.07626181    -0.00001422     0.00001915    -0.00096378
N        -0.04167634    -0.06333028     1.37937484     0.00007504    -0.00006736     0.00084175
H         0.90574293     0.14940215    -0.61893506    -0.00085629     0.00087325     0.00027091
H         0.81782487    -0.12105375     1.99683385    -0.00081525    -0.00062770    -0.00057575
H        -0.89888162     0.07449566     1.86990836    -0.00009656     0.00110324     0.00010196
H        -1.02621876     0.08533122    -0.61529796     0.00089481    -0.00064089    -0.00000989
     6
  Step:    35            Position(A)                                  Velocity(au)
C        -0.03637185     0.00197101    -0.08165737    -0.00002033     0.00002239    -0.00097066
N        -0.04122362    -0.06371652     1.38407742     0.00008625    -0.00007115     0.00084437
H         0.90101104     0.15432103    -0.61734631    -0.00083335     0.00089363     0.00029296
H         0.81302331    -0.12459847     1.99332540    -0.00089404    -0.00064508    -0.00067162
H        -0.89969516     0.08081503     1.87062567    -0.00019266     0.00116443     0.00015489
H        -1.02101443     0.08161650    -0.61515045     0.00096363    -0.00069109     0.00005652
     6
  Step:    36            Position(A)                                  Velocity(au)
C        -0.03650187     0.00210392    -0.08707421    -0.00002614     0.00002495    -0.00096862
N        -0.04071553    -0.06412284     1.38878049     0.00009442    -0.00007432     0.00083952
H         0.89645998     0.15935651    -0.61567168    -0.00078917     0.00091262     0.00030100
H         0.80786589    -0.12823941     1.98935253    -0.00093885    -0.00066063    -0.00073943
H        -0.90102775     0.08746655     1.87163368    -0.00028038     0.00121870     0.00020483
H        -1.01548463     0.07763303    -0.61466838     0.00100787    -0.00073532     0.00010946
     6
  Step:    37            Position(A)                                  Velocity(au)
C        -0.03666351     0.00224939    -0.09246375    -0.00003148     0.00002683    -0.00095836
N        -0.04017027    -0.06454562     1.39344352     0.00009913    -0.00007680     0.00082786
H         0.89220671     0.16450258    -0.61398826    -0.00072506     0.00093084     0.00029563
H         0.80254904    -0.13196875     1.98507605    -0.00094764    -0.00067521    -0.00077781
H        -0.90282315     0.09441140     1.87291079    -0.00035612     0.00126588     0.00024990
H        -1.00977024     0.07341290    -0.61392931     0.00102637    -0.00077392     0.00014793
     6
  Step:    38            Position(A)                                  Velocity(au)
C        -0.03685360     0.00240366    -0.09778144    -0.00003615     0.00002805    -0.00094086
N        -0.03960799    -0.06498094     1.39802972     0.00010016    -0.00007860     0.00081027
H         0.88835935     0.16975632    -0.61236881    -0.00064312     0.00094899     0.00027795
H         0.79727838    -0.13578318     1.98066252    -0.00091975    -0.00068974    -0.00078655
H        -0.90500648     0.10160958     1.87442565    -0.00041713     0.00130612     0.00028868
H        -1.00401754     0.06898644    -0.61301560     0.00101881    -0.00080744     0.00017140
     6
  Step:    39            Position(A)                                  Velocity(au)
C        -0.03706787     0.00256316    -0.10298823    -0.00003996     0.00002867    -0.00091730
N        -0.03904983    -0.06542480     1.40250727     0.00009744    -0.00007969     0.00078781
H         0.88501274     0.17511803    -0.61087908    -0.00054613     0.00096775     0.00024950
H         0.79226072    -0.13968418     1.97627771    -0.00085593    -0.00070515    -0.00076657
H        -0.90748915     0.10902176     1.87613992    -0.00046153     0.00133989     0.00032024
H        -0.99837383     0.06438081    -0.61201208     0.00098560    -0.00083667     0.00017974
     6
  Step:    40            Position(A)                                  Velocity(au)
C        -0.03730099     0.00272464    -0.10805177    -0.00004275     0.00002875    -0.00088895
N        -0.03851697    -0.06587322     1.40685025     0.00009107    -0.00008013     0.00076158
H         0.88224469     0.18059153    -0.60957532    -0.00043732     0.00098777     0.00021211
H         0.78769524    -0.14367816     1.97207982    -0.00075837    -0.00072228    -0.00071990
H        -0.91017393     0.11661129     1.87801109    -0.00048837     0.00136786     0.00034415
H        -0.99298247     0.05961883    -0.61100318     0.00092794    -0.00086252     0.00017334
     6
  Step:    41            Position(A)                                  Velocity(au)
C        -0.03754677     0.00288524    -0.11294678    -0.00004438     0.00002839    -0.00085703
N        -0.03802963    -0.06632241     1.41103887     0.00008128    -0.00007993     0.00073262
H         0.88011368     0.18618359    -0.60850285    -0.00032011     0.00100951     0.00016778
H         0.78376501    -0.14777554     1.96821300    -0.00063052    -0.00074185    -0.00064947
H        -0.91296016     0.12434527     1.87999524    -0.00049751     0.00139087     0.00036041
H        -0.98797854     0.05471837    -0.61007019     0.00084753    -0.00088600     0.00015294
     6
  Step:    42            Position(A)                                  Velocity(au)
C        -0.03779829     0.00304270    -0.11765466    -0.00004475     0.00002768    -0.00082259
N        -0.03760627    -0.06676887     1.41505917     0.00006844    -0.00007918     0.00070188
H         0.87865792     0.19190298    -0.60769536    -0.00019799     0.00103322     0.00011853
H         0.78063030    -0.15199050     1.96480255    -0.00047688    -0.00076436    -0.00055895
H        -0.91574841     0.13219578     1.88204942    -0.00048945     0.00140975     0.00036935
H        -0.98348597     0.04969131    -0.60928948     0.00074654    -0.00090812     0.00011958
     6
  Step:    43            Position(A)                                  Velocity(au)
C        -0.03804813     0.00319532    -0.12216281    -0.00004378     0.00002672    -0.00078653
N        -0.03726290    -0.06720950     1.41890246     0.00005301    -0.00007793     0.00067014
H         0.87789543     0.19775945    -0.60717490    -0.00007438     0.00105892     0.00006634
H         0.77842216    -0.15633922     1.96195074    -0.00030297    -0.00079000    -0.00045257
H        -0.91844376     0.14013968     1.88413331    -0.00046518     0.00142526     0.00037152
H        -0.97961459     0.04454413    -0.60873043     0.00062755    -0.00092975     0.00007462
     6
  Step:    44            Position(A)                                  Velocity(au)
C        -0.03828866     0.00334200    -0.12646356    -0.00004146     0.00002563    -0.00074955
N        -0.03701253    -0.06764163     1.42256447     0.00003556    -0.00007625     0.00063803
H         0.87782487     0.20376250    -0.60695241     0.00004746     0.00108638     0.00001308
H         0.77723719    -0.16083822     1.95973388    -0.00011509    -0.00081862    -0.00033502
H        -0.92095823     0.14815824     1.88621036    -0.00042602     0.00143801     0.00036763
H        -0.97645767     0.03927844    -0.60845374     0.00049357    -0.00095162     0.00001969
     6