     6
  Step:     0            Position(A)                                  Velocity(au)
C        -0.04276442     0.00900995     0.04056970     0.00000349     0.00013186    -0.00014167
N        -0.04822114    -0.04641327     1.28243601    -0.00017154    -0.00009251     0.00019586
H         0.95139903    -0.00502521    -0.53698351     0.00057058    -0.00054785    -0.00003335
H         0.86936915    -0.11385610     1.83380499     0.00069904     0.00033186     0.00019582
H        -0.89949478    -0.08957971     1.82330839     0.00162378     0.00022534    -0.00085036
H        -0.95452952     0.07629478    -0.53270128    -0.00055120    -0.00029501    -0.00034576
     6
  Step:     1            Position(A)                                  Velocity(au)
C        -0.04270758     0.00973958     0.03953357     0.00001724     0.00013500    -0.00023602
N        -0.04911277    -0.04692815     1.28374849    -0.00015246    -0.00009572     0.00028175
H         0.95432926    -0.00802150    -0.53717911     0.00049767    -0.00054785    -0.00003715
H         0.87279185    -0.11201675     1.83473018     0.00054774     0.00034119     0.00013945
H        -0.89085296    -0.08839186     1.81890922     0.00151120     0.00020797    -0.00074147
H        -0.95781116     0.07472485    -0.53492411    -0.00064335    -0.00027977    -0.00046373
     6
  Step:     2            Position(A)                                  Velocity(au)
C        -0.04257584     0.01048674     0.03798783     0.00003075     0.00013820    -0.00032734
N        -0.04988895    -0.04746038     1.28551809    -0.00012944    -0.00009879     0.00036234
H         0.95684312    -0.01101814    -0.53738987     0.00041883    -0.00054779    -0.00003928
H         0.87536091    -0.11012382     1.83533050     0.00038857     0.00035118     0.00007821
H        -0.88296366    -0.08730472     1.81519736     0.00134866     0.00018856    -0.00059926
H        -0.96156715     0.07323436    -0.53777400    -0.00072374    -0.00026590    -0.00057429
     6
  Step:     3            Position(A)                                  Velocity(au)
C        -0.04237114     0.01125159     0.03595222     0.00004377     0.00014136    -0.00041439
N        -0.05052894    -0.04800899     1.28771274    -0.00010286    -0.00010163     0.00043648
H         0.95891154    -0.01401472    -0.53760887     0.00033529    -0.00054753    -0.00004053
H         0.87704313    -0.10817456     1.83558583     0.00022516     0.00036145     0.00001450
H        -0.87609757    -0.08632886     1.81235283     0.00113823     0.00016736    -0.00042542
H        -0.96572942     0.07181570    -0.54120732    -0.00079093    -0.00025338    -0.00067621
     6
  Step:     4            Position(A)                                  Velocity(au)
C        -0.04209680     0.01203375     0.03345289     0.00005606     0.00014438    -0.00049599
N        -0.05101460    -0.04857261     1.29029478    -0.00007330    -0.00010417     0.00050322
H         0.96051245    -0.01701009    -0.53783345     0.00024841    -0.00054690    -0.00004168
H         0.87782499    -0.10616829     1.83548921     0.00006119     0.00037159    -0.00004923
H        -0.87050728    -0.08547324     1.81054168     0.00088467     0.00014470    -0.00022353
H        -0.97022281     0.07046146    -0.54517416    -0.00084370    -0.00024214    -0.00076832
     6
  Step:     5            Position(A)                                  Velocity(au)
C        -0.04175742     0.01283225     0.03052213     0.00006735     0.00014713    -0.00057097
N        -0.05133140    -0.04914948     1.29322201    -0.00004154    -0.00010633     0.00056176
H         0.96163117    -0.02000218    -0.53806513     0.00015961    -0.00054568    -0.00004345
H         0.87771306    -0.10410638     1.83504681    -0.00009952     0.00038120    -0.00011056
H        -0.86641215    -0.08474465     1.80990560     0.00059558     0.00012105     0.00000088
H        -0.97496633     0.06916469    -0.54961894    -0.00088105    -0.00023207    -0.00084958
     6
  Step:     6            Position(A)                                  Velocity(au)
C        -0.04135895     0.01364550     0.02719811     0.00007742     0.00014949    -0.00063823
N        -0.05146964    -0.04973747     1.29644863    -0.00000858    -0.00010804     0.00061148
H         0.96226096    -0.02298779    -0.53830947     0.00007046    -0.00054363    -0.00004658
H         0.87673482    -0.10199236     1.83427808    -0.00025295     0.00038986    -0.00016699
H        -0.86398288    -0.08414721     1.81055133     0.00028139     0.00009692     0.00024037
H        -0.97987441     0.06791919    -0.55448103    -0.00090222    -0.00022300    -0.00091903
     6
  Step:     7            Position(A)                                  Velocity(au)
C        -0.04090855     0.01447123     0.02352463     0.00008603     0.00015132    -0.00069671
N        -0.05142551    -0.05033407     1.29992622     0.00002439    -0.00010923     0.00065194
H         0.96240368    -0.02596254    -0.53857581    -0.00001735    -0.00054052    -0.00005171
H         0.87493977    -0.09983196     1.83321598    -0.00039487     0.00039715    -0.00021601
H        -0.86332700    -0.08368199     1.81254101    -0.00004507     0.00007293     0.00048590
H        -0.98485824     0.06671971    -0.55969516    -0.00090676    -0.00021474    -0.00097584
     6
  Step:     8            Position(A)                                  Velocity(au)
C        -0.04041462     0.01530643     0.01955085     0.00009296     0.00015249    -0.00074543
N        -0.05120198    -0.05093642     1.30360451     0.00005606    -0.00010983     0.00068284
H         0.96207055    -0.02892067    -0.53887701    -0.00010197    -0.00053608    -0.00005942
H         0.87240057    -0.09763316     1.83190705    -0.00052093     0.00040264    -0.00025517
H        -0.86447758    -0.08334677     1.81588469    -0.00036934     0.00004967     0.00072737
H        -0.98982724     0.06556210    -0.56519207    -0.00089450    -0.00020708    -0.00101926
     6
  Step:     9            Position(A)                                  Velocity(au)
C        -0.03988671     0.01614741     0.01533084     0.00009801     0.00015287    -0.00078355
N        -0.05080932    -0.05154129     1.30743204     0.00008508    -0.00010977     0.00070403
H         0.96128280    -0.03185514    -0.53922897    -0.00018149    -0.00053009    -0.00007020
H         0.86921371    -0.09540606     1.83041118    -0.00062675     0.00040598    -0.00028210
H        -0.86738678    -0.08313607     1.82053634    -0.00067640     0.00002773     0.00095441
H        -0.99469060     0.06444346    -0.57089897    -0.00086563    -0.00019979    -0.00104876
     6
  Step:    10            Position(A)                                  Velocity(au)
C        -0.03933534     0.01698979     0.01092277     0.00010104     0.00015237    -0.00081048
N        -0.05026511    -0.05214518     1.31135692     0.00011017    -0.00010903     0.00071555
H         0.96007210    -0.03475772    -0.53965003    -0.00025397    -0.00052240    -0.00008440
H         0.86549916    -0.09316268     1.82880073    -0.00070826     0.00040688    -0.00029475
H        -0.87192571    -0.08304137     1.82639417    -0.00095198     0.00000766     0.00115724
H        -0.99935913     0.06336210    -0.57674048    -0.00082082    -0.00019267    -0.00106406
     6
  Step:    11            Position(A)                                  Velocity(au)
C        -0.03877180     0.01782870     0.00638780     0.00010195     0.00015092    -0.00082591
N        -0.04959363    -0.05274433     1.31532767     0.00013024    -0.00010757     0.00071766
H         0.95848047    -0.03761943    -0.54016022    -0.00031759    -0.00051297    -0.00010220
H         0.86139859    -0.09091646     1.82715886    -0.00076200     0.00040517    -0.00029150
H        -0.87789119    -0.08305159     1.83330568    -0.00118389    -0.00001016     0.00132761
H        -1.00374777     0.06231752    -0.58264010    -0.00076125    -0.00018552    -0.00106528
     6
  Step:    12            Position(A)                                  Velocity(au)
C        -0.03820779     0.01865897     0.00178831     0.00010073     0.00014852    -0.00082998
N        -0.04882465    -0.05333493     1.31929419     0.00014449    -0.00010543     0.00071087
H         0.95655958    -0.04043111    -0.54078035    -0.00037083    -0.00050192    -0.00012365
H         0.85707148    -0.08868156     1.82557679    -0.00078558     0.00040088    -0.00027139
H        -0.88501942    -0.08315369     1.84107745    -0.00136319    -0.00002543     0.00145962
H        -1.00777843     0.06131025    -0.58852238    -0.00068865    -0.00017823    -0.00105307
     6
  Step:    13            Position(A)                                  Velocity(au)
C        -0.03765498     0.01947542    -0.00281431     0.00009747     0.00014524    -0.00082334
N        -0.04799163    -0.05391326     1.32320920     0.00015251    -0.00010266     0.00069602
H         0.95436907    -0.04318426    -0.54153115    -0.00041257    -0.00048955    -0.00014865
H         0.85268876    -0.08647182     1.82414992    -0.00077803     0.00039426    -0.00023427
H        -0.89300507    -0.08333349     1.84948866    -0.00148495    -0.00003804     0.00155022
H        -1.01138288     0.06034150    -0.59431559    -0.00060525    -0.00017072    -0.00102863
     6
  Step:    14            Position(A)                                  Velocity(au)
C        -0.03712449     0.02027321    -0.00736242     0.00009233     0.00014120    -0.00080711
N        -0.04712962    -0.05447594     1.32702995     0.00015430    -0.00009938     0.00067426
H         0.95197416    -0.04587203    -0.54243247    -0.00044229    -0.00047635    -0.00017700
H         0.84842429    -0.08429964     1.82297304    -0.00074004     0.00038577    -0.00018084
H        -0.90152343    -0.08357645     1.85830688    -0.00154848    -0.00004804     0.00159941
H        -1.01450535     0.05941288    -0.59995480    -0.00051363    -0.00016299    -0.00099373
     6
  Step:    15            Position(A)                                  Velocity(au)
C        -0.03662646     0.02104829    -0.01180476     0.00008557     0.00013661    -0.00078290
N        -0.04627291    -0.05502021     1.33071976     0.00015024    -0.00009572     0.00064697
H         0.94944235    -0.04849028    -0.54350272    -0.00046010    -0.00046297    -0.00020844
H         0.84444546    -0.08217472     1.82213554    -0.00067392     0.00037607    -0.00011256
H        -0.91025362    -0.08386858     1.86730455    -0.00155702    -0.00005562     0.00161002
H        -1.01710422     0.05852594    -0.60538480    -0.00041645    -0.00015512    -0.00095059
     6
  Step:    16            Position(A)                                  Velocity(au)
C        -0.03616958     0.02179765    -0.01609889     0.00007748     0.00013169    -0.00075255
N        -0.04545306    -0.05554410     1.33424962     0.00014103    -0.00009187     0.00061572
H         0.94683981    -0.05103840    -0.54475852    -0.00046671    -0.00045018    -0.00024275
H         0.84090391    -0.08010304     1.82171699    -0.00058338     0.00036595    -0.00003148
H        -0.91889848    -0.08419710     1.87627335    -0.00151673    -0.00006108     0.00158696
H        -1.01915257     0.05768182    -0.61056252    -0.00031624    -0.00014723    -0.00090164
     6
  Step:    17            Position(A)                                  Velocity(au)
C        -0.03576085     0.02251957    -0.02021260     0.00006836     0.00012668    -0.00071798
N        -0.04469725    -0.05604661     1.33759890     0.00012754    -0.00008800     0.00058204
H         0.94422807    -0.05351983    -0.54621480    -0.00046328    -0.00043872    -0.00027972
H         0.83792773    -0.07808616     1.82178386    -0.00047304     0.00035625     0.00006001
H        -0.92719922    -0.08455101     1.88503471    -0.00143545    -0.00006481     0.00153630
H        -1.02063738     0.05688105    -0.61545834    -0.00021514    -0.00013942    -0.00084933
     6
  Step:    18            Position(A)                                  Velocity(au)
C        -0.03540554     0.02321364    -0.02412411     0.00005856     0.00012370    -0.00073139
N        -0.04402746    -0.05652768     1.34075533     0.00011122    -0.00008618     0.00058689
H         0.94166155    -0.05594211    -0.54788509    -0.00048405    -0.00046455    -0.00028038
H         0.83561653    -0.07612105     1.82238776    -0.00037024     0.00039108     0.00014789
H        -0.93494310    -0.08492146     1.89344528    -0.00130532    -0.00010974     0.00144621
H        -1.02155729     0.05612344    -0.62005587    -0.00008377    -0.00009316    -0.00075404
     6
  Step:    19            Position(A)                                  Velocity(au)
C        -0.03510648     0.02390189    -0.02838598     0.00004831     0.00012277    -0.00079297
N        -0.04345431    -0.05700967     1.34415741     0.00009279    -0.00008645     0.00063065
H         0.93881875    -0.05871118    -0.54934803    -0.00052835    -0.00051879    -0.00024553
H         0.83379029    -0.07371576     1.82343659    -0.00027931     0.00046064     0.00022800
H        -0.94178628    -0.08577740     1.90119624    -0.00113290    -0.00018664     0.00132149
H        -1.02157355     0.05584001    -0.62388481     0.00007534    -0.00001674    -0.00061859
     6
  Step:    20            Position(A)                                  Velocity(au)
C        -0.03486594     0.02458478    -0.03298042     0.00003771     0.00012189    -0.00085046
N        -0.04299109    -0.05749321     1.34779871     0.00007233    -0.00008681     0.00067238
H         0.93576065    -0.06173622    -0.55062728    -0.00056131    -0.00056057    -0.00021592
H         0.83249704    -0.07097642     1.82493418    -0.00018044     0.00051551     0.00030931
H        -0.94759589    -0.08700591     1.90820430    -0.00094078    -0.00024737     0.00118496
H        -1.02071585     0.05593645    -0.62696463     0.00022804     0.00004636    -0.00048793
     6
  Step:    21            Position(A)                                  Velocity(au)
C        -0.03468561     0.02526215    -0.03787711     0.00002684     0.00012096    -0.00090227
N        -0.04264712    -0.05797845     1.35166120     0.00005050    -0.00008717     0.00071063
H         0.93255454    -0.06496719    -0.55175768    -0.00058195    -0.00059516    -0.00019296
H         0.83177657    -0.06796267     1.82688846    -0.00007568     0.00056167     0.00039175
H        -0.95228537    -0.08853811     1.91442045    -0.00073600    -0.00029772     0.00104160
H        -1.01902865     0.05635742    -0.62933011     0.00037200     0.00010128    -0.00036414
     6
  Step:    22            Position(A)                                  Velocity(au)
C        -0.03456660     0.02593358    -0.04304178     0.00001582     0.00011991    -0.00094775
N        -0.04242798    -0.05846526     1.35572310     0.00002794    -0.00008748     0.00074482
H         0.92927127    -0.06837299    -0.55277903    -0.00058963    -0.00062515    -0.00017733
H         0.83165316    -0.06471318     1.82930267     0.00003197     0.00060202     0.00047415
H        -0.95580317    -0.09032582     1.91981930    -0.00052423    -0.00034060     0.00089502
H        -1.01656765     0.05706579    -0.63102522     0.00050518     0.00015059    -0.00024866
     6
  Step:    23            Position(A)                                  Velocity(au)
C        -0.03450936     0.02659836    -0.04843809     0.00000476     0.00011870    -0.00098644
N        -0.04233582    -0.05895330     1.35996084     0.00000525    -0.00008770     0.00077456
H         0.92598422    -0.07193332    -0.55373366    -0.00058391    -0.00065196    -0.00016932
H         0.83213286    -0.06125430     1.83217198     0.00013906     0.00063818     0.00055478
H        -0.95812696    -0.09233346     1.92439382    -0.00031038    -0.00037778     0.00074821
H        -1.01339931     0.05803542    -0.63210100     0.00062552     0.00019590    -0.00014271
     6
  Step:    24            Position(A)                                  Velocity(au)
C        -0.03451357     0.02725552    -0.05402797    -0.00000616     0.00011725    -0.00101793
N        -0.04236949    -0.05944199     1.36434948    -0.00001696    -0.00008776     0.00079954
H         0.92276815    -0.07563405    -0.55466474    -0.00056461    -0.00067644    -0.00016898
H         0.83320189    -0.05760567     1.83548137     0.00024191     0.00067104     0.00063166
H        -0.95925990    -0.09453321     1.92815222    -0.00009901    -0.00041039     0.00060381
H        -1.00960110     0.05924758    -0.63261465     0.00073082     0.00023829    -0.00004748
     6
  Step:    25            Position(A)                                  Velocity(au)
C        -0.03457796     0.02790376    -0.05977156    -0.00001675     0.00011550    -0.00104184
N        -0.04252464    -0.05993044     1.36886277    -0.00003810    -0.00008762     0.00081949
H         0.91969796    -0.07946475    -0.55561503    -0.00053183    -0.00069905    -0.00017612
H         0.83482621    -0.05378307     1.83920478     0.00033683     0.00070104     0.00070271
H        -0.95922936    -0.09690271     1.93111652     0.00010539    -0.00043922     0.00046434
H        -1.00526248     0.06068852    -0.63262968     0.00081873     0.00027846     0.00003579
     6
  Step:    26            Position(A)                                  Velocity(au)
C        -0.03470007     0.02854150    -0.06562740    -0.00002677     0.00011342    -0.00105792
N        -0.04279373    -0.06041749     1.37347330    -0.00005761    -0.00008721     0.00083420
H         0.91684695    -0.08341693    -0.55662555    -0.00048611    -0.00072001    -0.00019031
H         0.83695200    -0.04980058     1.84330500     0.00042035     0.00072835     0.00076594
H        -0.95808656    -0.09942328     1.93332204     0.00029837    -0.00046481     0.00033233
H        -1.00048575     0.06234781    -0.63221617     0.00088688     0.00031687     0.00010587
     6
  Step:    27            Position(A)                                  Velocity(au)
C        -0.03487607     0.02916686    -0.07155278    -0.00003595     0.00011096    -0.00106602
N        -0.04316615    -0.06090165     1.37815263    -0.00007492    -0.00008650     0.00084355
H         0.91428451    -0.08748295    -0.55773439    -0.00042845    -0.00073941    -0.00021091
H         0.83950729    -0.04567200     1.84773443     0.00048941     0.00075294     0.00081960
H        -0.95590659    -0.10207900     1.93481739     0.00047553    -0.00048761     0.00021025
H        -0.99538593     0.06421731    -0.63145073     0.00093310     0.00035387     0.00016159
     6
  Step:    28            Position(A)                                  Velocity(au)
C        -0.03510063     0.02977778    -0.07750458    -0.00004402     0.00010810    -0.00106624
N        -0.04362850    -0.06138120     1.38287174    -0.00008958    -0.00008544     0.00084752
H         0.91207340    -0.09165506    -0.55897537    -0.00036036    -0.00075725    -0.00023702
H         0.84240479    -0.04141167     1.85243667     0.00054160     0.00077472     0.00086236
H        -0.95278845    -0.10485600     1.93566455     0.00063260    -0.00050801     0.00010055
H        -0.99008957     0.06629046    -0.63041580     0.00095556     0.00038968     0.00020201
     6
  Step:    29            Position(A)                                  Velocity(au)
C        -0.03536688     0.03037209    -0.08344024    -0.00005071     0.00010484    -0.00105886
N        -0.04416486    -0.06185419     1.38760160    -0.00010117    -0.00008401     0.00084624
H         0.91026686    -0.09592547    -0.56037693    -0.00028386    -0.00077354    -0.00026760
H         0.84554551    -0.03703467     1.85734878     0.00057527     0.00079362     0.00089333
H        -0.94885378    -0.10774274     1.93593837     0.00076569    -0.00052644     0.00000548
H        -0.98473243     0.06856178    -0.62919854     0.00095297     0.00042449     0.00022645
     6
  Step:    30            Position(A)                                  Velocity(au)
C        -0.03566639     0.03094760    -0.08931896    -0.00005575     0.00010120    -0.00104440
N        -0.04475729    -0.06231855     1.39231385    -0.00010939    -0.00008220     0.00083998
H         0.90890620    -0.10028597    -0.56196113    -0.00020131    -0.00078828    -0.00030143
H         0.84882342    -0.03255677     1.86240413     0.00058966     0.00080957     0.00091221
H        -0.94424514    -0.11072989     1.93572573     0.00087142    -0.00054336    -0.00007294
H        -0.97945663     0.07102673    -0.62788912     0.00092474     0.00045846     0.00023465
     6
  Step:    31            Position(A)                                  Velocity(au)
C        -0.03598944     0.03150220    -0.09510299    -0.00005896     0.00009720    -0.00102361
N        -0.04538644    -0.06277213     1.39698156    -0.00011407    -0.00008002     0.00082912
H         0.90801880    -0.10472807    -0.56374302    -0.00011534    -0.00080147    -0.00033729
H         0.85213013    -0.02799426     1.86753540     0.00058487     0.00082266     0.00091925
H        -0.93912267    -0.11381034     1.93512384     0.00094709    -0.00055926    -0.00013310
H        -0.97440598     0.07368135    -0.62657819     0.00087112     0.00049182     0.00022683
     6
  Step:    32            Position(A)                                  Velocity(au)
C        -0.03632531     0.03203386    -0.10075869    -0.00006020     0.00009286    -0.00099738
N        -0.04603213    -0.06321281     1.40157992    -0.00011513    -0.00007747     0.00081416
H         0.90761715    -0.10924311    -0.56573059    -0.00002862    -0.00081319    -0.00037393
H         0.85535986    -0.02336282     1.87267750     0.00056183     0.00083310     0.00091516
H        -0.93366057    -0.11698013     1.93423824     0.00099083    -0.00057478    -0.00017384
H        -0.96972118     0.07652326    -0.62535416     0.00079322     0.00052487     0.00020367
     6
  Step:    33            Position(A)                                  Velocity(au)
C        -0.03666269     0.03254074    -0.10625743    -0.00005941     0.00008823    -0.00096672
N        -0.04667405    -0.06363852     1.40608684    -0.00011263    -0.00007458     0.00079567
H         0.90769868    -0.11382254    -0.56792496     0.00005624    -0.00082352    -0.00041023
H         0.85841350    -0.01867713     1.87777023     0.00052210     0.00084117     0.00090107
H        -0.92804149    -0.12023845     1.93317964     0.00100180    -0.00059050    -0.00019462
H        -0.96553487     0.07955133    -0.62430043     0.00069301     0.00055787     0.00016637
     6
  Step:    34            Position(A)                                  Velocity(au)
C        -0.03699014     0.03302120    -0.11157617    -0.00005663     0.00008336    -0.00093266
N        -0.04729246    -0.06404737     1.41048334    -0.00010673    -0.00007138     0.00077425
H         0.90824650    -0.11845820    -0.57032097     0.00013688    -0.00083258    -0.00044516
H         0.86120204    -0.01395021     1.88276032     0.00046770     0.00084726     0.00087838
H        -0.92245057    -0.12358773     1.93206043     0.00098015    -0.00060704    -0.00019551
H        -0.96196653     0.08276574    -0.62349245     0.00057326     0.00059109     0.00011661
     6
  Step:    35            Position(A)                                  Velocity(au)
C        -0.03729664     0.03347383    -0.11669756    -0.00005198     0.00007827    -0.00089619
N        -0.04786877    -0.06443760     1.41475376    -0.00009768    -0.00006791     0.00075049
H         0.90923093    -0.12314245    -0.57290804     0.00021124    -0.00084050    -0.00047788
H         0.86364894    -0.00919294     1.88760273     0.00040099     0.00085178     0.00084862
H        -0.91706967    -0.12703361     1.93099116     0.00092708    -0.00062496    -0.00017717
H        -0.95911781     0.08616793    -0.62299511     0.00043744     0.00062477     0.00005641
     6
  Step:    36            Position(A)                                  Velocity(au)
C        -0.03757205     0.03389746    -0.12160973    -0.00004563     0.00007300    -0.00085823
N        -0.04838607    -0.06480769     1.41888565    -0.00008582    -0.00006419     0.00072493
H         0.91061145    -0.12786830    -0.57567121     0.00027761    -0.00084738    -0.00050771
H         0.86569148    -0.00441379     1.89226135     0.00032445     0.00085519     0.00081339
H        -0.91207115    -0.13058464     1.93007682     0.00084479    -0.00064473    -0.00014095
H        -0.95706904     0.08976050    -0.62286090     0.00028950     0.00065910    -0.00001191
     6
  Step:    37            Position(A)                                  Velocity(au)
C        -0.03780747     0.03429113    -0.12630583    -0.00003784     0.00006759    -0.00081955
N        -0.04882961    -0.06515628     1.42286966    -0.00007157    -0.00006027     0.00069805
H         0.91233894    -0.13262929    -0.57859210     0.00033471    -0.00085330    -0.00053413
H         0.86728130     0.00038129     1.89670903     0.00024057     0.00085789     0.00077420
H        -0.90761188    -0.13425171     1.92941314     0.00073644    -0.00066671    -0.00008875
H        -0.95587670     0.09354682    -0.62312848     0.00013378     0.00069418    -0.00008586
     6
  Step:    38            Position(A)                                  Velocity(au)
C        -0.03799562     0.03465404    -0.13078321    -0.00002892     0.00006206    -0.00078081
N        -0.04918718    -0.06548226     1.42669911    -0.00005539    -0.00005616     0.00067027
H         0.91435793    -0.13741947    -0.58164984     0.00038158    -0.00085828    -0.00055676
H         0.86838427     0.00518877     1.90092718     0.00015181     0.00086027     0.00073247
H        -0.90382794    -0.13804728     1.92908339     0.00060609    -0.00069107    -0.00002303
H        -0.95557161     0.09753062    -0.62382191    -0.00002516     0.00073002    -0.00016282
     6
  Step:    39            Position(A)                                  Velocity(au)
C        -0.03813106     0.03498559    -0.13504277    -0.00001920     0.00005644    -0.00074252
N        -0.04944939    -0.06578473     1.43036969    -0.00003780    -0.00005192     0.00064194
H         0.91660864    -0.14223312    -0.58482195     0.00041762    -0.00086234    -0.00057534
H         0.86897994     0.01000731     1.90490509     0.00006049     0.00086266     0.00068951
H        -0.90082994    -0.14198446     1.92915544     0.00045857    -0.00071782     0.00005329
H        -0.95615824     0.10171539    -0.62495040    -0.00018270     0.00076650    -0.00024022
     6
  Step:    40            Position(A)                                  Velocity(au)
C        -0.03821033     0.03528533    -0.13908812    -0.00000902     0.00005075    -0.00070505
N        -0.04960993    -0.06606302     1.43387908    -0.00001935    -0.00004759     0.00061334
H         0.91902890    -0.14706463    -0.58808494     0.00044252    -0.00086544    -0.00058974
H         0.86906089     0.01483752     1.90863925    -0.00003113     0.00086536     0.00064649
H        -0.89869891    -0.14607603     1.92967944     0.00029935    -0.00074680     0.00013691
H        -0.95761512     0.10610379    -0.62650870    -0.00033434     0.00080341    -0.00031554
     6
  Step:    41            Position(A)                                  Velocity(au)
C        -0.03823193     0.03555298    -0.14292487     0.00000125     0.00004502    -0.00066868
N        -0.04966570    -0.06631673     1.43722659    -0.00000063    -0.00004320     0.00058473
H         0.92155577    -0.15190835    -0.59141496     0.00045624    -0.00086753    -0.00059990
H         0.86863194     0.01968167     1.91213251    -0.00012095     0.00086861     0.00060445
H        -0.89748332    -0.15033332     1.93068603     0.00013437    -0.00077763     0.00022427
H        -0.95989606     0.11069712    -0.62847800    -0.00047586     0.00084043    -0.00038648
     6
  Step:    42            Position(A)                                  Velocity(au)
C        -0.03819634     0.03578840    -0.14655999     0.00001130     0.00003927    -0.00063359
N        -0.04961693    -0.06654576     1.44041292     0.00001778    -0.00003882     0.00055631
H         0.92412695    -0.15675847    -0.59478825     0.00045898    -0.00086854    -0.00060585
H         0.86770937     0.02454349     1.91539342    -0.00020700     0.00087263     0.00056435
H        -0.89719745    -0.15476532     1.93218550    -0.00003026    -0.00080980     0.00031174
H        -0.96293244     0.11549481    -0.63082729    -0.00060348     0.00087718    -0.00045100
     6
  Step:    43            Position(A)                                  Velocity(au)
C        -0.03810576     0.03599163    -0.15000138     0.00002081     0.00003354    -0.00059991
N        -0.04946708    -0.06675030     1.44343992     0.00003532    -0.00003450     0.00052825
H         0.92668198    -0.16160898    -0.59818154     0.00045113    -0.00086844    -0.00060769
H         0.86632004     0.02942795     1.91843559    -0.00028743     0.00087761     0.00052702
H        -0.89782125    -0.15937782     1.93416783    -0.00018850    -0.00084267     0.00039576
H        -0.96663617     0.12049413    -0.63351515    -0.00071398     0.00091322    -0.00050739
     6
  Step:    44            Position(A)                                  Velocity(au)
C        -0.03796398     0.03616288    -0.15325735     0.00002954     0.00002786    -0.00056767
N        -0.04922266    -0.06693091     1.44631034     0.00005144    -0.00003030     0.00050071
H         0.92916331    -0.16645373    -0.60157246     0.00043327    -0.00086719    -0.00060560
H         0.86450048     0.03434115     1.92127706    -0.00036060     0.00088374     0.00049322
H        -0.89930182    -0.16417286     1.93660373    -0.00033470    -0.00087552     0.00047302
H        -0.97090332     0.12568993    -0.63649174    -0.00080487     0.00094811    -0.00055431
     6