 Fermi distribution function

Calculation with static geometry


********************************************************************************
 iSCC Total electronic   Diff electronic      SCC error    
   10   -0.53894740E+01   -0.42810200E-12    0.45094822E-07
********************************************************************************

 Total charge:     1.00000000

 Atomic gross charges (e)
 Atom           Charge
    1       0.14840873
    2      -0.03963708
    3       0.19867335
    4       0.27815183
    5       0.26563976
    6       0.14876342

Nr. of electrons (up):     12.00000000
Atom populations (up)
 Atom       Population
    1       3.85159127
    2       5.03963708
    3       0.80132665
    4       0.72184817
    5       0.73436024
    6       0.85123658

l-shell populations (up)
 Atom Sh.   l       Population
    1   1   0       1.33324640
    1   2   1       2.51834487
    2   1   0       1.44475777
    2   2   1       3.59487931
    3   1   0       0.80132665
    4   1   0       0.72184817
    5   1   0       0.73436024
    6   1   0       0.85123658

Orbital populations (up)
 Atom Sh.   l   m       Population  Label
    1   1   0   0       1.33324640  s
    1   2   1  -1       0.58994429  p_y
    1   2   1   0       0.87196462  p_z
    1   2   1   1       1.05643597  p_x
    2   1   0   0       1.44475777  s
    2   2   1  -1       1.29944653  p_y
    2   2   1   0       1.10335619  p_z
    2   2   1   1       1.19207658  p_x
    3   1   0   0       0.80132665  s
    4   1   0   0       0.72184817  s
    5   1   0   0       0.73436024  s
    6   1   0   0       0.85123658  s

Fermi level:                        -0.5024742275 H          -13.6730 eV
Band energy:                        -8.9208192394 H         -242.7478 eV
TS:                                  0.0000000000 H            0.0000 eV
Band free energy (E-TS):            -8.9208192394 H         -242.7478 eV
Extrapolated E(0K):                 -8.9208192394 H         -242.7478 eV
Input / Output electrons (q):     12.0000000000     12.0000000000

Energy H0:                          -5.5235127773 H         -150.3024 eV
Energy SCC:                          0.1340387612 H            3.6474 eV
Total Electronic energy:            -5.3894740162 H         -146.6550 eV
Repulsive energy:                    0.1796230050 H            4.8878 eV
Total energy:                       -5.2098510112 H         -141.7673 eV
Extrapolated to 0:                  -5.2098510112 H         -141.7673 eV
Total Mermin free energy:           -5.2098510112 H         -141.7673 eV
Force related energy:               -5.2098510112 H         -141.7673 eV

SCC converged

Excitation Energy:                   0.1295659887 H            3.5257 eV

Total Forces
    1      0.007231695001      0.014237011078      0.043633785073
    2     -0.005483422580     -0.010713142900     -0.039016508396
    3     -0.007124007516     -0.000278008226     -0.001936161986
    4     -0.006317413645     -0.002931787393      0.003836905658
    5      0.012536686866      0.004593068245     -0.003547894893
    6     -0.000843538127     -0.004907140803     -0.002970125456

Maximal derivative component:        0.436338E-01 au


