 Fermi distribution function

Calculation with static geometry


********************************************************************************
 iSCC Total electronic   Diff electronic      SCC error    
    9   -0.53837146E+01   -0.36266989E-10    0.50997653E-06
********************************************************************************

 Total charge:     1.00000000

 Atomic gross charges (e)
 Atom           Charge
    1       0.21204321
    2      -0.08097430
    3       0.16718737
    4       0.26643779
    5       0.26955527
    6       0.16575065

Nr. of electrons (up):     12.00000000
Atom populations (up)
 Atom       Population
    1       3.78795679
    2       5.08097430
    3       0.83281263
    4       0.73356221
    5       0.73044473
    6       0.83424935

l-shell populations (up)
 Atom Sh.   l       Population
    1   1   0       1.32804333
    1   2   1       2.45991346
    2   1   0       1.44918786
    2   2   1       3.63178644
    3   1   0       0.83281263
    4   1   0       0.73356221
    5   1   0       0.73044473
    6   1   0       0.83424935

Orbital populations (up)
 Atom Sh.   l   m       Population  Label
    1   1   0   0       1.32804333  s
    1   2   1  -1       0.54162794  p_y
    1   2   1   0       0.89614896  p_z
    1   2   1   1       1.02213657  p_x
    2   1   0   0       1.44918786  s
    2   2   1  -1       1.32642581  p_y
    2   2   1   0       1.13368015  p_z
    2   2   1   1       1.17168048  p_x
    3   1   0   0       0.83281263  s
    4   1   0   0       0.73356221  s
    5   1   0   0       0.73044473  s
    6   1   0   0       0.83424935  s

Fermi level:                        -0.5126353462 H          -13.9495 eV
Band energy:                        -8.9206576090 H         -242.7434 eV
TS:                                  0.0000000000 H            0.0000 eV
Band free energy (E-TS):            -8.9206576090 H         -242.7434 eV
Extrapolated E(0K):                 -8.9206576090 H         -242.7434 eV
Input / Output electrons (q):     12.0000000000     12.0000000000

Energy H0:                          -5.5200887949 H         -150.2093 eV
Energy SCC:                          0.1363741932 H            3.7109 eV
Total Electronic energy:            -5.3837146018 H         -146.4983 eV
Repulsive energy:                    0.1732011769 H            4.7130 eV
Total energy:                       -5.2105134249 H         -141.7853 eV
Extrapolated to 0:                  -5.2105134249 H         -141.7853 eV
Total Mermin free energy:           -5.2105134249 H         -141.7853 eV
Force related energy:               -5.2105134249 H         -141.7853 eV

SCC converged

Excitation Energy:                   0.1501592019 H            4.0860 eV

Total Forces
    1      0.000703364238     -0.002093274814      0.044313044089
    2     -0.005687789762      0.029709392911     -0.050880159012
    3     -0.011909494830     -0.000796904544     -0.000157396577
    4      0.003277523344     -0.011730221709      0.004133067029
    5      0.002041384537     -0.009438228198      0.003774815040
    6      0.011575012472     -0.005650763646     -0.001183370568

Maximal derivative component:        0.508802E-01 au


