 Fermi distribution function

Calculation with static geometry


********************************************************************************
 iSCC Total electronic   Diff electronic      SCC error    
    9   -0.54558990E+01   -0.12256862E-12    0.38378353E-06
********************************************************************************

 Total charge:     1.00000000

 Atomic gross charges (e)
 Atom           Charge
    1       0.16202572
    2      -0.02876806
    3       0.16428284
    4       0.27341960
    5       0.26861942
    6       0.16042048

Nr. of electrons (up):     12.00000000
Atom populations (up)
 Atom       Population
    1       3.83797428
    2       5.02876806
    3       0.83571716
    4       0.72658040
    5       0.73138058
    6       0.83957952

l-shell populations (up)
 Atom Sh.   l       Population
    1   1   0       1.29843063
    1   2   1       2.53954365
    2   1   0       1.42342649
    2   2   1       3.60534157
    3   1   0       0.83571716
    4   1   0       0.72658040
    5   1   0       0.73138058
    6   1   0       0.83957952

Orbital populations (up)
 Atom Sh.   l   m       Population  Label
    1   1   0   0       1.29843063  s
    1   2   1  -1       0.60771372  p_y
    1   2   1   0       0.87936072  p_z
    1   2   1   1       1.05246920  p_x
    2   1   0   0       1.42342649  s
    2   2   1  -1       1.34809256  p_y
    2   2   1   0       1.10323272  p_z
    2   2   1   1       1.15401629  p_x
    3   1   0   0       0.83571716  s
    4   1   0   0       0.72658040  s
    5   1   0   0       0.73138058  s
    6   1   0   0       0.83957952  s

Fermi level:                        -0.4897763706 H          -13.3275 eV
Band energy:                        -9.0032700197 H         -244.9914 eV
TS:                                  0.0000000000 H            0.0000 eV
Band free energy (E-TS):            -9.0032700197 H         -244.9914 eV
Extrapolated E(0K):                 -9.0032700197 H         -244.9914 eV
Input / Output electrons (q):     12.0000000000     12.0000000000

Energy H0:                          -5.5903856745 H         -152.1221 eV
Energy SCC:                          0.1344867018 H            3.6596 eV
Total Electronic energy:            -5.4558989727 H         -148.4626 eV
Repulsive energy:                    0.2041275554 H            5.5546 eV
Total energy:                       -5.2517714173 H         -142.9080 eV
Extrapolated to 0:                  -5.2517714173 H         -142.9080 eV
Total Mermin free energy:           -5.2517714173 H         -142.9080 eV
Force related energy:               -5.2517714173 H         -142.9080 eV

SCC converged

Excitation Energy:                   0.1811853487 H            4.9303 eV

Total Forces
    1      0.002188541576     -0.014033478827     -0.025596589913
    2      0.005801923616      0.006112493748      0.005285146120
    3     -0.002878014007      0.006664049214      0.004495452974
    4     -0.006083901529     -0.001809912497      0.004775727484
    5      0.000005297091      0.000557631583      0.007588221645
    6      0.000966153253      0.002509216779      0.003452041689

Maximal derivative component:        0.255966E-01 au


