    14
  Step:     0            Position(A)                                  Velocity(au)
C        -5.96035830    -0.71561768    -0.19503028    -0.00002836    -0.00018542     0.00004749
C        -4.72204382    -0.72637650     0.22298267    -0.00005765     0.00016313    -0.00002289
H        -6.42349617     0.12468791    -0.74459295     0.00031278    -0.00049492     0.00063041
H        -6.72791937    -1.50132594     0.08965649    -0.00060010     0.00013619     0.00005159
H        -4.29710685    -1.59442409     0.75106184     0.00074989     0.00035279    -0.00005147
C        -3.87514087     0.37558439    -0.10546419    -0.00015572     0.00022354    -0.00016682
C        -2.55695777     0.48650154     0.31068156    -0.00001616    -0.00038577     0.00019405
H        -4.24128340     1.22303572    -0.73854891     0.00011650    -0.00065932     0.00004424
H        -2.11257438    -0.34363617     0.81978609     0.00000436     0.00034581    -0.00143692
C        -1.86834563     1.65731162     0.01122054     0.00041881     0.00013286     0.00000504
H        -2.39234393     2.48969870    -0.43645476     0.00030497     0.00029512    -0.00079770
N        -0.53937434     1.83527101     0.12314972    -0.00020274     0.00009782     0.00005885
H        -0.06539970     2.73839271    -0.13824554     0.00012079    -0.00102464     0.00032835
H        -0.01722732     1.16248135     0.78761324    -0.00010919     0.00030520    -0.00026384
    14
  Step:     1            Position(A)                                  Velocity(au)
C        -5.96143137    -0.71771902    -0.19463511    -0.00016649    -0.00020006     0.00002606
C        -4.72212762    -0.72456587     0.22285035     0.00004218     0.00016752    -0.00000123
H        -6.41947433     0.11896144    -0.73749768     0.00040984    -0.00053095     0.00065183
H        -6.73318919    -1.49910946     0.08967956    -0.00036007     0.00026534    -0.00004624
H        -4.28904616    -1.59009460     0.75059246     0.00071872     0.00044015    -0.00003530
C        -3.87723961     0.37802317    -0.10743070    -0.00022584     0.00021999    -0.00019068
C        -2.55680235     0.48234223     0.31289603     0.00004302    -0.00036761     0.00020687
H        -4.24018077     1.21482777    -0.73750053     0.00007681    -0.00081468     0.00012938
H        -2.11177726    -0.34041772     0.80434405     0.00016270     0.00019607    -0.00135770
C        -1.86380308     1.65883142     0.01124639     0.00040646     0.00014336    -0.00000074
H        -2.38936657     2.49305361    -0.44551810     0.00024867     0.00030024    -0.00084766
N        -0.54131847     1.83629265     0.12395089    -0.00015219     0.00008710     0.00008803
H        -0.06502688     2.72553874    -0.13408218    -0.00003480    -0.00128122     0.00041804
H        -0.01945894     1.16780902     0.78273106    -0.00029041     0.00065320    -0.00061544
    14
  Step:     2            Position(A)                                  Velocity(au)
C        -5.96400048    -0.71999439    -0.19446026    -0.00029906    -0.00021699     0.00000778
C        -4.72112109    -0.72271176     0.22295587     0.00013955     0.00017133     0.00001984
H        -6.41453009     0.11307226    -0.73033291     0.00047825    -0.00052092     0.00064070
H        -6.73579657    -1.49552101     0.08864490    -0.00012175     0.00038021    -0.00013925
H        -4.28138349    -1.58479489     0.75028955     0.00067929     0.00052711    -0.00001932
C        -3.88008161     0.38039702    -0.10963559    -0.00029110     0.00021111    -0.00020984
C        -2.55601660     0.47845935     0.31520720     0.00009918    -0.00033573     0.00021211
H        -4.23960311     1.20521307    -0.73571837     0.00001804    -0.00091047     0.00017344
H        -2.10901497    -0.33934674     0.79008380     0.00035992    -0.00003950    -0.00122700
C        -1.85945349     1.66044790     0.01120426     0.00038391     0.00015039    -0.00000736
H        -2.38690376     2.49626699    -0.45499892     0.00021133     0.00026970    -0.00087383
N        -0.54270387     1.83717660     0.12507546    -0.00010235     0.00007276     0.00011725
H        -0.06616100     2.71036356    -0.12910012    -0.00014599    -0.00143470     0.00047345
H        -0.02358069     1.17677129     0.77414941    -0.00044352     0.00095458    -0.00092596
    14
  Step:     3            Position(A)                                  Velocity(au)
C        -5.96797394    -0.72246618    -0.19446480    -0.00042074    -0.00023555    -0.00000636
C        -4.71907470    -0.72081771     0.22328447     0.00023040     0.00017508     0.00003889
H        -6.40901180     0.10756533    -0.72348122     0.00051285    -0.00045919     0.00059344
H        -6.73585279    -1.49079165     0.08663322     0.00009772     0.00046708    -0.00022225
H        -4.27418538    -1.57856311     0.75016981     0.00063605     0.00060754    -0.00000011
C        -3.88360800     0.38264154    -0.11202133    -0.00035067     0.00019590    -0.00022332
C        -2.55463269     0.47499742     0.31753624     0.00015288    -0.00029182     0.00021090
H        -4.23978602     1.19490958    -0.73370609    -0.00006401    -0.00093643     0.00016772
H        -2.10390332    -0.34128186     0.77750101     0.00058461    -0.00033910    -0.00106092
C        -1.85540428     1.66212140     0.01108536     0.00035218     0.00015361    -0.00001469
H        -2.38474321     2.49895391    -0.46463474     0.00019289     0.00020593    -0.00087657
N        -0.54355766     1.83788452     0.12651600    -0.00005680     0.00005534     0.00014493
H        -0.06822071     2.69415197    -0.12372452    -0.00019703    -0.00146002     0.00048650
H        -0.02916182     1.18869230     0.76247400    -0.00054523     0.00117827    -0.00116617
    14
  Step:     4            Position(A)                                  Velocity(au)
C        -5.97320493    -0.72514760    -0.19459949    -0.00052700    -0.00025467    -0.00001592
C        -4.71608075    -0.71888154     0.22380664     0.00031132     0.00017929     0.00005470
H        -6.40331058     0.10302663    -0.71735025     0.00051136    -0.00034466     0.00050950
H        -6.73365868    -1.48530264     0.08378275     0.00028103     0.00051227    -0.00028995
H        -4.26746877    -1.57150388     0.75028712     0.00059344     0.00067562     0.00002559
C        -3.88775311     0.38468278    -0.11452118    -0.00040415     0.00017373    -0.00023049
C        -2.55267204     0.47207534     0.31982095     0.00020541    -0.00023873     0.00020501
H        -4.24100346     1.18472690    -0.73204921    -0.00017164    -0.00088719     0.00010687
H        -2.09622560    -0.34676522     0.76687418     0.00081845    -0.00066852    -0.00088147
C        -1.85174885     1.66380836     0.01088297     0.00031276     0.00015267    -0.00002248
H        -2.38268383     2.50077206    -0.47417564     0.00019154     0.00011393    -0.00085769
N        -0.54394650     1.83838726     0.12824607    -0.00001896     0.00003612     0.00016919
H        -0.07047133     2.67842276    -0.11845695    -0.00017764    -0.00134280     0.00045231
H        -0.03550866     1.20254825     0.74863720    -0.00057156     0.00129290    -0.00130675
    14
  Step:     5            Position(A)                                  Velocity(au)
C        -5.97950307    -0.72803761    -0.19481305    -0.00061454    -0.00027277    -0.00002103
C        -4.71226399    -0.71689535     0.22448115     0.00037988     0.00018447     0.00006638
H        -6.39782478     0.10002530    -0.71233493     0.00047508    -0.00018232     0.00039221
H        -6.72970477    -1.47958472     0.08029000     0.00041124     0.00050241    -0.00033709
H        -4.26120283    -1.56378261     0.75072970     0.00055557     0.00072629     0.00006068
C        -3.89244947     0.38644212    -0.11706380    -0.00045156     0.00014450    -0.00023121
C        -2.55013893     0.46977470     0.32202114     0.00025835    -0.00018014     0.00019646
H        -4.24354098     1.17550064    -0.73136815    -0.00030410    -0.00076463    -0.00000903
H        -2.08599826    -0.35590700     0.75821711     0.00103920    -0.00098682    -0.00071251
C        -1.84856211     1.66546145     0.01059362     0.00026746     0.00014730    -0.00003041
H        -2.38055296     2.50144633    -0.48339831     0.00020408     0.00000060    -0.00082009
N        -0.54397236     1.83867481     0.13021736     0.00000851     0.00001733     0.00018805
H        -0.07210683     2.66477556    -0.11382932    -0.00008695    -0.00108566     0.00037119
H        -0.04166568     1.21697704     0.73388638    -0.00050083     0.00127098    -0.00132232
    14
  Step:     6            Position(A)                                  Velocity(au)
C        -5.98664919    -0.73111506    -0.19505959    -0.00068150    -0.00028783    -0.00002250
C        -4.70777017    -0.71484589     0.22525889     0.00043471     0.00019103     0.00007341
H        -6.39291729     0.09903809    -0.70876993     0.00040902     0.00001584     0.00024924
H        -6.72466203    -1.47431151     0.07640822     0.00047329     0.00042563    -0.00035896
H        -4.25531461    -1.55561481     0.75161470     0.00052581     0.00075572     0.00010740
C        -3.89763174     0.38784391    -0.11957942    -0.00049315     0.00010893    -0.00022594
C        -2.54702004     0.46813450     0.32411894     0.00031297    -0.00011986     0.00018709
H        -4.24765615     1.16799913    -0.73224664    -0.00045669    -0.00057974    -0.00017260
H        -2.07349120    -0.36835388     0.75128676     0.00122524    -0.00125454    -0.00057469
C        -1.84589759     1.66703073     0.01021762     0.00021834     0.00013735    -0.00003815
H        -2.37821920     2.50078516    -0.49211659     0.00022630    -0.00012602    -0.00076751
N        -0.54376036     1.83876649     0.13235995     0.00002443     0.00000189     0.00019982
H        -0.07237354     2.65467182    -0.11033647     0.00006348    -0.00071281     0.00025016
H        -0.04646536     1.23035328     0.71970883    -0.00031971     0.00109658    -0.00119889
    14
  Step:     7            Position(A)                                  Velocity(au)
C        -5.99441226    -0.73433444    -0.19530531    -0.00072756    -0.00029760    -0.00002162
C        -4.70275387    -0.71271618     0.22608720     0.00047542     0.00019914     0.00007566
H        -6.38887677     0.10037174    -0.70688232     0.00032119     0.00023146     0.00009203
H        -6.71935060    -1.47027315     0.07243711     0.00045647     0.00027384    -0.00035226
H        -4.24969980    -1.54724971     0.75307932     0.00050639     0.00076180     0.00016703
C        -3.90323802     0.38882526    -0.12200661    -0.00052907     0.00006871    -0.00021569
C        -2.54329209     0.46715262     0.32611402     0.00036950    -0.00006135     0.00017810
H        -4.25353197     1.16281762    -0.73514418    -0.00062070    -0.00035261    -0.00036871
H        -2.05919381    -0.38335243     0.74564465     0.00135996    -0.00144121    -0.00048156
C        -1.84378560     1.66846631     0.00975908     0.00016749     0.00012301    -0.00004537
H        -2.37560216     2.49868930    -0.50018912     0.00025328    -0.00025737    -0.00070428
N        -0.54343782     1.83871613     0.13458887     0.00002986    -0.00000731     0.00020380
H        -0.07071810     2.64918142    -0.10835657     0.00024963    -0.00026953     0.00010304
H        -0.04865990     1.24096676     0.70765835    -0.00003092     0.00077495    -0.00094269
    14
  Step:     8            Position(A)                                  Velocity(au)
C        -6.00256599    -0.73762558    -0.19553249    -0.00075382    -0.00030009    -0.00001982
C        -4.69736935    -0.71048939     0.22691415     0.00050226     0.00020851     0.00007337
H        -6.38589055     0.10410174    -0.70675664     0.00022123     0.00044215    -0.00006575
H        -6.71467598    -1.46832063     0.06870187     0.00035772     0.00004588    -0.00031637
H        -4.24423645    -1.53894902     0.75526881     0.00049815     0.00074453     0.00023962
C        -3.90920605     0.38934705    -0.12429813    -0.00055897     0.00002642    -0.00020196
C        -2.53893655     0.46679237     0.32801513     0.00042677    -0.00000738     0.00016991
H        -4.26123508     1.16028508    -0.74031297    -0.00078429    -0.00011009    -0.00057585
H        -2.04373947    -0.39988303     0.74075163     0.00143422    -0.00152948    -0.00043806
C        -1.84223352     1.66972188     0.00922516     0.00011694     0.00010476    -0.00005183
H        -2.37267816     2.49515479    -0.50752409     0.00027971    -0.00038478    -0.00063506
N        -0.54310704     1.83860652     0.13681852     0.00002829    -0.00000841     0.00020082
H        -0.06691248     2.64877529    -0.10808224     0.00043907     0.00018528    -0.00005162
H        -0.04714168     1.24730685     0.69908566     0.00034056     0.00033932    -0.00058611
    14
  Step:     9            Position(A)                                  Velocity(au)
C        -6.01090344    -0.74089954    -0.19573887    -0.00076257    -0.00029415    -0.00001831
C        -4.69176597    -0.70815454     0.22769239     0.00051571     0.00021834     0.00006711
H        -6.38403696     0.11004460    -0.70832067     0.00011852     0.00062497    -0.00021028
H        -6.71152474    -1.46926946     0.06551589     0.00018474    -0.00024932    -0.00025455
H        -4.23880179    -1.53096177     0.75832137     0.00050039     0.00070627     0.00032374
C        -3.91546647     0.38940329    -0.12642487    -0.00058198    -0.00001469    -0.00018646
C        -2.53395558     0.46699120     0.32983123     0.00048247     0.00004015     0.00016228
H        -4.27068976     1.16040912    -0.74774205    -0.00093442     0.00011857    -0.00076966
H        -2.02781749    -0.41681277     0.73606125     0.00144656    -0.00151531    -0.00044157
C        -1.84122740     1.67075816     0.00862515     0.00006851     0.00008330    -0.00005738
H        -2.36948303     2.49027143    -0.51408225     0.00030018    -0.00049997    -0.00056470
N        -0.54281887     1.83853224     0.13898216     0.00002513    -0.00000135     0.00019337
H        -0.06111266     2.65323467    -0.10948591     0.00059821     0.00059152    -0.00019431
H        -0.04120960     1.24839008     0.69483604     0.00074766    -0.00015074    -0.00018533
    14
  Step:    10            Position(A)                                  Velocity(au)
C        -6.01924876    -0.74406057    -0.19593312    -0.00075706    -0.00027986    -0.00001776
C        -4.68608713    -0.70571283     0.22838238     0.00051633     0.00022730     0.00005771
H        -6.38329780     0.11777406    -0.71135686     0.00002066     0.00076020    -0.00032981
H        -6.71063435    -1.47377489     0.06313321    -0.00004285    -0.00059100    -0.00017444
H        -4.23328940    -1.52349796     0.76235129     0.00051084     0.00065173     0.00041642
C        -3.92193802     0.38902560    -0.12837731    -0.00059700    -0.00005131    -0.00017092
C        -2.52838154     0.46767083     0.33156525     0.00053382     0.00008023     0.00015451
H        -4.28167721     1.16287906    -0.75715081    -0.00105918     0.00030704    -0.00092755
H        -2.01209310    -0.43303327     0.73109134     0.00140167    -0.00140518    -0.00048456
C        -1.84073463     1.67154431     0.00796990     0.00002380     0.00005938    -0.00006186
H        -2.36611104     2.48421699    -0.51987799     0.00030963    -0.00059531    -0.00049802
N        -0.54255719     1.83857704     0.14104890     0.00002640     0.00001208     0.00018501
H        -0.05382541     2.66171581    -0.11233325     0.00069994     0.00090068    -0.00030862
H        -0.03078530     1.24400913     0.69503124     0.00113068    -0.00062198     0.00019237
    14
  Step:    11            Position(A)                                  Velocity(au)
C        -6.02746564    -0.74702199    -0.19612751    -0.00074108    -0.00025874    -0.00001819
C        -4.68047035    -0.70318203     0.22895480     0.00050464     0.00023377     0.00004615
H        -6.38358504     0.12667539    -0.71553596    -0.00006742     0.00083420    -0.00041622
H        -6.71246222    -1.48219878     0.06169977    -0.00029545    -0.00094796    -0.00008743
H        -4.22762621    -1.51670403     0.76743125     0.00052587     0.00058752     0.00051320
C        -3.92852708     0.38828088    -0.13016400    -0.00060303    -0.00008053    -0.00015682
C        -2.52227731     0.46874637     0.33321153     0.00057829     0.00011257     0.00014587
H        -4.29386138     1.16712614    -0.76803406    -0.00114978     0.00043607    -0.00103260
H        -1.99715329    -0.44755368     0.72546064     0.00130804    -0.00121225    -0.00055727
C        -1.84070679     1.67205731     0.00727181    -0.00001588     0.00003366    -0.00006514
H        -2.36270937     2.47724797    -0.52497742     0.00030367    -0.00066427    -0.00043949
N        -0.54224140     1.83879653     0.14302968     0.00003707     0.00002907     0.00017922
H        -0.04580002     2.67293880    -0.11623766     0.00072856     0.00108394    -0.00038401
H        -0.01647382     1.23478315     0.69904449     0.00143300    -0.00100670     0.00048686
    14
  Step:    12            Position(A)                                  Velocity(au)
C        -6.03546129    -0.74972091    -0.19633101    -0.00071849    -0.00023337    -0.00001906
C        -4.67504707    -0.70059865     0.22939198     0.00048125     0.00023606     0.00003354
H        -6.38477278     0.13602388    -0.72046243    -0.00014359     0.00084070    -0.00046566
H        -6.71709779    -1.49451328     0.06122056    -0.00053886    -0.00128348    -0.00000657
H        -4.22178510    -1.51064487     0.77357844     0.00054095     0.00052144     0.00060861
C        -3.93513055     0.38726385    -0.13180802    -0.00059937    -0.00010027    -0.00014526
C        -2.51573031     0.47013362     0.33475643     0.00061400     0.00013746     0.00013570
H        -4.30683094     1.17241892    -0.77974096    -0.00120151     0.00049564    -0.00107559
H        -1.98347725    -0.45955361     0.71889997     0.00117604    -0.00095315    -0.00064966
C        -1.84108193     1.67228074     0.00654492    -0.00004934     0.00000673    -0.00006707
H        -2.35946776     2.46968471    -0.52949269     0.00027913    -0.00070198    -0.00039282
N        -0.54174629     1.83921298     0.14496974     0.00005989     0.00004685     0.00017839
H        -0.03788678     2.68542908    -0.12073428     0.00068086     0.00113363    -0.00041657
H         0.00056438     1.22198564     0.70568227     0.00161552    -0.00125919     0.00065996
    14
  Step:    13            Position(A)                                  Velocity(au)
C        -6.04318401    -0.75212732    -0.19654445    -0.00069266    -0.00020679    -0.00001957
C        -4.66994218    -0.69801780     0.22968856     0.00044674     0.00023255     0.00002098
H        -6.38672635     0.14506728    -0.72572316    -0.00020799     0.00078030    -0.00047822
H        -6.72425077    -1.51027734     0.06155597    -0.00074145    -0.00156256     0.00005612
H        -4.21579182    -1.50529645     0.78074579     0.00055129     0.00046141     0.00069678
C        -3.94163934     0.38608727    -0.13334186    -0.00058561    -0.00010932    -0.00013688
C        -2.50884493     0.47175357     0.33618023     0.00063971     0.00015548     0.00012355
H        -4.32014668     1.17796923    -0.79156472    -0.00121369     0.00048472    -0.00105502
H        -1.97142515    -0.46840569     0.71124802     0.00101655    -0.00064576    -0.00075234
C        -1.84178630     1.67220449     0.00580450    -0.00007562    -0.00002082    -0.00006759
H        -2.35660297     2.46189076    -0.53357107     0.00023444    -0.00070571    -0.00036045
N        -0.54093111     1.83982136     0.14693236     0.00009504     0.00006340     0.00018340
H        -0.03090485     2.69773921    -0.12535090     0.00056404     0.00105956    -0.00040805
H         0.01886876     1.20723591     0.71348246     0.00166314    -0.00136205     0.00070022
    14
  Step:    14            Position(A)                                  Velocity(au)
C        -6.05061466    -0.75424475    -0.19675916    -0.00066602    -0.00018178    -0.00001891
C        -4.66527376    -0.69551112     0.22985086     0.00040180     0.00022194     0.00000944
H        -6.38932299     0.15309454    -0.73092451    -0.00026228     0.00065908    -0.00045702
H        -6.73331839    -1.52869737     0.06244836    -0.00088021    -0.00175864     0.00009207
H        -4.20972466    -1.50055057     0.78882177     0.00055236     0.00041441     0.00077212
C        -3.94794192     0.38487237    -0.13480254    -0.00056172    -0.00010729    -0.00013189
C        -2.50173542     0.47353506     0.33745922     0.00065476     0.00016742     0.00010913
H        -4.33338264     1.18302304    -0.80282163    -0.00118883     0.00040932    -0.00097555
H        -1.96123829    -0.47368079     0.70244120     0.00084024    -0.00030814    -0.00085687
C        -1.84273623     1.67182531     0.00506626    -0.00009390    -0.00004827    -0.00006672
H        -2.35433901     2.45424595    -0.53737813     0.00016997    -0.00067538    -0.00034311
N        -0.53966707     1.84059994     0.14898205     0.00014055     0.00007763     0.00019384
H        -0.02554722     2.70860887    -0.12966109     0.00039210     0.00088297    -0.00036415
H         0.03694874     1.19218809     0.72100099     0.00158233    -0.00132232     0.00061820
    14
  Step:    15            Position(A)                                  Velocity(au)
C        -6.05775442    -0.75610408    -0.19695820    -0.00063987    -0.00016043    -0.00001645
C        -4.66115211    -0.69316233     0.22989512     0.00034720     0.00020341    -0.00000026
H        -6.39246415     0.15948592    -0.73572125    -0.00030894     0.00048684    -0.00040728
H        -6.74350711    -1.54875099     0.06357008    -0.00094362    -0.00185723     0.00009719
H        -4.20370786    -1.49623049     0.79763738     0.00054051     0.00038559     0.00083001
C        -3.95392802     0.38374008    -0.13622729    -0.00052799    -0.00009457    -0.00013017
C        -2.49452077     0.47541617     0.33856755     0.00065888     0.00017418     0.00009230
H        -4.34615458     1.18692388    -0.81290671    -0.00113151     0.00028011    -0.00084593
H        -1.95304323    -0.47514686     0.69250235     0.00065748     0.00004164    -0.00095577
C        -1.84384044     1.67114849     0.00434483    -0.00010362    -0.00007477    -0.00006464
H        -2.35288459     2.44711545    -0.54107726     0.00008819    -0.00061383    -0.00033955
N        -0.53785632     1.84151966     0.15117294     0.00019316     0.00008910     0.00020852
H        -0.02232695     2.71705591    -0.13331728     0.00018253     0.00063117    -0.00029286
H         0.05348531     1.17830764     0.72700685     0.00139368    -0.00116244     0.00043745
    14
  Step:    16            Position(A)                                  Velocity(au)
C        -6.06461303    -0.75775451    -0.19711907    -0.00061457    -0.00014399    -0.00001181
C        -4.65767807    -0.69106110     0.22984511     0.00028390     0.00017674    -0.00000760
H        -6.39608174     0.16374511    -0.73983449    -0.00035081     0.00027555    -0.00033544
H        -6.75396189    -1.56932777     0.06457457    -0.00093101    -0.00185605     0.00007174
H        -4.19790001    -1.49211498     0.80697977     0.00051323     0.00037780     0.00086723
C        -3.95949261     0.38280354    -0.13765018    -0.00048507    -0.00007216    -0.00013129
C        -2.48732110     0.47734564     0.33947841     0.00065206     0.00017681     0.00007300
H        -4.35813662     1.18915089    -0.82132795    -0.00104736     0.00011021    -0.00067720
H        -1.94685475    -0.47276976     0.68153188     0.00047842     0.00038529    -0.00104223
C        -1.84500302     1.67018964     0.00365203    -0.00010451    -0.00009928    -0.00006170
H        -2.35240972     2.44081717    -0.54480651    -0.00000638    -0.00052680    -0.00034640
N        -0.53544130     1.84254922     0.15354371     0.00024909     0.00009768     0.00022600
H        -0.02155410     2.72241703    -0.13606800    -0.00004592     0.00033384    -0.00020335
H         0.06743825     1.16675758     0.73057106     0.00112421    -0.00091153     0.00018622
    14
  Step:    17            Position(A)                                  Velocity(au)
C        -6.07119933    -0.75925416    -0.19721655    -0.00058979    -0.00013297    -0.00000483
C        -4.65494118    -0.68929586     0.22972892     0.00021306     0.00014238    -0.00001231
H        -6.40013889     0.16551415    -0.74305965    -0.00039073     0.00003817    -0.00024848
H        -6.76387475    -1.58935556     0.06513963    -0.00084976    -0.00176248     0.00001919
H        -4.19248002    -1.48796548     0.81660978     0.00046930     0.00039137     0.00088224
C        -3.96453984     0.38216154    -0.13909955    -0.00043398    -0.00004165    -0.00013463
C        -2.48025573     0.47928423     0.34016454     0.00063441     0.00017648     0.00005119
H        -4.36906769     1.18933500    -0.82772169    -0.00094241    -0.00008618    -0.00048139
H        -1.94257677    -0.46671785     0.66970149     0.00031330     0.00070395    -0.00110995
C        -1.84612670     1.66897664     0.00299506    -0.00009660    -0.00012062    -0.00005837
H        -2.35302408     2.43559073    -0.54865536    -0.00010746    -0.00042249    -0.00035836
N        -0.53240692     1.84365655     0.15611719     0.00030455     0.00010326     0.00024494
H        -0.02333161     2.72435925    -0.13776590    -0.00027450     0.00002114    -0.00010531
H         0.07807952     1.15836620     0.73108085     0.00080222    -0.00059984    -0.00010753
    14
  Step:    18            Position(A)                                  Velocity(au)
C        -6.07751592    -0.76066357    -0.19722469    -0.00056487    -0.00012743     0.00000451
C        -4.65301698    -0.68794620     0.22957574     0.00013606     0.00010148    -0.00001446
H        -6.40462961     0.16458016    -0.74527037    -0.00043144    -0.00021198    -0.00015358
H        -6.77255209    -1.60788540     0.06499436    -0.00071180    -0.00158994    -0.00005519
H        -4.18763320    -1.48355292     0.82628054     0.00040874     0.00042437     0.00087516
C        -3.96898673     0.38189246    -0.14059551    -0.00037601    -0.00000514    -0.00013934
C        -2.47344216     0.48120639     0.34059830     0.00060610     0.00017452     0.00002683
H        -4.37875367     1.18726546    -0.83185932    -0.00082276    -0.00029461    -0.00027090
H        -1.94000069    -0.45736957     0.65724965     0.00017256     0.00097794    -0.00115295
C        -1.84711631     1.66755078     0.00237502    -0.00008023    -0.00013759    -0.00005525
H        -2.35476052     2.43157448    -0.55264641    -0.00020766    -0.00031063    -0.00036891
N        -0.52877871     1.84480821     0.15890233     0.00035594     0.00010568     0.00026417
H        -0.02755922     2.72287957    -0.13837187    -0.00048491    -0.00027682    -0.00000882
H         0.08498824     1.15363499     0.72821871     0.00045517    -0.00025659    -0.00041796
    14
  Step:    19            Position(A)                                  Velocity(au)
C        -6.08355690    -0.76204192    -0.19711796    -0.00053899    -0.00012715     0.00001614
C        -4.65196467    -0.68707576     0.22941265     0.00005446     0.00005575    -0.00001435
H        -6.40957736     0.16087666    -0.74641947    -0.00047556    -0.00046162    -0.00005795
H        -6.77944681    -1.62413861     0.06393214    -0.00053089    -0.00135489    -0.00014538
H        -4.18353815    -1.47868148     0.83575554     0.00033264     0.00047292     0.00084764
C        -3.97276581     0.38204905    -0.14214789    -0.00031266     0.00003483    -0.00014439
C        -2.46699618     0.48310213     0.34075140     0.00056728     0.00017241    -0.00000017
H        -4.38706716     1.18288982    -0.83364820    -0.00069453    -0.00050066    -0.00005815
H        -1.93880172    -0.44532349     0.64447842     0.00006681     0.00118709    -0.00116571
C        -1.84788191     1.66596669     0.00178627    -0.00005600    -0.00014902    -0.00005295
H        -2.35756709     2.42879503    -0.55672598    -0.00029933    -0.00020127    -0.00037113
N        -0.52461995     1.84596860     0.16189642     0.00039996     0.00010477     0.00028268
H        -0.03394000     2.71830339    -0.13795894    -0.00065967    -0.00053025     0.00007573
H         0.08803718     1.15275282     0.72193711     0.00010971     0.00008970    -0.00072106
    14
  Step:    20            Position(A)                                  Velocity(au)
C        -6.08930743    -0.76344525    -0.19687155    -0.00051138    -0.00013182     0.00003001
C        -4.65182550    -0.68672655     0.22926181    -0.00003005     0.00000734    -0.00001254
H        -6.41503344     0.15448141    -0.74653823    -0.00052557    -0.00069777     0.00003130
H        -6.78416637    -1.63752627     0.06181396    -0.00032093    -0.00107482    -0.00024527
H        -4.18035614    -1.47320691     0.84482427     0.00024297     0.00053172     0.00080261
C        -3.97582679     0.38265436    -0.14375429    -0.00024551     0.00007542    -0.00014859
C        -2.46103192     0.48497829     0.34059466     0.00051812     0.00017169    -0.00002986
H        -4.39394776     1.17631260    -0.83313155    -0.00056392    -0.00068999     0.00014439
H        -1.93853916    -0.43139973     0.63174758     0.00000620     0.00131192    -0.00114343
C        -1.84834135     1.66429077     0.00121662    -0.00002470    -0.00015397    -0.00005201
H        -2.36130897     2.42717137    -0.56076563    -0.00037539    -0.00010341    -0.00035875
N        -0.52002887     1.84710034     0.16508657     0.00043351     0.00010051     0.00029954