|===============================================================================
|
|  DFTB+ release 20.1
|
|  Copyright (C) 2006 - 2020  DFTB+ developers group
|
|===============================================================================
|
|  When publishing results obtained with DFTB+, please cite the following
|  reference:
|
|  * DFTB+, a software package for efficient approximate density functional
|    theory based atomistic simulations, J. Chem. Phys. 152, 124101 (2020).
|    [doi: 10.1063/1.5143190]
|
|  You should also cite additional publications crediting the parametrization
|  data you use. Please consult the documentation of the SK-files for the
|  references.
|
|===============================================================================

Reading input file 'dftb_in.hsd'
Parser version: 8

--------------------------------------------------------------------------------
Reading SK-files:
Done.


Processed input in HSD format written to 'dftb_pin.hsd'

Starting initialization...
--------------------------------------------------------------------------------
OpenMP threads:              1
Chosen random seed:          510963064
Mode:                        Static calculation
Self consistent charges:     Yes
SCC-tolerance:                 0.100000E-05
Max. scc iterations:                   1000
Shell resolved Hubbard:      No
Spin polarisation:           No
Nr. of up electrons:             6.000000
Nr. of down electrons:           6.000000
Periodic boundaries:         No
Electronic solver:           Relatively robust
Maximal SCC-cycles:                    1000
Initial charges:             Set automatically (system chrg:   0.100E+01)
Included shells:             C:  s, p
                             N:  s, p
                             H:  s
Spin coupling constants:     C   1(s)-1(s):  -0.455900E-01
                             C   1(s)-2(p):  -0.293000E-01
                             C   2(p)-1(s):  -0.293000E-01
                             C   2(p)-2(p):  -0.275500E-01
                             N   1(s)-1(s):  -0.468700E-01
                             N   1(s)-2(p):  -0.317000E-01
                             N   2(p)-1(s):  -0.317000E-01
                             N   2(p)-2(p):  -0.307200E-01
                             H   1(s)-1(s):  -0.792500E-01
Range separated hybrid:      Yes
  Screening parameter omega:   0.300000E+00
  Range separated algorithm:   MatrixBased
Extra options:
                             Mulliken analysis
                             Force calculation
Force type                   original
                             Eigenvector printing


REKS Calcuation:             Yes
SSR(2,2) Calcuation:         Yes
Energy Functional:           (PPS+OSS)/2
Number of Core Orbitals:                  5
Number of Active Orbitals:                2
Number of Basis:                         12
Number of States:                         2
State-Averaging Weight:          0.500000
                                 0.500000
State of Interest:                        1
Initial Guess:               Diagonalize H0 matrix
Newton-Raphson for FON opt:  Yes
NR max. Iterations:                      50
Level Shifting:              Yes
Shift Value:                     0.300000
W Scale Factor:              C  =    3.000000
                             N  =    3.000000
                             H  =    3.000000
Transition Dipole:           No
Gradient of Microstate:      No
CP-REKS Solver:              Preconditioned Conjugate-Gradient
CG max. Iterations:                     100
CG Tolerance:                  0.100000E-07
Memory for A and Hxc:        Direct Updating Without Saving
Non-Adiabatic Coupling:      Yes

--------------------------------------------------------------------------------

***  Geometry step: 0

  iSCC       reks energy        Diff energy         x_a       SCC error   
    1       -6.2646370737       0.0000000000     0.999788    1.19378457
    2       -6.2748357412      -0.0101986675     0.999899    0.07247035
    3       -6.2783719473      -0.0035362061     0.999939    0.02802127
    4       -6.2801518351      -0.0017798878     0.999957    0.01266084
    5       -6.2810992080      -0.0009473729     0.999965    0.00850016
    6       -6.2816064777      -0.0005072698     0.999970    0.00704980
    7       -6.2818765992      -0.0002701215     0.999972    0.00556573
    8       -6.2820195001      -0.0001429009     0.999974    0.00425768
    9       -6.2820947589      -0.0000752588     0.999975    0.00319044
   10       -6.2821343220      -0.0000395631     0.999975    0.00235826
   11       -6.2821551359      -0.0000208140     0.999975    0.00172746
   12       -6.2821661197      -0.0000109838     0.999975    0.00125792
   13       -6.2821719456      -0.0000058258     0.999976    0.00091256
   14       -6.2821750568      -0.0000031113     0.999976    0.00066053
   15       -6.2821767323      -0.0000016754     0.999976    0.00047757
   16       -6.2821776432      -0.0000009109     0.999976    0.00034518
   17       -6.2821781436      -0.0000005004     0.999976    0.00024957
   18       -6.2821784215      -0.0000002779     0.999976    0.00018060
   19       -6.2821785776      -0.0000001561     0.999976    0.00014310
   20       -6.2821786663      -0.0000000887     0.999976    0.00011415
   21       -6.2821787172      -0.0000000509     0.999976    0.00009094
   22       -6.2821787468      -0.0000000295     0.999976    0.00007280
   23       -6.2821787641      -0.0000000173     0.999976    0.00005855
   24       -6.2821787743      -0.0000000102     0.999976    0.00004697
   25       -6.2821787804      -0.0000000061     0.999976    0.00003760
   26       -6.2821787840      -0.0000000036     0.999976    0.00003004
   27       -6.2821787862      -0.0000000022     0.999976    0.00002395
   28       -6.2821787875      -0.0000000013     0.999976    0.00001908
   29       -6.2821787883      -0.0000000008     0.999976    0.00001517
   30       -6.2821787888      -0.0000000005     0.999976    0.00001205
   31       -6.2821787891      -0.0000000003     0.999976    0.00000957
   32       -6.2821787893      -0.0000000002     0.999976    0.00000759
   33       -6.2821787894      -0.0000000001     0.999976    0.00000601
   34       -6.2821787895      -0.0000000001     0.999976    0.00000476
   35       -6.2821787895      -0.0000000000     0.999976    0.00000377
   36       -6.2821787896      -0.0000000000     0.999976    0.00000298
   37       -6.2821787896      -0.0000000000     0.999976    0.00000236
   38       -6.2821787896      -0.0000000000     0.999976    0.00000186
   39       -6.2821787896      -0.0000000000     0.999976    0.00000147
   40       -6.2821787896      -0.0000000000     0.999976    0.00000116
   41       -6.2821787896      -0.0000000000     0.999976    0.00000092
  
--------------------------------------------------
 Final SA-REKS(2,2) energy:      -6.28217879
  
 State     Energy      FON(1)    FON(2)   Spin
  PPS   -6.41269444   1.999951  0.000049  0.00
  OSS   -6.15166314   1.000000  1.000000  0.00
 Trip   -6.22885647   1.000000  1.000000  1.00
--------------------------------------------------

 Lagrangian Wab:  -0.00208421 -0.00208414

--------------------------------------------------
 SSR: 2SI-2SA-REKS(2,2) Hamiltonian matrix
               PPS           OSS
   PPS    -6.41269444   -0.00293294
   OSS    -0.00293294   -6.15166314
--------------------------------------------------

----------------------------------------------------------------
 SSR: 2SI-2SA-REKS(2,2) states
                    E_n       C_{PPS}    C_{OSS}
 SSR state  1   -6.41272739  -0.999937  -0.011234
 SSR state  2   -6.15163019   0.011234  -0.999937
----------------------------------------------------------------

 unrelaxed SSR FONs for S0:  1.999825  0.000175

Total Energy:                       -6.4127273897 H         -174.4992 eV
Extrapolated to 0:                  -6.4127273897 H         -174.4992 eV

----------------------------------------------------------------------------------
 Solving CP-REKS equation for  1 state vector...
----------------------------------------------------------------------------------
  CG solver: Constructing Y initial guess
  CG solver: Iteration    1    eps =    0.000034962982
  CG solver: Iteration    2    eps =    0.000004957470
  CG solver: Iteration    3    eps =    0.000000303145
  CG solver: Iteration    4    eps =    0.000000019840
  CG solver: Iteration    5    eps =    0.000000006075
  Convergence reached in CG solver after    5 iterations
  CG solver: Calculating converged R, Z, Q2 matrix
----------------------------------------------------------------------------------

----------------------------------------------------------------------------------
 Solving CP-REKS equation for SI between  1 and  2 state vectors...
----------------------------------------------------------------------------------
  CG solver: Constructing Y initial guess
  CG solver: Iteration    1    eps =    0.000547770890
  CG solver: Iteration    2    eps =    0.000236788709
  CG solver: Iteration    3    eps =    0.000087134587
  CG solver: Iteration    4    eps =    0.000001491102
  CG solver: Iteration    5    eps =    0.000000203227
  CG solver: Iteration    6    eps =    0.000000008800
  Convergence reached in CG solver after    6 iterations
  CG solver: Calculating converged R, Z, Q2 matrix
----------------------------------------------------------------------------------

--------------------------------------------------
 Gradient Information
--------------------------------------------------
           1 st state (SSR)
     0.00681593     0.01032311     0.03732796
    -0.02631442     0.00644680    -0.04559322
     0.00511261    -0.00414043     0.00779320
     0.01434593    -0.00548286     0.00429298
     0.00503115    -0.00644050     0.00352508
    -0.00499120    -0.00070612    -0.00734598

           2 st state (SSR)
    -0.00833733    -0.01491363     0.14611668
     0.01465846     0.01149652    -0.17357654
    -0.00340144     0.01518677     0.02458084
    -0.00939057    -0.00760357    -0.00444923
    -0.00023609     0.00442648    -0.00446365
     0.00670696    -0.00859257     0.01179190
--------------------------------------------------
 Coupling Information
--------------------------------------------------
 between  1 and  2 states
--------------------------------------------------
 g vector - difference gradient
     0.00754348     0.01253061    -0.05443384
    -0.02055994    -0.00236317     0.06403872
     0.00443475    -0.00963669    -0.00840408
     0.01204513     0.00100060     0.00434306
     0.00250381    -0.00549327     0.00402180
    -0.00596723     0.00396192    -0.00956567

 h vector - derivative coupling
     0.00156010     0.00404722     0.00114560
     0.00304059    -0.00722352    -0.00137526
    -0.00786103    -0.00130599     0.00036221
    -0.00773816     0.00267101     0.00129690
     0.00580627     0.00259902    -0.00117605
     0.00519222    -0.00078774    -0.00025340

 G vector - GDV
     0.00757663     0.01261837    -0.05439436
    -0.02048644    -0.00252486     0.06399166
     0.00425702    -0.00966360    -0.00839382
     0.01186825     0.00106035     0.00437111
     0.00263362    -0.00543349     0.00399436
    -0.00584908     0.00394323    -0.00956894

 H vector - DCV - non-adiabatic coupling
     0.00532459     0.01441869     0.00907031
     0.01341157    -0.02745568    -0.01077616
    -0.03048165    -0.00417146     0.00211006
    -0.03066603     0.01014127     0.00459218
     0.02201692     0.01042438    -0.00484918
     0.02039460    -0.00335720    -0.00014721
--------------------------------------------------


--------------------------------------------------------------------------------
DFTB+ running times                          cpu [s]             wall clock [s]
--------------------------------------------------------------------------------
SCC                                    +     0.03  ( 57.5%)      0.04  ( 56.5%)
Post-SCC processing                    +     0.02  ( 38.2%)      0.02  ( 35.5%)
  Force calculation                          0.02  ( 37.4%)      0.02  ( 32.3%)
--------------------------------------------------------------------------------
Missing                                +     0.00  (  4.3%)      0.00  (  8.1%)
Total                                  =     0.05  (100.0%)      0.06  (100.0%)
--------------------------------------------------------------------------------
