     6
  Step:   120            Position(A)                                  Velocity(au)
C        -0.03293390    -0.02735889    -0.02212423     0.00008092     0.00001320     0.00058237
N        -0.04987768    -0.08069422     1.33909064    -0.00007063     0.00004134    -0.00052305
H         0.71740640     0.68415226    -0.49303591    -0.00098884     0.00088996     0.00050687
H         0.75144446    -0.41511305     1.93287331    -0.00057493    -0.00122882    -0.00042140
H        -0.67477769     0.60189349     1.82585410     0.00116636     0.00095274    -0.00034138
H        -0.92144277    -0.09333536    -0.71848901     0.00041458    -0.00134565     0.00058483
