|===============================================================================
|
|  DFTB+ release 20.1
|
|  Copyright (C) 2006 - 2020  DFTB+ developers group
|
|===============================================================================
|
|  When publishing results obtained with DFTB+, please cite the following
|  reference:
|
|  * DFTB+, a software package for efficient approximate density functional
|    theory based atomistic simulations, J. Chem. Phys. 152, 124101 (2020).
|    [doi: 10.1063/1.5143190]
|
|  You should also cite additional publications crediting the parametrization
|  data you use. Please consult the documentation of the SK-files for the
|  references.
|
|===============================================================================

Reading input file 'dftb_in.hsd'
Parser version: 8

--------------------------------------------------------------------------------
Reading SK-files:
Done.


Processed input in HSD format written to 'dftb_pin.hsd'

Starting initialization...
--------------------------------------------------------------------------------
WARNING!
-> Excited state forces are not implemented yet for fractional occupations, kT=  0.3158E-02K
OpenMP threads:              1
Chosen random seed:          506585224
Mode:                        Static calculation
Self consistent charges:     Yes
SCC-tolerance:                 0.100000E-05
Max. scc iterations:                    100
Shell resolved Hubbard:      No
Spin polarisation:           No
Nr. of up electrons:             6.000000
Nr. of down electrons:           6.000000
Periodic boundaries:         No
Electronic solver:           Relatively robust
Mixer:                       Broyden mixer
Mixing parameter:                  0.200000
Maximal SCC-cycles:                     100
Nr. of chrg. vec. in memory:              0
Electronic temperature:        0.100000E-07 H      0.272114E-06 eV
Initial charges:             Set automatically (system chrg:   0.100E+01)
Included shells:             C:  s, p
                             N:  s, p
                             H:  s
Extra options:
                             Mulliken analysis
                             Force calculation
Force type                   original
                             Eigenvector printing

--------------------------------------------------------------------------------

***  Geometry step: 0

 iSCC Total electronic   Diff electronic      SCC error    
    1   -0.52355753E+01    0.00000000E+00    0.11345185E+01
    2   -0.52668734E+01   -0.31298104E-01    0.65344376E+00
    3   -0.52739676E+01   -0.70941842E-02    0.30246897E+00
    4   -0.51390594E+01    0.13490815E+00    0.15090484E+01
    5   -0.52724691E+01   -0.13340970E+00    0.25147979E+00
    6   -0.52770559E+01   -0.45867568E-02    0.10219051E+00
    7   -0.52764784E+01    0.57748045E-03    0.13593192E+00
    8   -0.52779562E+01   -0.14777880E-02    0.51118859E-01
    9   -0.52780333E+01   -0.77117796E-04    0.41215622E-01
   10   -0.52781835E+01   -0.15020260E-03    0.93453038E-02
   11   -0.52781913E+01   -0.77995435E-05    0.27144439E-02
   12   -0.52781920E+01   -0.70712642E-06    0.23564253E-03
   13   -0.52781920E+01    0.30808627E-08    0.29972122E-03
   14   -0.52781920E+01   -0.86118392E-08    0.50352041E-05
   15   -0.52781920E+01    0.35704772E-12    0.53511535E-05
   16   -0.52781920E+01   -0.27053915E-11    0.36882626E-08
>> Charges saved for restart in charges.bin

Total Energy:                       -5.0236960544 H         -136.7017 eV
Extrapolated to 0:                  -5.1492099726 H         -140.1171 eV
Total Mermin free energy:           -5.0236960544 H         -136.7017 eV
Force related energy:               -5.1492099726 H         -140.1171 eV

--------------------------------------------------------------------------------
DFTB+ running times                          cpu [s]             wall clock [s]
--------------------------------------------------------------------------------
SCC                                    +     0.01  ( 56.7%)      0.08  ( 70.3%)
Post-SCC processing                    +     0.01  ( 35.3%)      0.03  ( 26.3%)
--------------------------------------------------------------------------------
Missing                                +     0.00  (  8.0%)      0.00  (  3.4%)
Total                                  =     0.02  (100.0%)      0.12  (100.0%)
--------------------------------------------------------------------------------
