|===============================================================================
|
|  DFTB+ release 20.1
|
|  Copyright (C) 2006 - 2020  DFTB+ developers group
|
|===============================================================================
|
|  When publishing results obtained with DFTB+, please cite the following
|  reference:
|
|  * DFTB+, a software package for efficient approximate density functional
|    theory based atomistic simulations, J. Chem. Phys. 152, 124101 (2020).
|    [doi: 10.1063/1.5143190]
|
|  You should also cite additional publications crediting the parametrization
|  data you use. Please consult the documentation of the SK-files for the
|  references.
|
|===============================================================================

Reading input file 'dftb_in.hsd'
Parser version: 8

--------------------------------------------------------------------------------
Reading SK-files:
Done.


Processed input in HSD format written to 'dftb_pin.hsd'

Starting initialization...
--------------------------------------------------------------------------------
OpenMP threads:              1
Chosen random seed:          507934653
Mode:                        Static calculation
Self consistent charges:     Yes
SCC-tolerance:                 0.100000E-05
Max. scc iterations:                   1000
Shell resolved Hubbard:      No
Spin polarisation:           No
Nr. of up electrons:             6.000000
Nr. of down electrons:           6.000000
Periodic boundaries:         No
Electronic solver:           Relatively robust
Maximal SCC-cycles:                    1000
Initial charges:             Set automatically (system chrg:   0.100E+01)
Included shells:             C:  s, p
                             N:  s, p
                             H:  s
Spin coupling constants:     C   1(s)-1(s):  -0.455900E-01
                             C   1(s)-2(p):  -0.293000E-01
                             C   2(p)-1(s):  -0.293000E-01
                             C   2(p)-2(p):  -0.275500E-01
                             N   1(s)-1(s):  -0.468700E-01
                             N   1(s)-2(p):  -0.317000E-01
                             N   2(p)-1(s):  -0.317000E-01
                             N   2(p)-2(p):  -0.307200E-01
                             H   1(s)-1(s):  -0.792500E-01
Range separated hybrid:      Yes
  Screening parameter omega:   0.300000E+00
  Range separated algorithm:   MatrixBased
Extra options:
                             Mulliken analysis
                             Force calculation
Force type                   original
                             Eigenvector printing


REKS Calcuation:             Yes
SSR(2,2) Calcuation:         Yes
Energy Functional:           (PPS+OSS)/2
Number of Core Orbitals:                  5
Number of Active Orbitals:                2
Number of Basis:                         12
Number of States:                         2
State-Averaging Weight:          0.500000
                                 0.500000
State of Interest:                        1
Initial Guess:               Diagonalize H0 matrix
Newton-Raphson for FON opt:  Yes
NR max. Iterations:                      50
Level Shifting:              Yes
Shift Value:                     0.300000
W Scale Factor:              C  =    3.000000
                             N  =    3.000000
                             H  =    3.000000
Transition Dipole:           No
Gradient of Microstate:      No
CP-REKS Solver:              Preconditioned Conjugate-Gradient
CG max. Iterations:                     100
CG Tolerance:                  0.100000E-07
Memory for A and Hxc:        Direct Updating Without Saving
Non-Adiabatic Coupling:      Yes

--------------------------------------------------------------------------------

***  Geometry step: 0

  iSCC       reks energy        Diff energy         x_a       SCC error   
    1       -6.2650111991       0.0000000000     0.999618    1.19656938
    2       -6.2765609261      -0.0115497270     0.999828    0.08678494
    3       -6.2802722492      -0.0037113232     0.999900    0.03489992
    4       -6.2821153530      -0.0018431038     0.999932    0.01658942
    5       -6.2831155851      -0.0010002321     0.999947    0.00844750
    6       -6.2836736928      -0.0005581076     0.999956    0.00733565
    7       -6.2839871492      -0.0003134564     0.999961    0.00603886
    8       -6.2841631141      -0.0001759649     0.999963    0.00480434
    9       -6.2842617957      -0.0000986816     0.999965    0.00373651
   10       -6.2843171924      -0.0000553967     0.999966    0.00286220
   11       -6.2843484048      -0.0000312124     0.999967    0.00217049
   12       -6.2843660995      -0.0000176947     0.999967    0.00163530
   13       -6.2843762123      -0.0000101129     0.999967    0.00122727
   14       -6.2843820465      -0.0000058342     0.999968    0.00091919
   15       -6.2843854463      -0.0000033998     0.999968    0.00068802
   16       -6.2843874476      -0.0000020013     0.999968    0.00051520
   17       -6.2843886371      -0.0000011895     0.999968    0.00038708
   18       -6.2843893505      -0.0000007134     0.999968    0.00031580
   19       -6.2843897819      -0.0000004313     0.999968    0.00026087
   20       -6.2843900445      -0.0000002626     0.999968    0.00021412
   21       -6.2843902054      -0.0000001609     0.999968    0.00017485
   22       -6.2843903045      -0.0000000991     0.999968    0.00014217
   23       -6.2843903657      -0.0000000612     0.999968    0.00011519
   24       -6.2843904037      -0.0000000380     0.999968    0.00009306
   25       -6.2843904273      -0.0000000236     0.999968    0.00007499
   26       -6.2843904421      -0.0000000147     0.999968    0.00006030
   27       -6.2843904513      -0.0000000092     0.999968    0.00004840
   28       -6.2843904570      -0.0000000058     0.999968    0.00003879
   29       -6.2843904607      -0.0000000036     0.999968    0.00003105
   30       -6.2843904629      -0.0000000023     0.999968    0.00002482
   31       -6.2843904643      -0.0000000014     0.999968    0.00001982
   32       -6.2843904652      -0.0000000009     0.999968    0.00001582
   33       -6.2843904658      -0.0000000006     0.999968    0.00001261
   34       -6.2843904661      -0.0000000004     0.999968    0.00001005
   35       -6.2843904664      -0.0000000002     0.999968    0.00000800
   36       -6.2843904665      -0.0000000001     0.999968    0.00000637
   37       -6.2843904666      -0.0000000001     0.999968    0.00000507
   38       -6.2843904666      -0.0000000001     0.999968    0.00000403
   39       -6.2843904667      -0.0000000000     0.999968    0.00000320
   40       -6.2843904667      -0.0000000000     0.999968    0.00000255
   41       -6.2843904667      -0.0000000000     0.999968    0.00000202
   42       -6.2843904667      -0.0000000000     0.999968    0.00000161
   43       -6.2843904667      -0.0000000000     0.999968    0.00000128
   44       -6.2843904667      -0.0000000000     0.999968    0.00000101
   45       -6.2843904667      -0.0000000000     0.999968    0.00000080
  
--------------------------------------------------
 Final SA-REKS(2,2) energy:      -6.28439047
  
 State     Energy      FON(1)    FON(2)   Spin
  PPS   -6.41411096   1.999936  0.000064  0.00
  OSS   -6.15466997   1.000000  1.000000  0.00
 Trip   -6.23396724   1.000000  1.000000  1.00
--------------------------------------------------

 Lagrangian Wab:  -0.00355988 -0.00355977

--------------------------------------------------
 SSR: 2SI-2SA-REKS(2,2) Hamiltonian matrix
               PPS           OSS
   PPS    -6.41411096   -0.00500580
   OSS    -0.00500580   -6.15466997
--------------------------------------------------

----------------------------------------------------------------
 SSR: 2SI-2SA-REKS(2,2) states
                    E_n       C_{PPS}    C_{OSS}
 SSR state  1   -6.41420751  -0.999814  -0.019284
 SSR state  2   -6.15457342   0.019284  -0.999814
----------------------------------------------------------------

 unrelaxed SSR FONs for S0:  1.999564  0.000436

Total Energy:                       -6.4142075095 H         -174.5395 eV
Extrapolated to 0:                  -6.4142075095 H         -174.5395 eV

----------------------------------------------------------------------------------
 Solving CP-REKS equation for  1 state vector...
----------------------------------------------------------------------------------
  CG solver: Constructing Y initial guess
  CG solver: Iteration    1    eps =    0.000082844594
  CG solver: Iteration    2    eps =    0.000012132072
  CG solver: Iteration    3    eps =    0.000000435842
  CG solver: Iteration    4    eps =    0.000000113703
  CG solver: Iteration    5    eps =    0.000000007590
  Convergence reached in CG solver after    5 iterations
  CG solver: Calculating converged R, Z, Q2 matrix
----------------------------------------------------------------------------------

----------------------------------------------------------------------------------
 Solving CP-REKS equation for SI between  1 and  2 state vectors...
----------------------------------------------------------------------------------
  CG solver: Constructing Y initial guess
  CG solver: Iteration    1    eps =    0.000917057233
  CG solver: Iteration    2    eps =    0.000558453617
  CG solver: Iteration    3    eps =    0.000190299918
  CG solver: Iteration    4    eps =    0.000002263774
  CG solver: Iteration    5    eps =    0.000000261264
  CG solver: Iteration    6    eps =    0.000000005085
  Convergence reached in CG solver after    6 iterations
  CG solver: Calculating converged R, Z, Q2 matrix
----------------------------------------------------------------------------------

--------------------------------------------------
 Gradient Information
--------------------------------------------------
           1 st state (SSR)
    -0.00204735    -0.00250600     0.05190463
     0.00526348     0.00007146    -0.03612188
     0.00876427    -0.00085054    -0.01075928
     0.00743988     0.00211669     0.00117168
    -0.01116032    -0.00020703     0.00374808
    -0.00825996     0.00137543    -0.00994323

           2 st state (SSR)
     0.00372774    -0.01040892     0.15587525
    -0.00596945     0.00671862    -0.16519442
    -0.00955260    -0.00958142     0.01030834
    -0.00490180     0.01071346    -0.00746669
     0.00776672    -0.00640014    -0.00543501
     0.00892938     0.00895840     0.01191252
--------------------------------------------------
 Coupling Information
--------------------------------------------------
 between  1 and  2 states
--------------------------------------------------
 g vector - difference gradient
    -0.00289579     0.00391355    -0.05208259
     0.00566186    -0.00326753     0.06461437
     0.00946838     0.00435761    -0.01054802
     0.00648805    -0.00432049     0.00434860
    -0.00981020     0.00307346     0.00460426
    -0.00891230    -0.00375659    -0.01093662

 h vector - derivative coupling
     0.00015794     0.00105854     0.00151838
    -0.00106814    -0.00151660    -0.00077929
    -0.00785515     0.00028721     0.00016505
    -0.00810129     0.00049003    -0.00067898
     0.00880131     0.00065818    -0.00024092
     0.00806533    -0.00097736     0.00001575

 G vector - GDV
    -0.00288755     0.00395146    -0.05198531
     0.00561646    -0.00332358     0.06453627
     0.00915844     0.00436544    -0.01053381
     0.00617084    -0.00429839     0.00431919
    -0.00946352     0.00309655     0.00459155
    -0.00859467    -0.00379149    -0.01092788

 H vector - DCV - non-adiabatic coupling
     0.00103796     0.00349276     0.01357904
    -0.00495186    -0.00535168    -0.01259569
    -0.03163842     0.00045820     0.00220182
    -0.03214312     0.00252766    -0.00325902
     0.03533068     0.00207669    -0.00161104
     0.03236477    -0.00320364     0.00168489
--------------------------------------------------


--------------------------------------------------------------------------------
DFTB+ running times                          cpu [s]             wall clock [s]
--------------------------------------------------------------------------------
SCC                                    +     0.02  ( 66.3%)      0.03  ( 61.0%)
Post-SCC processing                    +     0.01  ( 28.8%)      0.01  ( 26.8%)
--------------------------------------------------------------------------------
Missing                                +     0.00  (  5.0%)      0.01  ( 12.2%)
Total                                  =     0.03  (100.0%)      0.04  (100.0%)
--------------------------------------------------------------------------------
