 Fermi distribution function

Calculation with static geometry


********************************************************************************
 iSCC Total electronic   Diff electronic      SCC error    
   12   -0.53681409E+01   -0.48236970E-11    0.64298402E-08
********************************************************************************

 Total charge:     1.00000000

 Atomic gross charges (e)
 Atom           Charge
    1       0.32520941
    2      -0.21872794
    3       0.15667858
    4       0.27656001
    5       0.30494823
    6       0.15533171

Nr. of electrons (up):     12.00000000
Atom populations (up)
 Atom       Population
    1       3.67479059
    2       5.21872794
    3       0.84332142
    4       0.72343999
    5       0.69505177
    6       0.84466829

l-shell populations (up)
 Atom Sh.   l       Population
    1   1   0       1.31788579
    1   2   1       2.35690480
    2   1   0       1.42912168
    2   2   1       3.78960625
    3   1   0       0.84332142
    4   1   0       0.72343999
    5   1   0       0.69505177
    6   1   0       0.84466829

Orbital populations (up)
 Atom Sh.   l   m       Population  Label
    1   1   0   0       1.31788579  s
    1   2   1  -1       0.49458760  p_y
    1   2   1   0       0.88925876  p_z
    1   2   1   1       0.97305844  p_x
    2   1   0   0       1.42912168  s
    2   2   1  -1       1.31764679  p_y
    2   2   1   0       1.07279817  p_z
    2   2   1   1       1.39916130  p_x
    3   1   0   0       0.84332142  s
    4   1   0   0       0.72343999  s
    5   1   0   0       0.69505177  s
    6   1   0   0       0.84466829  s

Fermi level:                        -0.4897296049 H          -13.3262 eV
Band energy:                        -8.8058106564 H         -239.6183 eV
TS:                                  0.0000000000 H            0.0000 eV
Band free energy (E-TS):            -8.8058106564 H         -239.6183 eV
Extrapolated E(0K):                 -8.8058106564 H         -239.6183 eV
Input / Output electrons (q):     12.0000000000     12.0000000000

Energy H0:                          -5.5015154227 H         -149.7039 eV
Energy SCC:                          0.1333745500 H            3.6293 eV
Total Electronic energy:            -5.3681408727 H         -146.0745 eV
Repulsive energy:                    0.1783289942 H            4.8526 eV
Total energy:                       -5.1898118785 H         -141.2220 eV
Extrapolated to 0:                  -5.1898118785 H         -141.2220 eV
Total Mermin free energy:           -5.1898118785 H         -141.2220 eV
Force related energy:               -5.1898118785 H         -141.2220 eV

SCC converged

Excitation Energy:                   0.0897467726 H            2.4421 eV

Total Forces
    1      0.007692268281      0.002510811845      0.045058902708
    2     -0.007149891131      0.010392475006     -0.047251651620
    3     -0.008820567650      0.011857956272      0.002425855154
    4     -0.011358147915     -0.014184700967     -0.003420776093
    5      0.015334971335      0.006835973038     -0.000582140136
    6      0.004301367079     -0.017412515194      0.003769809986

Maximal derivative component:        0.472517E-01 au


