     6
  Step:   300            Position(A)                                  Velocity(au)
C        -0.06013475     0.02239122     0.02122964     0.00009688     0.00010910     0.00015974
N        -0.01672395    -0.05910578     1.29679758    -0.00029923     0.00000454    -0.00019434
H         0.16813189    -0.89926108    -0.52404177    -0.00089430    -0.00057523     0.00078324
H         0.01470152     0.78813812     1.86548216     0.00060093    -0.00051208     0.00044790
H        -0.14468907    -0.97990848     1.73516980     0.00252120    -0.00031885     0.00027862
H        -0.30210226     0.97580036    -0.45828680     0.00077606     0.00004304    -0.00071255
