 Fermi distribution function

Calculation with static geometry


********************************************************************************
 iSCC Total electronic   Diff electronic      SCC error    
   11   -0.54057038E+01   -0.15276669E-12    0.13022946E-07
********************************************************************************

 Total charge:     1.00000000

 Atomic gross charges (e)
 Atom           Charge
    1       0.31452453
    2      -0.20462339
    3       0.14982988
    4       0.28467625
    5       0.31249777
    6       0.14309495

Nr. of electrons (up):     12.00000000
Atom populations (up)
 Atom       Population
    1       3.68547547
    2       5.20462339
    3       0.85017012
    4       0.71532375
    5       0.68750223
    6       0.85690505

l-shell populations (up)
 Atom Sh.   l       Population
    1   1   0       1.28811456
    1   2   1       2.39736091
    2   1   0       1.40298351
    2   2   1       3.80163988
    3   1   0       0.85017012
    4   1   0       0.71532375
    5   1   0       0.68750223
    6   1   0       0.85690505

Orbital populations (up)
 Atom Sh.   l   m       Population  Label
    1   1   0   0       1.28811456  s
    1   2   1  -1       0.51536585  p_y
    1   2   1   0       0.90172068  p_z
    1   2   1   1       0.98027438  p_x
    2   1   0   0       1.40298351  s
    2   2   1  -1       1.30805296  p_y
    2   2   1   0       1.08002945  p_z
    2   2   1   1       1.41355747  p_x
    3   1   0   0       0.85017012  s
    4   1   0   0       0.71532375  s
    5   1   0   0       0.68750223  s
    6   1   0   0       0.85690505  s

Fermi level:                        -0.4815650512 H          -13.1041 eV
Band energy:                        -8.8782799894 H         -241.5903 eV
TS:                                  0.0000000000 H            0.0000 eV
Band free energy (E-TS):            -8.8782799894 H         -241.5903 eV
Extrapolated E(0K):                 -8.8782799894 H         -241.5903 eV
Input / Output electrons (q):     12.0000000000     12.0000000000

Energy H0:                          -5.5389618809 H         -150.7228 eV
Energy SCC:                          0.1332581001 H            3.6261 eV
Total Electronic energy:            -5.4057037808 H         -147.0967 eV
Repulsive energy:                    0.2116213357 H            5.7585 eV
Total energy:                       -5.1940824451 H         -141.3382 eV
Extrapolated to 0:                  -5.1940824451 H         -141.3382 eV
Total Mermin free energy:           -5.1940824451 H         -141.3382 eV
Force related energy:               -5.1940824451 H         -141.3382 eV

SCC converged

Excitation Energy:                   0.0872534204 H            2.3743 eV

Total Forces
    1      0.010635500372      0.005871699365     -0.021409862476
    2     -0.006128516060      0.005881245039      0.018684703391
    3     -0.007095324252      0.012047771248      0.001420189406
    4     -0.011641969075     -0.013542920318     -0.002060722414
    5      0.013147721740      0.007286405019      0.001385132753
    6      0.001082587274     -0.017544200353      0.001980559341

Maximal derivative component:        0.214099E-01 au


