|===============================================================================
|
|  DFTB+ release 20.1
|
|  Copyright (C) 2006 - 2020  DFTB+ developers group
|
|===============================================================================
|
|  When publishing results obtained with DFTB+, please cite the following
|  reference:
|
|  * DFTB+, a software package for efficient approximate density functional
|    theory based atomistic simulations, J. Chem. Phys. 152, 124101 (2020).
|    [doi: 10.1063/1.5143190]
|
|  You should also cite additional publications crediting the parametrization
|  data you use. Please consult the documentation of the SK-files for the
|  references.
|
|===============================================================================

Reading input file 'dftb_in.hsd'
Parser version: 8

--------------------------------------------------------------------------------
Reading SK-files:
Done.


Processed input in HSD format written to 'dftb_pin.hsd'

Starting initialization...
--------------------------------------------------------------------------------
WARNING!
-> Excited state forces are not implemented yet for fractional occupations, kT=  0.3158E-02K
OpenMP threads:              1
Chosen random seed:          506119531
Mode:                        Static calculation
Self consistent charges:     Yes
SCC-tolerance:                 0.100000E-05
Max. scc iterations:                    100
Shell resolved Hubbard:      No
Spin polarisation:           No
Nr. of up electrons:             6.000000
Nr. of down electrons:           6.000000
Periodic boundaries:         No
Electronic solver:           Relatively robust
Mixer:                       Broyden mixer
Mixing parameter:                  0.200000
Maximal SCC-cycles:                     100
Nr. of chrg. vec. in memory:              0
Electronic temperature:        0.100000E-07 H      0.272114E-06 eV
Initial charges:             Set automatically (system chrg:   0.100E+01)
Included shells:             C:  s, p
                             N:  s, p
                             H:  s
Extra options:
                             Mulliken analysis
                             Force calculation
Force type                   original
                             Eigenvector printing

--------------------------------------------------------------------------------

***  Geometry step: 0

 iSCC Total electronic   Diff electronic      SCC error    
    1   -0.53942426E+01    0.00000000E+00    0.88736498E+00
    2   -0.54004748E+01   -0.62322104E-02    0.61596889E+00
    3   -0.54052209E+01   -0.47460941E-02    0.91232093E-01
    4   -0.54055368E+01   -0.31590006E-03    0.98257796E-01
    5   -0.54056915E+01   -0.15470885E-03    0.21063943E-01
    6   -0.54056992E+01   -0.77228009E-05    0.11422211E-01
    7   -0.54057038E+01   -0.45450981E-05    0.30922587E-03
    8   -0.54057038E+01   -0.20965896E-08    0.20105881E-03
    9   -0.54057038E+01   -0.14880577E-08    0.18336622E-05
   10   -0.54057038E+01   -0.44408921E-13    0.19163445E-05
   11   -0.54057038E+01   -0.15276669E-12    0.13022946E-07
>> Charges saved for restart in charges.bin

Total Energy:                       -5.1068290247 H         -138.9639 eV
Extrapolated to 0:                  -5.1940824451 H         -141.3382 eV
Total Mermin free energy:           -5.1068290247 H         -138.9639 eV
Force related energy:               -5.1940824451 H         -141.3382 eV

--------------------------------------------------------------------------------
DFTB+ running times                          cpu [s]             wall clock [s]
--------------------------------------------------------------------------------
SCC                                    +     0.01  ( 60.7%)      0.04  ( 68.5%)
Post-SCC processing                    +     0.01  ( 31.8%)      0.01  ( 24.1%)
--------------------------------------------------------------------------------
Missing                                +     0.00  (  7.5%)      0.00  (  7.4%)
Total                                  =     0.02  (100.0%)      0.05  (100.0%)
--------------------------------------------------------------------------------
