 Fermi distribution function

Calculation with static geometry


********************************************************************************
 iSCC Total electronic   Diff electronic      SCC error    
   10   -0.54064954E+01   -0.44142467E-12    0.51596611E-07
********************************************************************************

 Total charge:     1.00000000

 Atomic gross charges (e)
 Atom           Charge
    1       0.15754296
    2      -0.04777782
    3       0.18723803
    4       0.26951700
    5       0.28163711
    6       0.15184272

Nr. of electrons (up):     12.00000000
Atom populations (up)
 Atom       Population
    1       3.84245704
    2       5.04777782
    3       0.81276197
    4       0.73048300
    5       0.71836289
    6       0.84815728

l-shell populations (up)
 Atom Sh.   l       Population
    1   1   0       1.31789272
    1   2   1       2.52456431
    2   1   0       1.42497658
    2   2   1       3.62280124
    3   1   0       0.81276197
    4   1   0       0.73048300
    5   1   0       0.71836289
    6   1   0       0.84815728

Orbital populations (up)
 Atom Sh.   l   m       Population  Label
    1   1   0   0       1.31789272  s
    1   2   1  -1       0.60187618  p_y
    1   2   1   0       0.88094947  p_z
    1   2   1   1       1.04173867  p_x
    2   1   0   0       1.42497658  s
    2   2   1  -1       1.32983932  p_y
    2   2   1   0       1.11121368  p_z
    2   2   1   1       1.18174823  p_x
    3   1   0   0       0.81276197  s
    4   1   0   0       0.73048300  s
    5   1   0   0       0.71836289  s
    6   1   0   0       0.84815728  s

Fermi level:                        -0.4978889466 H          -13.5482 eV
Band energy:                        -8.9329448808 H         -243.0778 eV
TS:                                  0.0000000000 H            0.0000 eV
Band free energy (E-TS):            -8.9329448808 H         -243.0778 eV
Extrapolated E(0K):                 -8.9329448808 H         -243.0778 eV
Input / Output electrons (q):     12.0000000000     12.0000000000

Energy H0:                          -5.5404873085 H         -150.7643 eV
Energy SCC:                          0.1339918713 H            3.6461 eV
Total Electronic energy:            -5.4064954372 H         -147.1182 eV
Repulsive energy:                    0.1846074591 H            5.0234 eV
Total energy:                       -5.2218879781 H         -142.0948 eV
Extrapolated to 0:                  -5.2218879781 H         -142.0948 eV
Total Mermin free energy:           -5.2218879781 H         -142.0948 eV
Force related energy:               -5.2218879781 H         -142.0948 eV

SCC converged

Excitation Energy:                   0.1441074958 H            3.9214 eV

Total Forces
    1      0.002901379202      0.003508185212      0.033015939649
    2      0.016437129270      0.001690077618     -0.042356996820
    3     -0.009613071117      0.003260882518      0.000900370020
    4     -0.016622655318     -0.006797982827      0.002554781872
    5      0.002831550825      0.005214031383      0.005988414342
    6      0.004065667138     -0.006875193904     -0.000102509063

Maximal derivative component:        0.423570E-01 au


