|===============================================================================
|
|  DFTB+ release 20.1
|
|  Copyright (C) 2006 - 2020  DFTB+ developers group
|
|===============================================================================
|
|  When publishing results obtained with DFTB+, please cite the following
|  reference:
|
|  * DFTB+, a software package for efficient approximate density functional
|    theory based atomistic simulations, J. Chem. Phys. 152, 124101 (2020).
|    [doi: 10.1063/1.5143190]
|
|  You should also cite additional publications crediting the parametrization
|  data you use. Please consult the documentation of the SK-files for the
|  references.
|
|===============================================================================

Reading input file 'dftb_in.hsd'
Parser version: 8

--------------------------------------------------------------------------------
Reading SK-files:
Done.


Processed input in HSD format written to 'dftb_pin.hsd'

Starting initialization...
--------------------------------------------------------------------------------
WARNING!
-> Excited state forces are not implemented yet for fractional occupations, kT=  0.3158E-02K
OpenMP threads:              1
Chosen random seed:          435506828
Mode:                        Static calculation
Self consistent charges:     Yes
SCC-tolerance:                 0.100000E-05
Max. scc iterations:                    100
Shell resolved Hubbard:      No
Spin polarisation:           No
Nr. of up electrons:             6.000000
Nr. of down electrons:           6.000000
Periodic boundaries:         No
Electronic solver:           Relatively robust
Mixer:                       Broyden mixer
Mixing parameter:                  0.200000
Maximal SCC-cycles:                     100
Nr. of chrg. vec. in memory:              0
Electronic temperature:        0.100000E-07 H      0.272114E-06 eV
Initial charges:             Set automatically (system chrg:   0.100E+01)
Included shells:             C:  s, p
                             N:  s, p
                             H:  s
Extra options:
                             Mulliken analysis
                             Force calculation
Force type                   original
                             Eigenvector printing

--------------------------------------------------------------------------------

***  Geometry step: 0

 iSCC Total electronic   Diff electronic      SCC error    
    1   -0.53999102E+01    0.00000000E+00    0.63978467E+00
    2   -0.54036278E+01   -0.37176962E-02    0.43580434E+00
    3   -0.54062171E+01   -0.25892551E-02    0.67548078E-01
    4   -0.54064912E+01   -0.27410097E-03    0.18450150E-01
    5   -0.54064927E+01   -0.14832575E-05    0.55860978E-02
    6   -0.54064954E+01   -0.27447656E-05    0.37256000E-03
    7   -0.54064954E+01   -0.27606388E-08    0.95945739E-04
    8   -0.54064954E+01   -0.31719161E-09    0.67370470E-05
    9   -0.54064954E+01   -0.21547208E-11    0.34406041E-05
   10   -0.54064954E+01   -0.44142467E-12    0.51596611E-07
>> Charges saved for restart in charges.bin

Total Energy:                       -5.0777804822 H         -138.1734 eV
Extrapolated to 0:                  -5.2218879781 H         -142.0948 eV
Total Mermin free energy:           -5.0777804822 H         -138.1734 eV
Force related energy:               -5.2218879781 H         -142.0948 eV

--------------------------------------------------------------------------------
DFTB+ running times                          cpu [s]             wall clock [s]
--------------------------------------------------------------------------------
SCC                                    +     0.01  ( 62.7%)      0.03  ( 64.0%)
Post-SCC processing                    +     0.00  ( 29.8%)      0.01  ( 26.0%)
--------------------------------------------------------------------------------
Missing                                +     0.00  (  7.5%)      0.00  ( 10.0%)
Total                                  =     0.01  (100.0%)      0.05  (100.0%)
--------------------------------------------------------------------------------
