     6
  Step:   300            Position(A)                                  Velocity(au)
C        -0.05380741    -0.00425161     0.02779064     0.00005091    -0.00004345     0.00001314
N        -0.05095515    -0.04846164     1.28821854    -0.00018258     0.00006095    -0.00001245
H         0.11868851     0.98511507    -0.39492282    -0.00164450     0.00011370    -0.00031074
H         0.09520271    -0.88319219     1.85617947    -0.00059363     0.00025827     0.00040428
H         0.19596169     0.79516983     1.83457487     0.00264670    -0.00080512     0.00034123
H        -0.27352945    -0.84277326    -0.63649469     0.00152206     0.00010388    -0.00041825
