     6
  Step:     0            Position(A)                                  Velocity(au)
C        -0.03233821     0.02056969     0.03791650    -0.00007941    -0.00007387    -0.00013330
N        -0.03952218    -0.06218089     1.27547769     0.00013160    -0.00006412     0.00005257
H         0.87895262    -0.00662716    -0.52936667     0.00026547     0.00050725    -0.00030985
H         0.77504380    -0.09751723     1.85574576    -0.00157386     0.00042597    -0.00023598
H        -0.94886765     0.02587053     1.89640654    -0.00034197     0.00043998     0.00031447
H        -0.98350885     0.02747406    -0.50704559     0.00076784     0.00039805     0.00108918
     6
  Step:     1            Position(A)                                  Velocity(au)
C        -0.03279103     0.02019134     0.03694066    -0.00008528    -0.00006462    -0.00022224
N        -0.03886678    -0.06254988     1.27602735     0.00010682    -0.00007069     0.00014680
H         0.88075731    -0.00385566    -0.53140768     0.00039135     0.00050669    -0.00043378
H         0.76682024    -0.09520146     1.85474784    -0.00141463     0.00042034    -0.00011556
H        -0.95019211     0.02827238     1.89773292    -0.00014104     0.00043798     0.00016862
H        -0.97947743     0.02962086    -0.50134337     0.00069613     0.00038740     0.00098887
     6
  Step:     2            Position(A)                                  Velocity(au)
C        -0.03327098     0.01986284     0.03548562    -0.00008922    -0.00005569    -0.00030801
N        -0.03835381    -0.06295415     1.27708342     0.00007975    -0.00007702     0.00023722
H         0.88323325    -0.00108492    -0.53411144     0.00050971     0.00050699    -0.00055146
H         0.75957026    -0.09291949     1.85448178    -0.00121960     0.00041381     0.00003043
H        -0.95041040     0.03066121     1.89825089     0.00006071     0.00043538     0.00002030
H        -0.97589448     0.03171158    -0.49622907     0.00060406     0.00037762     0.00087446
     6
  Step:     3            Position(A)                                  Velocity(au)
C        -0.03376694     0.01958222     0.03357165    -0.00009104    -0.00004715    -0.00038955
N        -0.03799443    -0.06339227     1.27862204     0.00005093    -0.00008305     0.00032278
H         0.88633252     0.00168977    -0.53743949     0.00061812     0.00050806    -0.00066135
H         0.75348027    -0.09067524     1.85508069    -0.00099290     0.00040671     0.00019882
H        -0.94952811     0.03303459     1.89795492     0.00025962     0.00043244    -0.00012761
H        -0.97287026     0.03375123    -0.49177859     0.00049223     0.00036873     0.00074646
     6
  Step:     4            Position(A)                                  Velocity(au)
C        -0.03426680     0.01934710     0.03122456    -0.00009057    -0.00003907    -0.00046579
N        -0.03779672    -0.06386263     1.28061415     0.00002097    -0.00008876     0.00040254
H         0.88999454     0.00447247    -0.54134562     0.00071425     0.00050967    -0.00076200
H         0.74870946    -0.08847073     1.85665652    -0.00074028     0.00039932     0.00038494
H        -0.94757053     0.03539142     1.89685502     0.00045195     0.00042934    -0.00027216
H        -0.97051024     0.03574498    -0.48806389     0.00036187     0.00036071     0.00060580
     6
  Step:     5            Position(A)                                  Velocity(au)
C        -0.03475780     0.01915478     0.02847550    -0.00008772    -0.00003150    -0.00053572
N        -0.03776502    -0.06436343     1.28302610    -0.00000937    -0.00009411     0.00047561
H         0.89414701     0.00726600    -0.54577632     0.00079595     0.00051153    -0.00085198
H         0.74538101    -0.08630642     1.85929222    -0.00046920     0.00039186     0.00058268
H        -0.94458347     0.03773186     1.89497728     0.00063361     0.00042628    -0.00041019
H        -0.96891111     0.03769765    -0.48515071     0.00021509     0.00035340     0.00045391
     6
  Step:     6            Position(A)                                  Velocity(au)
C        -0.03522696     0.01900230     0.02536077    -0.00008251    -0.00002449    -0.00059831
N        -0.03789924    -0.06489267     1.28581995    -0.00003918    -0.00009902     0.00054115
H         0.89870665     0.01007150    -0.55067106     0.00086120     0.00051324    -0.00092994
H         0.74357379    -0.08418161     1.86303428    -0.00018859     0.00038447     0.00078460
H        -0.94063531     0.04005735     1.89236528     0.00080008     0.00042350    -0.00053821
H        -0.96815594     0.03961316    -0.48309557     0.00005498     0.00034659     0.00029290
     6
  Step:     7            Position(A)                                  Velocity(au)
C        -0.03566160     0.01888657     0.02192180    -0.00007504    -0.00001805    -0.00065256
N        -0.03819419    -0.06544809     1.28895374    -0.00006747    -0.00010345     0.00059836
H         0.90358028     0.01288788    -0.55596261     0.00090824     0.00051433    -0.00099458
H         0.74331525    -0.08209501     1.86788650     0.00009145     0.00037719     0.00098230
H        -0.93581965     0.04237074     1.88908184     0.00094635     0.00042123    -0.00065244
H        -0.96830886     0.04149406    -0.48194239    -0.00011432     0.00033996     0.00012555
     6
  Step:     8            Position(A)                                  Velocity(au)
C        -0.03604981     0.01880432     0.01820492    -0.00006552    -0.00001223    -0.00069756
N        -0.03863908    -0.06602710     1.29238147    -0.00009316    -0.00010733     0.00064645
H         0.90866620     0.01571155    -0.56157741     0.00093568     0.00051431    -0.00104476
H         0.74457662    -0.08004543     1.87380599     0.00036024     0.00036993     0.00116694
H        -0.93025788     0.04467649     1.88521073     0.00106703     0.00041979    -0.00074883
H        -0.96940960     0.04334104    -0.48171882    -0.00028770     0.00033313    -0.00004465
     6
  Step:     9            Position(A)                                  Velocity(au)
C        -0.03638111     0.01875224     0.01426107    -0.00005427    -0.00000703    -0.00073250
N        -0.03921727    -0.06662677     1.29605325    -0.00011518    -0.00011058     0.00068471
H         0.91385615     0.01853620    -0.56743636     0.00094261     0.00051269    -0.00107956
H         0.74727144    -0.07803236     1.88070210     0.00060722     0.00036251     0.00132989
H        -0.92410131     0.04698102     1.88085798     0.00115660     0.00041957    -0.00082328
H        -0.97146846     0.04515257    -0.48243273    -0.00045923     0.00032570    -0.00021362
     6
  Step:    10            Position(A)                                  Velocity(au)
C        -0.03664693     0.01872695     0.01014510    -0.00004171    -0.00000247    -0.00075681
N        -0.03990640    -0.06724387     1.29991549    -0.00013255    -0.00011317     0.00071256
H         0.91903793     0.02135284    -0.57345606     0.00092871     0.00050905    -0.00109844
H         0.75125795    -0.07605660     1.88843909     0.00082281     0.00035470     0.00146352
H        -0.91753153     0.04929311     1.87615196     0.00120994     0.00042102    -0.00087201
H        -0.97446259     0.04692474    -0.48406935    -0.00062256     0.00031725    -0.00037692
     6
  Step:    11            Position(A)                                  Velocity(au)
C        -0.03684106     0.01872504     0.00591459    -0.00002831     0.00000147    -0.00077027
N        -0.04067908    -0.06787486     1.30391171    -0.00014448    -0.00011506     0.00072969
H         0.92409846     0.02415021    -0.57955055     0.00089444     0.00050307    -0.00110137
H         0.75634579    -0.07412053     1.89684256     0.00099924     0.00034624     0.00156193
H        -0.91075749     0.05162418     1.87124105     0.00122290     0.00042465    -0.00089198
H        -0.97833432     0.04865133    -0.48658964    -0.00077141     0.00030744    -0.00053008
     6
  Step:    12            Position(A)                                  Velocity(au)
C        -0.03696000     0.01874319     0.00162802    -0.00001461     0.00000479    -0.00077309
N        -0.04150398    -0.06851611     1.30798384    -0.00015048    -0.00011627     0.00073615
H         0.92892801     0.02691539    -0.58563411     0.00084111     0.00049465    -0.00108894
H         0.76230680    -0.07222817     1.90570966     0.00113128     0.00033692     0.00162155
H        -0.90400965     0.05398851     1.86628917     0.00119297     0.00043102    -0.00088137
H        -0.98299227     0.05032413    -0.48993055    -0.00090021     0.00029602    -0.00066900
     6
  Step:    13            Position(A)                                  Velocity(au)
C        -0.03700305     0.01877814    -0.00265745    -0.00000110     0.00000752    -0.00076596
N        -0.04234757    -0.06916403     1.31207421    -0.00015038    -0.00011685     0.00073246
H         0.93342474     0.02963488    -0.59162473     0.00077087     0.00048390    -0.00106251
H         0.76888950    -0.07038477     1.91482238     0.00121672     0.00032665     0.00164159
H        -0.89752983     0.05640331     1.86146840     0.00111987     0.00044069    -0.00084000
H        -0.98831586     0.05193358    -0.49400751    -0.00100465     0.00028290    -0.00079044
     6
  Step:    14            Position(A)                                  Velocity(au)
C        -0.03697219     0.01882682    -0.00688871     0.00001178     0.00000971    -0.00075014
N        -0.04317607    -0.06981535     1.31612807    -0.00014443    -0.00011692     0.00071966
H         0.93749934     0.03229590    -0.59744808     0.00068661     0.00047122    -0.00102415
H         0.77583553    -0.06859620     1.92396242     0.00125647     0.00031548     0.00162398
H        -0.89155784     0.05888849     1.85694924     0.00100587     0.00045419    -0.00076952
H        -0.99416294     0.05346967    -0.49871942    -0.00108223     0.00026816    -0.00089241
     6
  Step:    15            Position(A)                                  Velocity(au)
C        -0.03687176     0.01888641    -0.01101950     0.00002367     0.00001142    -0.00072727
N        -0.04395759    -0.07046742     1.32009657    -0.00013320    -0.00011665     0.00069927
H         0.94107869     0.03488778    -0.60304130     0.00059161     0.00045722    -0.00097648
H         0.78289585    -0.06686796     1.93292553     0.00125416     0.00030365     0.00157302
H        -0.88631704     0.06146632     1.85289029     0.00085562     0.00047199    -0.00067329
H        -1.00037992     0.05492289    -0.50395558    -0.00113243     0.00025204    -0.00097438
     6
  Step:    16            Position(A)                                  Velocity(au)
C        -0.03670779     0.01895444    -0.01501269     0.00003436     0.00001273    -0.00069928
N        -0.04466400    -0.07111843     1.32393926    -0.00011753    -0.00011623     0.00067312
H         0.94410791     0.03740327    -0.60835593     0.00048918     0.00044266    -0.00092244
H         0.78984518    -0.06520429     1.94153384     0.00121542     0.00029146     0.00149455
H        -0.88200007     0.06416082     1.84942820     0.00067579     0.00049445    -0.00055607
H        -1.00681278     0.05628512    -0.50960378    -0.00115655     0.00023489    -0.00103725
     6
  Step:    17            Position(A)                                  Velocity(au)
C        -0.03648741     0.01902880    -0.01884156     0.00004376     0.00001371    -0.00066811
N        -0.04527230    -0.07176755     1.32762592    -0.00009840    -0.00011585     0.00064314
H         0.94655062     0.03983933    -0.61335951     0.00038232     0.00042838    -0.00086485
H         0.79649133    -0.06360775     1.94964330     0.00114688     0.00027931     0.00139505
H        -0.87875777     0.06699718     1.84667018     0.00047404     0.00052180    -0.00042329
H        -1.01331688     0.05755030    -0.51555807    -0.00115718     0.00021706    -0.00108299
     6
  Step:    18            Position(A)                                  Velocity(au)
C        -0.03621809     0.01910784    -0.02248997     0.00005186     0.00001443    -0.00063545
N        -0.04576531    -0.07241498     1.33113704    -0.00007680    -0.00011568     0.00061111
H         0.94838671     0.04219751    -0.61803504     0.00027337     0.00041510    -0.00080617
H         0.80268062    -0.06207837     1.95714675     0.00105519     0.00026757     0.00128067
H        -0.87669481     0.07000065     1.84469094     0.00025824     0.00055405    -0.00028046
H        -1.01976348     0.05871438    -0.52172425    -0.00113747     0.00019886    -0.00111414
     6
  Step:    19            Position(A)                                  Velocity(au)
C        -0.03590722     0.01919030    -0.02595094     0.00005873     0.00001498    -0.00060257
N        -0.04613156    -0.07306181     1.33446290    -0.00005365    -0.00011584     0.00057843
H         0.94960899     0.04448338    -0.62237882     0.00016399     0.00040337    -0.00074823
H         0.80829658    -0.06061417     1.96397120     0.00094614     0.00025652     0.00115649
H        -0.87586864     0.07319581     1.84353243     0.00003610     0.00059091    -0.00013287
H        -1.02604276     0.05977508    -0.52802285    -0.00110059     0.00018047    -0.00113326
     6
  Step:    20            Position(A)                                  Velocity(au)
C        -0.03556171     0.01927528    -0.02922420     0.00006446     0.00001540    -0.00057023
N        -0.04636487    -0.07370964     1.33760149    -0.00002976    -0.00011637     0.00054609
H         0.95021944     0.04670554    -0.62639712     0.00005529     0.00039353    -0.00069221
H         0.81325448    -0.05921154     1.97007140     0.00082435     0.00024629     0.00102630
H        -0.87629134     0.07660456     1.84320606    -0.00018509     0.00063174     0.00001468
H        -1.03206343     0.06073129    -0.53438930    -0.00104917     0.00016197    -0.00114254
     6
  Step:    21            Position(A)                                  Velocity(au)
C        -0.03518798     0.01936218    -0.03231360     0.00006728     0.00001802    -0.00058236
N        -0.04646357    -0.07436025     1.34055618    -0.00000577    -0.00012024     0.00054946
H         0.95022596     0.04887437    -0.63010254    -0.00007172     0.00043385    -0.00059938
H         0.81749467    -0.05786605     1.97542261     0.00067794     0.00018955     0.00087919
H        -0.87793391     0.08024475     1.84369619    -0.00037537     0.00073655     0.00013860
H        -1.03774933     0.06158229    -0.54077133    -0.00095228     0.00009625    -0.00111449
     6
  Step:    22            Position(A)                                  Velocity(au)
C        -0.03481238     0.01947599    -0.03571061     0.00006726     0.00002288    -0.00064104
N        -0.04642919    -0.07504891     1.34372144     0.00001767    -0.00012721     0.00059094
H         0.94942062     0.05153777    -0.63307307    -0.00021625     0.00051393    -0.00046980
H         0.82080537    -0.05710037     1.97986388     0.00050880     0.00009715     0.00071295
H        -0.88047219     0.08480829     1.84474979    -0.00052889     0.00088906     0.00023248
H        -1.04266995     0.06180329    -0.54680259    -0.00081062    -0.00000510    -0.00104890
     6
  Step:    23            Position(A)                                  Velocity(au)
C        -0.03444009     0.01961660    -0.03944201     0.00006623     0.00002761    -0.00070144
N        -0.04626711    -0.07577478     1.34712744     0.00003995    -0.00013391     0.00063503
H         0.94782127     0.05458935    -0.63532670    -0.00035597     0.00057967    -0.00034428
H         0.82315258    -0.05678579     1.98335069     0.00033551     0.00002227     0.00054186
H        -0.88381517     0.09013117     1.84628137    -0.00066471     0.00101864     0.00031222
H        -1.04676343     0.06152561    -0.55243513    -0.00065925    -0.00008875    -0.00097602
     6
  Step:    24            Position(A)                                  Velocity(au)
C        -0.03407682     0.01978261    -0.04350107     0.00006412     0.00003203    -0.00075929
N        -0.04598543    -0.07653613     1.35077430     0.00006055    -0.00014016     0.00067795
H         0.94546713     0.05797580    -0.63689678    -0.00048742     0.00063713    -0.00022503
H         0.82453166    -0.05685303     1.98588196     0.00016283    -0.00004212     0.00037187
H        -0.88785471     0.09612170     1.84821743    -0.00077917     0.00113303     0.00037838
H        -1.04999189     0.06081755    -0.55764267    -0.00050173    -0.00016208    -0.00089856
     6
  Step:    25            Position(A)                                  Velocity(au)
C        -0.03372849     0.01997210    -0.04786859     0.00006090     0.00003606    -0.00081260
N        -0.04559512    -0.07733024     1.35465132     0.00007891    -0.00014577     0.00071801
H         0.94241193     0.06166020    -0.63782406    -0.00060779     0.00068842    -0.00011353
H         0.82495963    -0.05725328     1.98747764    -0.00000512    -0.00009875     0.00020672
H        -0.89246236     0.10270552     1.85048056    -0.00086862     0.00123398     0.00042999
H        -1.05233166     0.05972682    -0.56240729    -0.00034072    -0.00022776    -0.00081791
     6
  Step:    26            Position(A)                                  Velocity(au)
C        -0.03340119     0.02018271    -0.05251677     0.00005654     0.00003962    -0.00085991
N        -0.04510990    -0.07815338     1.35874050     0.00009454    -0.00015055     0.00075396
H         0.93872384     0.06561368    -0.63815642    -0.00071422     0.00073453    -0.00001133
H         0.82447483    -0.05794869     1.98817549    -0.00016414    -0.00014908     0.00004986
H        -0.89749196     0.10981252     1.85298806    -0.00093017     0.00132165     0.00046619
H        -1.05377218     0.05829062    -0.56671726    -0.00017891    -0.00028714    -0.00073530
     6
  Step:    27            Position(A)                                  Velocity(au)
C        -0.03310109     0.02041175    -0.05741088     0.00005105     0.00004264    -0.00090005
N        -0.04454607    -0.07900086     1.36301789     0.00010698    -0.00015435     0.00078480
H         0.93448634     0.06981119    -0.63794974    -0.00080386     0.00077597     0.00007999
H         0.82313823    -0.05890759     1.98803089    -0.00030989    -0.00019395    -0.00009532
H        -0.90278435     0.11737169     1.85565379    -0.00096196     0.00139565     0.00048658
H        -1.05431696     0.05654051    -0.57056680    -0.00001914    -0.00034092    -0.00065200
     6
  Step:    28            Position(A)                                  Velocity(au)
C        -0.03283440     0.02065616    -0.06251045     0.00004444     0.00004506    -0.00093214
N        -0.04392211    -0.07986714     1.36745443     0.00011587    -0.00015703     0.00080972
H         0.92979826     0.07422961    -0.63726831    -0.00087397     0.00081308     0.00015879
H         0.82103398    -0.06010221     1.98711711    -0.00043805    -0.00023386    -0.00022546
H        -0.90817307     0.12530898     1.85839076    -0.00096334     0.00145545     0.00049133
H        -1.05398465     0.05450518    -0.57395671     0.00013559    -0.00038951    -0.00056941
     6
  Step:    29            Position(A)                                  Velocity(au)
C        -0.03260718     0.02091259    -0.06777061     0.00003678     0.00004685    -0.00095560
N        -0.04325828    -0.08074608     1.37201704     0.00012098    -0.00015853     0.00082817
H         0.92477311     0.07884760    -0.63618501    -0.00092218     0.00084621     0.00022360
H         0.81826976    -0.06150668     1.98552514    -0.00054447    -0.00026910    -0.00033742
H        -0.91349082     0.13354738     1.86111436    -0.00093495     0.00150077     0.00048125
H        -1.05281004     0.05221156    -0.57689518     0.00028221    -0.00043313    -0.00048904
     6
  Step:    30            Position(A)                                  Velocity(au)
C        -0.03242516     0.02117747    -0.07314357     0.00002815     0.00004797    -0.00097016
N        -0.04257598    -0.08163118     1.37666964     0.00012216    -0.00015883     0.00083981
H         0.91953696     0.08364555    -0.63478029    -0.00094672     0.00087570     0.00027327
H         0.81497552    -0.06309650     1.98336252    -0.00062548    -0.00029990    -0.00042847
H        -0.91857644     0.14200839     1.86374569    -0.00087863     0.00153168     0.00045772
H        -1.05084440     0.04968569    -0.57939838     0.00041780    -0.00047194    -0.00041244
     6
  Step:    31            Position(A)                                  Velocity(au)
C        -0.03229350     0.02144711    -0.07858053     0.00001870     0.00004843    -0.00097596
N        -0.04189714    -0.08251586     1.38137459     0.00011943    -0.00015797     0.00084464
H         0.91422442     0.08860506    -0.63314010    -0.00094657     0.00090199     0.00030708
H         0.81130041    -0.06484824     1.98075100    -0.00067814    -0.00032650    -0.00049645
H        -0.92328087     0.15061403     1.86621448    -0.00079731     0.00154877     0.00042264
H        -1.04815480     0.04695304    -0.58149075     0.00053966    -0.00050614    -0.00034115
     6
  Step:    32            Position(A)                                  Velocity(au)
C        -0.03221655     0.02171781    -0.08403355     0.00000857     0.00004823    -0.00097347
N        -0.04124341    -0.08339380     1.38609433     0.00011291    -0.00015603     0.00084293
H         0.90897490     0.09371017    -0.63135382    -0.00092158     0.00092570     0.00032479
H         0.80740864    -0.06673965     1.97782299    -0.00070050    -0.00034920    -0.00054007
H        -0.92747294     0.15928987     1.86846155    -0.00069472     0.00155316     0.00037821
H        -1.04482280     0.04403807    -0.58320495     0.00064551    -0.00053604    -0.00027661
     6
  Step:    33            Position(A)                                  Velocity(au)
C        -0.03219769     0.02198596    -0.08945750    -0.00000201     0.00004741    -0.00096348
N        -0.04063550    -0.08425927     1.39079292     0.00010288    -0.00015318     0.00083521
H         0.90392728     0.09894822    -0.62951111    -0.00087251     0.00094759     0.00032676
H         0.80347349    -0.06875004     1.97471665    -0.00069172    -0.00036839    -0.00055892
H        -0.93104322     0.16796808     1.87044032    -0.00057509     0.00154649     0.00032681
H        -1.04094231     0.04096363    -0.58458138     0.00073356    -0.00056208    -0.00022010
     6
  Step:    34            Position(A)                                  Velocity(au)
C        -0.03223904     0.02224820    -0.09481175    -0.00001283     0.00004604    -0.00094699
N        -0.04009248    -0.08510734     1.39543754     0.00008969    -0.00014957     0.00082222
H         0.89921439     0.10431055    -0.62769849    -0.00080099     0.00096851     0.00031389
H         0.79967051    -0.07086077     1.97157055    -0.00065220    -0.00038454    -0.00055356
H        -0.93390627     0.17659003     1.87211750    -0.00044278     0.00153074     0.00027083
H        -1.03661663     0.03775022    -0.58566717     0.00080260    -0.00058481    -0.00017267
     6
  Step:    35            Position(A)                                  Velocity(au)
C        -0.03234141     0.02250147    -0.10006127    -0.00002366     0.00004417    -0.00092512
N        -0.03963126    -0.08593407     1.39999961     0.00007375    -0.00014541     0.00080483
H         0.89495834     0.10979296    -0.62599642    -0.00070936     0.00098935     0.00028755
H         0.79617059    -0.07305582     1.96851822    -0.00058346    -0.00039817    -0.00052546
H        -0.93600117     0.18510823     1.87347286    -0.00030204     0.00150807     0.00021249
H        -1.03195534     0.03441534    -0.58651487     0.00085192    -0.00060487    -0.00013510
     6
  Step:    36            Position(A)                                  Velocity(au)
C        -0.03250415     0.02274306    -0.10517726    -0.00003423     0.00004187    -0.00089896
N        -0.03926613    -0.08673660     1.40445532     0.00005556    -0.00014088     0.00078391
H         0.89126631     0.11539576    -0.62447660    -0.00060054     0.00101087     0.00024951
H         0.79313307    -0.07532204     1.96568298    -0.00048813    -0.00040983    -0.00047686
H        -0.93729050     0.19348732     1.87449832    -0.00015677     0.00148066     0.00015379
H        -1.02707119     0.03097294    -0.58718087     0.00088126    -0.00062293    -0.00010788
     6
  Step:    37            Position(A)                                  Velocity(au)
C        -0.03272510     0.02297073    -0.11013712    -0.00004429     0.00003922    -0.00086954
N        -0.03900851    -0.08751306     1.40878591     0.00003563    -0.00013614     0.00076028
H         0.88822729     0.12112315    -0.62319984    -0.00047789     0.00103371     0.00020180
H         0.79069945    -0.07764938     1.96317341    -0.00036979    -0.00042008    -0.00041066
H        -0.93775830     0.20170399     1.87519658    -0.00001042     0.00145055     0.00009645
H        -1.02207784     0.02743331    -0.58772400     0.00089066    -0.00063966    -0.00009129
     6
  Step:    38            Position(A)                                  Velocity(au)
C        -0.03300055     0.02318262    -0.11492384    -0.00005355     0.00003628    -0.00083772
N        -0.03886674    -0.08826255     1.41297723     0.00001450    -0.00013134     0.00073468
H         0.88590973     0.12698257    -0.62221461    -0.00034506     0.00105830     0.00014666
H         0.78898818    -0.08003073     1.96107993    -0.00023282    -0.00042938    -0.00033026
H        -0.93740733     0.20974635     1.87557947     0.00013401     0.00141954     0.00004193
H        -1.01708789     0.02380309    -0.58820414     0.00088042    -0.00065563    -0.00008538
     6
  Step:    39            Position(A)                                  Velocity(au)
C        -0.03332524     0.02337728    -0.11952526    -0.00006176     0.00003312    -0.00080421
N        -0.03884596    -0.08898494     1.41701928    -0.00000727    -0.00012659     0.00070770
H         0.88436032     0.13298333    -0.62155627    -0.00020588     0.00108481     0.00008638
H         0.78809026    -0.08246134     1.95947227    -0.00008227    -0.00043813    -0.00023940
H        -0.93625652     0.21761247     1.87566646     0.00027390     0.00138919    -0.00000858
H        -1.01221111     0.02008581    -0.58868078     0.00085112    -0.00067136    -0.00008996
     6
  Step:    40            Position(A)                                  Velocity(au)
C        -0.03369241     0.02355367    -0.12393315    -0.00006865     0.00002982    -0.00076955
N        -0.03894813    -0.08968074     1.42090545    -0.00002911    -0.00012200     0.00067985
H         0.88360336     0.13913535    -0.62124696    -0.00006427     0.00111315     0.00002327
H         0.78806651    -0.08493901     1.95839801     0.00007635    -0.00044669    -0.00014204
H        -0.93433885     0.22530912     1.87548336     0.00040697     0.00136083    -0.00005405
H        -1.00755306     0.01628200    -0.58921194     0.00080354    -0.00068729    -0.00010468
     6
  Step:    41            Position(A)                                  Velocity(au)
C        -0.03409396     0.02371119    -0.12814224    -0.00007400     0.00002644    -0.00073416
N        -0.03917193    -0.09035100     1.42463188    -0.00005046    -0.00011763     0.00065150
H         0.88364064     0.14544773    -0.62129571     0.00007582     0.00114303    -0.00004039
H         0.78894521    -0.08746318     1.95788178     0.00023721    -0.00045529    -0.00004222
H        -0.93169947     0.23285027     1.87506124     0.00053116     0.00133554    -0.00009362
H        -1.00321353     0.01238987    -0.58985296     0.00073878    -0.00070374    -0.00012897
     6
  Step:    42            Position(A)                                  Velocity(au)
C        -0.03452054     0.02384958    -0.13214965    -0.00007760     0.00002305    -0.00069839
N        -0.03951288    -0.09099719     1.42819684    -0.00007076    -0.00011355     0.00062296
H         0.88445193     0.15192770    -0.62169901     0.00021058     0.00117397    -0.00010245
H         0.79072132    -0.09003440     1.95792551     0.00039443    -0.00046404     0.00005612
H        -0.92839427     0.24025601     1.87443557     0.00064463     0.00131428    -0.00012656
H        -0.99928489     0.00840596    -0.59065538     0.00065830    -0.00072094    -0.00016205
     6
  Step:    43            Position(A)                                  Velocity(au)
C        -0.03496194     0.02396900    -0.13595427    -0.00007932     0.00001971    -0.00066248
N        -0.03996343    -0.09162115     1.43160025    -0.00008947    -0.00010982     0.00059447
H         0.88599614     0.15857960    -0.62244171     0.00033642     0.00120538    -0.00016094
H         0.79335719    -0.09265381     1.95850956     0.00054232    -0.00047300     0.00014930
H        -0.92448870     0.24755154     1.87364551     0.00074575     0.00129785    -0.00015227
H        -0.99584988     0.00432558    -0.59166567     0.00056400    -0.00073903    -0.00020291
     6
  Step:    44            Position(A)                                  Velocity(au)
C        -0.03540732     0.02406994    -0.13955646    -0.00007908     0.00001649    -0.00062668
N        -0.04051323    -0.09222501     1.43484326    -0.00010613    -0.00010649     0.00056620
H         0.88821318     0.16540434    -0.62349837     0.00045011     0.00123658    -0.00021413
H         0.79678468    -0.09532267     1.95959472     0.00067572    -0.00048214     0.00023404
H        -0.92005647     0.25476649     1.87273315     0.00083311     0.00128698    -0.00017025
H        -0.99297918     0.00014337    -0.59292396     0.00045822    -0.00075808    -0.00025030
     6