 Fermi distribution function

Calculation with static geometry


********************************************************************************
 iSCC Total electronic   Diff electronic      SCC error    
   13   -0.53311586E+01   -0.14344081E-10    0.29267810E-06
********************************************************************************

 Total charge:     1.00000000

 Atomic gross charges (e)
 Atom           Charge
    1       0.33248935
    2      -0.23453718
    3       0.16354183
    4       0.27297823
    5       0.29318032
    6       0.17234745

Nr. of electrons (up):     12.00000000
Atom populations (up)
 Atom       Population
    1       3.66751065
    2       5.23453718
    3       0.83645817
    4       0.72702177
    5       0.70681968
    6       0.82765255

l-shell populations (up)
 Atom Sh.   l       Population
    1   1   0       1.35957347
    1   2   1       2.30793718
    2   1   0       1.45815574
    2   2   1       3.77638145
    3   1   0       0.83645817
    4   1   0       0.72702177
    5   1   0       0.70681968
    6   1   0       0.82765255

Orbital populations (up)
 Atom Sh.   l   m       Population  Label
    1   1   0   0       1.35957347  s
    1   2   1  -1       0.48406901  p_y
    1   2   1   0       0.87578312  p_z
    1   2   1   1       0.94808505  p_x
    2   1   0   0       1.45815574  s
    2   2   1  -1       1.36360231  p_y
    2   2   1   0       1.04589084  p_z
    2   2   1   1       1.36688830  p_x
    3   1   0   0       0.83645817  s
    4   1   0   0       0.72702177  s
    5   1   0   0       0.70681968  s
    6   1   0   0       0.82765255  s

Fermi level:                        -0.4934602526 H          -13.4277 eV
Band energy:                        -8.7086125876 H         -236.9734 eV
TS:                                  0.0000000000 H            0.0000 eV
Band free energy (E-TS):            -8.7086125876 H         -236.9734 eV
Extrapolated E(0K):                 -8.7086125876 H         -236.9734 eV
Input / Output electrons (q):     12.0000000000     12.0000000000

Energy H0:                          -5.4636158419 H         -148.6726 eV
Energy SCC:                          0.1324572623 H            3.6043 eV
Total Electronic energy:            -5.3311585796 H         -145.0682 eV
Repulsive energy:                    0.1548964739 H            4.2149 eV
Total energy:                       -5.1762621057 H         -140.8533 eV
Extrapolated to 0:                  -5.1762621057 H         -140.8533 eV
Total Mermin free energy:           -5.1762621057 H         -140.8533 eV
Force related energy:               -5.1762621057 H         -140.8533 eV

SCC converged

Excitation Energy:                   0.0940109537 H            2.5582 eV

Total Forces
    1     -0.003759460112     -0.010773965597      0.084937774588
    2     -0.000570723510      0.006049829476     -0.084618155353
    3     -0.008012609442      0.016654256442      0.001314763005
    4     -0.014351106360     -0.012335850732     -0.004685962293
    5      0.014964170072      0.013045515104     -0.001675424301
    6      0.011729729352     -0.012639784694      0.004727004354

Maximal derivative component:        0.849378E-01 au


