|===============================================================================
|
|  DFTB+ release 20.1
|
|  Copyright (C) 2006 - 2020  DFTB+ developers group
|
|===============================================================================
|
|  When publishing results obtained with DFTB+, please cite the following
|  reference:
|
|  * DFTB+, a software package for efficient approximate density functional
|    theory based atomistic simulations, J. Chem. Phys. 152, 124101 (2020).
|    [doi: 10.1063/1.5143190]
|
|  You should also cite additional publications crediting the parametrization
|  data you use. Please consult the documentation of the SK-files for the
|  references.
|
|===============================================================================

Reading input file 'dftb_in.hsd'
Parser version: 8

--------------------------------------------------------------------------------
Reading SK-files:
Done.


Processed input in HSD format written to 'dftb_pin.hsd'

Starting initialization...
--------------------------------------------------------------------------------
OpenMP threads:              1
Chosen random seed:          501661106
Mode:                        Static calculation
Self consistent charges:     Yes
SCC-tolerance:                 0.100000E-05
Max. scc iterations:                   1000
Shell resolved Hubbard:      No
Spin polarisation:           No
Nr. of up electrons:            16.000000
Nr. of down electrons:          16.000000
Periodic boundaries:         No
Electronic solver:           Relatively robust
Maximal SCC-cycles:                    1000
Initial charges:             Set automatically (system chrg:   0.100E+01)
Included shells:             C:  s, p
                             H:  s
                             N:  s, p
Spin coupling constants:     C   1(s)-1(s):  -0.455900E-01
                             C   1(s)-2(p):  -0.293000E-01
                             C   2(p)-1(s):  -0.293000E-01
                             C   2(p)-2(p):  -0.275500E-01
                             H   1(s)-1(s):  -0.792500E-01
                             N   1(s)-1(s):  -0.468700E-01
                             N   1(s)-2(p):  -0.317000E-01
                             N   2(p)-1(s):  -0.317000E-01
                             N   2(p)-2(p):  -0.307200E-01
Range separated hybrid:      Yes
  Screening parameter omega:   0.300000E+00
  Range separated algorithm:   MatrixBased
Extra options:
                             Mulliken analysis
                             Force calculation
Force type                   original
                             Eigenvector printing


REKS Calcuation:             Yes
SSR(2,2) Calcuation:         Yes
Energy Functional:           (PPS+OSS)/2
Number of Core Orbitals:                 15
Number of Active Orbitals:                2
Number of Basis:                         32
Number of States:                         2
State-Averaging Weight:          0.500000
                                 0.500000
State of Interest:                        1
Initial Guess:               Diagonalize H0 matrix
Newton-Raphson for FON opt:  Yes
NR max. Iterations:                      50
Level Shifting:              Yes
Shift Value:                     0.300000
W Scale Factor:              C  =    3.200000
                             H  =    3.200000
                             N  =    3.200000
Transition Dipole:           No
Gradient of Microstate:      No
CP-REKS Solver:              Preconditioned Conjugate-Gradient
CG max. Iterations:                     100
CG Tolerance:                  0.100000E-07
Memory for A and Hxc:        Direct Updating Without Saving
Non-Adiabatic Coupling:      Yes

--------------------------------------------------------------------------------

***  Geometry step: 0

  iSCC       reks energy        Diff energy         x_a       SCC error   
    1      -16.3773611040       0.0000000000     0.998793    1.17711197
    2      -16.3927993363      -0.0154382323     0.999811    0.03976232
    3      -16.3960628581      -0.0032635217     0.999928    0.01386421
    4      -16.3971569339      -0.0010940758     0.999959    0.00909581
    5      -16.3976445943      -0.0004876604     0.999972    0.00599073
    6      -16.3979017782      -0.0002571839     0.999979    0.00417086
    7      -16.3980525933      -0.0001508151     0.999983    0.00342523
    8      -16.3981483527      -0.0000957594     0.999986    0.00276367
    9      -16.3982135804      -0.0000652277     0.999987    0.00221519
   10      -16.3982610066      -0.0000474261     0.999989    0.00177582
   11      -16.3982975591      -0.0000365525     0.999990    0.00143021
   12      -16.3983271312      -0.0000295721     0.999991    0.00116090
   13      -16.3983519735      -0.0000248424     0.999991    0.00095183
   14      -16.3983734276      -0.0000214541     0.999992    0.00085479
   15      -16.3983923216      -0.0000188939     0.999992    0.00079878
   16      -16.3984091882      -0.0000168666     0.999993    0.00080053
   17      -16.3984243863      -0.0000151981     0.999993    0.00079345
   18      -16.3984381696      -0.0000137833     0.999994    0.00078022
   19      -16.3984507260      -0.0000125564     0.999994    0.00076283
   20      -16.3984622011      -0.0000114751     0.999994    0.00074268
   21      -16.3984727121      -0.0000105109     0.999994    0.00072082
   22      -16.3984823558      -0.0000096438     0.999995    0.00069796
   23      -16.3984912149      -0.0000088591     0.999995    0.00067465
   24      -16.3984993609      -0.0000081459     0.999995    0.00065124
   25      -16.3985068564      -0.0000074956     0.999995    0.00062801
   26      -16.3985137575      -0.0000069010     0.999995    0.00060514
   27      -16.3985201140      -0.0000063565     0.999996    0.00058274
   28      -16.3985259710      -0.0000058570     0.999996    0.00056092
   29      -16.3985313693      -0.0000053983     0.999996    0.00053972
   30      -16.3985363460      -0.0000049767     0.999996    0.00051916
   31      -16.3985409350      -0.0000045890     0.999996    0.00049928
   32      -16.3985451671      -0.0000042321     0.999996    0.00048007
   33      -16.3985490707      -0.0000039036     0.999996    0.00046153
   34      -16.3985526717      -0.0000036010     0.999996    0.00044366
   35      -16.3985559938      -0.0000033222     0.999997    0.00042644
   36      -16.3985590590      -0.0000030652     0.999997    0.00040985
   37      -16.3985618873      -0.0000028283     0.999997    0.00039388
   38      -16.3985644973      -0.0000026099     0.999997    0.00037851
   39      -16.3985669058      -0.0000024085     0.999997    0.00036373
   40      -16.3985691286      -0.0000022228     0.999997    0.00034951
   41      -16.3985711801      -0.0000020515     0.999997    0.00033583
   42      -16.3985730735      -0.0000018934     0.999997    0.00032268
   43      -16.3985748211      -0.0000017476     0.999997    0.00031004
   44      -16.3985764342      -0.0000016131     0.999997    0.00029789
   45      -16.3985779232      -0.0000014890     0.999997    0.00028620
   46      -16.3985792977      -0.0000013744     0.999997    0.00027498
   47      -16.3985805664      -0.0000012687     0.999997    0.00026419
   48      -16.3985817376      -0.0000011712     0.999997    0.00025381
   49      -16.3985828187      -0.0000010811     0.999997    0.00024385
   50      -16.3985838168      -0.0000009980     0.999997    0.00023427
   51      -16.3985847381      -0.0000009214     0.999998    0.00022507
   52      -16.3985855887      -0.0000008506     0.999998    0.00021623
   53      -16.3985863739      -0.0000007852     0.999998    0.00020774
   54      -16.3985870988      -0.0000007249     0.999998    0.00019957
   55      -16.3985877680      -0.0000006692     0.999998    0.00019173
   56      -16.3985883858      -0.0000006178     0.999998    0.00018420
   57      -16.3985889561      -0.0000005704     0.999998    0.00017696
   58      -16.3985894827      -0.0000005266     0.999998    0.00017000
   59      -16.3985899688      -0.0000004861     0.999998    0.00016332
   60      -16.3985904176      -0.0000004488     0.999998    0.00015690
   61      -16.3985908319      -0.0000004143     0.999998    0.00015074
   62      -16.3985912144      -0.0000003825     0.999998    0.00014481
   63      -16.3985915675      -0.0000003531     0.999998    0.00013912
   64      -16.3985918935      -0.0000003260     0.999998    0.00013365
   65      -16.3985921945      -0.0000003010     0.999998    0.00012840
   66      -16.3985924724      -0.0000002779     0.999998    0.00012335
   67      -16.3985927289      -0.0000002565     0.999998    0.00011851
   68      -16.3985929657      -0.0000002368     0.999998    0.00011385
   69      -16.3985931844      -0.0000002186     0.999998    0.00010937
   70      -16.3985933862      -0.0000002018     0.999998    0.00010508
   71      -16.3985935725      -0.0000001863     0.999998    0.00010095
   72      -16.3985937446      -0.0000001720     0.999998    0.00009698
   73      -16.3985939034      -0.0000001588     0.999998    0.00009317
   74      -16.3985940500      -0.0000001466     0.999998    0.00008951
   75      -16.3985941854      -0.0000001354     0.999998    0.00008599
   76      -16.3985943103      -0.0000001250     0.999998    0.00008261
   77      -16.3985944257      -0.0000001154     0.999998    0.00007937
   78      -16.3985945322      -0.0000001065     0.999998    0.00007625
   79      -16.3985946305      -0.0000000983     0.999998    0.00007325
   80      -16.3985947213      -0.0000000908     0.999998    0.00007038
   81      -16.3985948051      -0.0000000838     0.999998    0.00006761
   82      -16.3985948824      -0.0000000774     0.999998    0.00006496
   83      -16.3985949538      -0.0000000714     0.999998    0.00006240
   84      -16.3985950198      -0.0000000659     0.999998    0.00005995
   85      -16.3985950806      -0.0000000609     0.999998    0.00005760
   86      -16.3985951368      -0.0000000562     0.999998    0.00005534
   87      -16.3985951887      -0.0000000519     0.999998    0.00005316
   88      -16.3985952366      -0.0000000479     0.999998    0.00005108
   89      -16.3985952808      -0.0000000442     0.999998    0.00004907
   90      -16.3985953216      -0.0000000408     0.999998    0.00004714
   91      -16.3985953592      -0.0000000377     0.999998    0.00004529
   92      -16.3985953940      -0.0000000348     0.999998    0.00004351
   93      -16.3985954261      -0.0000000321     0.999998    0.00004180
   94      -16.3985954557      -0.0000000296     0.999998    0.00004016
   95      -16.3985954831      -0.0000000274     0.999998    0.00003859
   96      -16.3985955083      -0.0000000253     0.999998    0.00003707
   97      -16.3985955317      -0.0000000233     0.999998    0.00003562
   98      -16.3985955532      -0.0000000215     0.999998    0.00003422
   99      -16.3985955730      -0.0000000199     0.999998    0.00003287
  100      -16.3985955914      -0.0000000183     0.999998    0.00003158
  101      -16.3985956083      -0.0000000169     0.999998    0.00003034
  102      -16.3985956239      -0.0000000156     0.999998    0.00002915
  103      -16.3985956384      -0.0000000144     0.999998    0.00002801
  104      -16.3985956517      -0.0000000133     0.999998    0.00002691
  105      -16.3985956640      -0.0000000123     0.999998    0.00002585
  106      -16.3985956753      -0.0000000113     0.999998    0.00002484
  107      -16.3985956858      -0.0000000105     0.999998    0.00002386
  108      -16.3985956955      -0.0000000097     0.999998    0.00002293
  109      -16.3985957044      -0.0000000089     0.999998    0.00002203
  110      -16.3985957126      -0.0000000082     0.999998    0.00002116
  111      -16.3985957202      -0.0000000076     0.999998    0.00002033
  112      -16.3985957273      -0.0000000070     0.999998    0.00001953
  113      -16.3985957337      -0.0000000065     0.999998    0.00001877
  114      -16.3985957397      -0.0000000060     0.999998    0.00001803
  115      -16.3985957453      -0.0000000055     0.999998    0.00001732
  116      -16.3985957504      -0.0000000051     0.999998    0.00001664
  117      -16.3985957551      -0.0000000047     0.999998    0.00001599
  118      -16.3985957594      -0.0000000043     0.999998    0.00001536
  119      -16.3985957634      -0.0000000040     0.999998    0.00001476
  120      -16.3985957671      -0.0000000037     0.999998    0.00001418
  121      -16.3985957705      -0.0000000034     0.999998    0.00001362
  122      -16.3985957737      -0.0000000032     0.999998    0.00001309
  123      -16.3985957766      -0.0000000029     0.999998    0.00001257
  124      -16.3985957793      -0.0000000027     0.999998    0.00001208
  125      -16.3985957818      -0.0000000025     0.999998    0.00001161
  126      -16.3985957841      -0.0000000023     0.999998    0.00001115
  127      -16.3985957862      -0.0000000021     0.999998    0.00001071
  128      -16.3985957881      -0.0000000020     0.999998    0.00001029
  129      -16.3985957899      -0.0000000018     0.999998    0.00000989
  130      -16.3985957916      -0.0000000017     0.999998    0.00000950
  131      -16.3985957931      -0.0000000015     0.999998    0.00000913
  132      -16.3985957945      -0.0000000014     0.999998    0.00000877
  133      -16.3985957958      -0.0000000013     0.999998    0.00000843
  134      -16.3985957971      -0.0000000012     0.999998    0.00000810
  135      -16.3985957982      -0.0000000011     0.999998    0.00000778
  136      -16.3985957992      -0.0000000010     0.999998    0.00000747
  137      -16.3985958002      -0.0000000009     0.999998    0.00000718
  138      -16.3985958010      -0.0000000009     0.999998    0.00000690
  139      -16.3985958018      -0.0000000008     0.999998    0.00000663
  140      -16.3985958026      -0.0000000007     0.999998    0.00000637
  141      -16.3985958033      -0.0000000007     0.999998    0.00000612
  142      -16.3985958039      -0.0000000006     0.999998    0.00000588
  143      -16.3985958045      -0.0000000006     0.999998    0.00000565
  144      -16.3985958050      -0.0000000005     0.999998    0.00000542
  145      -16.3985958055      -0.0000000005     0.999998    0.00000521
  146      -16.3985958060      -0.0000000005     0.999998    0.00000501
  147      -16.3985958064      -0.0000000004     0.999998    0.00000481
  148      -16.3985958068      -0.0000000004     0.999998    0.00000462
  149      -16.3985958072      -0.0000000004     0.999998    0.00000444
  150      -16.3985958075      -0.0000000003     0.999998    0.00000427
  151      -16.3985958078      -0.0000000003     0.999998    0.00000410
  152      -16.3985958081      -0.0000000003     0.999998    0.00000394
  153      -16.3985958084      -0.0000000003     0.999998    0.00000378
  154      -16.3985958086      -0.0000000002     0.999998    0.00000364
  155      -16.3985958089      -0.0000000002     0.999998    0.00000349
  156      -16.3985958091      -0.0000000002     0.999998    0.00000336
  157      -16.3985958092      -0.0000000002     0.999998    0.00000322
  158      -16.3985958094      -0.0000000002     0.999998    0.00000310
  159      -16.3985958096      -0.0000000002     0.999998    0.00000298
  160      -16.3985958097      -0.0000000002     0.999998    0.00000286
  161      -16.3985958099      -0.0000000001     0.999998    0.00000275
  162      -16.3985958100      -0.0000000001     0.999998    0.00000264
  163      -16.3985958101      -0.0000000001     0.999998    0.00000254
  164      -16.3985958102      -0.0000000001     0.999998    0.00000244
  165      -16.3985958103      -0.0000000001     0.999998    0.00000234
  166      -16.3985958104      -0.0000000001     0.999998    0.00000225
  167      -16.3985958105      -0.0000000001     0.999998    0.00000216
  168      -16.3985958106      -0.0000000001     0.999998    0.00000208
  169      -16.3985958107      -0.0000000001     0.999998    0.00000199
  170      -16.3985958107      -0.0000000001     0.999998    0.00000192
  171      -16.3985958108      -0.0000000001     0.999998    0.00000184
  172      -16.3985958109      -0.0000000001     0.999998    0.00000177
  173      -16.3985958109      -0.0000000001     0.999998    0.00000170
  174      -16.3985958110      -0.0000000000     0.999998    0.00000163
  175      -16.3985958110      -0.0000000000     0.999998    0.00000157
  176      -16.3985958110      -0.0000000000     0.999998    0.00000151
  177      -16.3985958111      -0.0000000000     0.999998    0.00000145
  178      -16.3985958111      -0.0000000000     0.999998    0.00000139
  179      -16.3985958112      -0.0000000000     0.999998    0.00000134
  180      -16.3985958112      -0.0000000000     0.999998    0.00000128
  181      -16.3985958112      -0.0000000000     0.999998    0.00000123
  182      -16.3985958112      -0.0000000000     0.999998    0.00000119
  183      -16.3985958113      -0.0000000000     0.999998    0.00000114
  184      -16.3985958113      -0.0000000000     0.999998    0.00000109
  185      -16.3985958113      -0.0000000000     0.999998    0.00000105
  186      -16.3985958113      -0.0000000000     0.999998    0.00000101
  187      -16.3985958113      -0.0000000000     0.999998    0.00000097
  
--------------------------------------------------
 Final SA-REKS(2,2) energy:     -16.39859581
  
 State     Energy      FON(1)    FON(2)   Spin
  PPS  -16.46669534   1.999997  0.000003  0.00
  OSS  -16.33049628   1.000000  1.000000  0.00
 Trip  -16.36428624   1.000000  1.000000  1.00
--------------------------------------------------

 Lagrangian Wab:   0.00137423  0.00137364

--------------------------------------------------
 SSR: 2SI-2SA-REKS(2,2) Hamiltonian matrix
               PPS           OSS
   PPS   -16.46669534    0.00194092
   OSS     0.00194092  -16.33049628
--------------------------------------------------

----------------------------------------------------------------
 SSR: 2SI-2SA-REKS(2,2) states
                    E_n       C_{PPS}    C_{OSS}
 SSR state  1  -16.46672299  -0.999899   0.014246
 SSR state  2  -16.33046863  -0.014246  -0.999899
----------------------------------------------------------------

 unrelaxed SSR FONs for S0:  1.999794  0.000206

Total Energy:                      -16.4667229935 H         -448.0823 eV
Extrapolated to 0:                 -16.4667229935 H         -448.0823 eV

----------------------------------------------------------------------------------
 Solving CP-REKS equation for  1 state vector...
----------------------------------------------------------------------------------
  CG solver: Constructing Y initial guess
  CG solver: Iteration    1    eps =    0.000099481597
  CG solver: Iteration    2    eps =    0.000005456153
  CG solver: Iteration    3    eps =    0.000006917867
  CG solver: Iteration    4    eps =    0.000001240828
  CG solver: Iteration    5    eps =    0.000000471988
  CG solver: Iteration    6    eps =    0.000000424213
  CG solver: Iteration    7    eps =    0.000000129427
  CG solver: Iteration    8    eps =    0.000000173655
  CG solver: Iteration    9    eps =    0.000000042951
  CG solver: Iteration   10    eps =    0.000000011427
  CG solver: Iteration   11    eps =    0.000000003861
  Convergence reached in CG solver after   11 iterations
  CG solver: Calculating converged R, Z, Q2 matrix
----------------------------------------------------------------------------------

----------------------------------------------------------------------------------
 Solving CP-REKS equation for SI between  1 and  2 state vectors...
----------------------------------------------------------------------------------
  CG solver: Constructing Y initial guess
  CG solver: Iteration    1    eps =    0.052072387280
  CG solver: Iteration    2    eps =    0.005278786331
  CG solver: Iteration    3    eps =    0.006445471991
  CG solver: Iteration    4    eps =    0.009312892878
  CG solver: Iteration    5    eps =    0.001206611519
  CG solver: Iteration    6    eps =    0.000476891606
  CG solver: Iteration    7    eps =    0.000024484555
  CG solver: Iteration    8    eps =    0.000002085315
  CG solver: Iteration    9    eps =    0.000000869103
  CG solver: Iteration   10    eps =    0.000000176656
  CG solver: Iteration   11    eps =    0.000000059884
  CG solver: Iteration   12    eps =    0.000000015664
  CG solver: Iteration   13    eps =    0.000000001036
  Convergence reached in CG solver after   13 iterations
  CG solver: Calculating converged R, Z, Q2 matrix
----------------------------------------------------------------------------------

--------------------------------------------------
 Gradient Information
--------------------------------------------------
           1 st state (SSR)
     0.04845540     0.02118684    -0.03969788
     0.01580867    -0.02836022     0.10039930
    -0.00232036    -0.02688057    -0.00226582
     0.00360402     0.01172687    -0.03066803
     0.00664832    -0.01155219    -0.00021162
    -0.06676890     0.07593035    -0.08216949
     0.02793508     0.02733205     0.02192070
     0.01166263    -0.02382683     0.01850833
    -0.00806267     0.01248666    -0.00635721
    -0.05283001    -0.08764151     0.02653492
    -0.02328461     0.00396677    -0.00556827
    -0.00715902    -0.03127174    -0.01805892
     0.02223158    -0.00614157     0.03461234
     0.02407988     0.06304510    -0.01697834

           2 st state (SSR)
     0.06493896     0.00466581    -0.08508082
    -0.02123294     0.00117845     0.14624636
    -0.01024304    -0.02974746    -0.00591530
     0.01187150     0.01083244    -0.02869275
     0.00353930    -0.00876904    -0.00283701
     0.00996345     0.07483368    -0.05577115
    -0.03121068     0.02173101    -0.02032561
     0.00222618    -0.01597016     0.02013207
    -0.00696962     0.01346306    -0.00583133
     0.00968668    -0.09089542     0.06238316
    -0.01475874     0.00653618    -0.00889164
    -0.06915082    -0.04437795    -0.03358200
     0.02766483    -0.01103871     0.03130910
     0.02367493     0.06755812    -0.01314308
--------------------------------------------------
 Coupling Information
--------------------------------------------------
 between  1 and  2 states
--------------------------------------------------
 g vector - difference gradient
    -0.00760650     0.00716546     0.02017825
     0.01683127    -0.01313314    -0.02096800
     0.00384498     0.00142975     0.00168589
    -0.00402880     0.00047014    -0.00103879
     0.00106841    -0.00122204     0.00107617
    -0.04007675    -0.00207483    -0.01302044
     0.03115160     0.00473364     0.02204070
     0.00495425    -0.00412957    -0.00092869
    -0.00073016    -0.00017367     0.00014294
    -0.02966467     0.00094090    -0.01821928
    -0.00407883    -0.00114344     0.00152731
     0.03071459     0.00690507     0.00765357
    -0.00278385     0.00252466     0.00187267
     0.00040446    -0.00229292    -0.00200231

 h vector - derivative coupling
     0.02240693    -0.03853907    -0.08850239
    -0.05954319     0.05761821     0.06893867
    -0.00413888    -0.00014996    -0.00489781
     0.00374077     0.00079772    -0.00178044
    -0.01707766     0.00596815    -0.00831757
    -0.05947071    -0.09204457     0.00645913
     0.05496981     0.06778565     0.03189240
     0.00821398    -0.00700464    -0.00408708
    -0.00643525     0.01104262     0.01424462
     0.05636146    -0.02409413    -0.01010082
     0.00652035     0.00497485    -0.00473838
    -0.01031166     0.01225598    -0.00389878
    -0.00231997     0.00263469     0.00773218
     0.00708400    -0.00124548    -0.00294374

 G vector - GDV
    -0.00824178     0.00826052     0.02269147
     0.01852081    -0.01476934    -0.02292353
     0.00396134     0.00143344     0.00182474
    -0.00413374     0.00044722    -0.00098764
     0.00155451    -0.00139157     0.00131269
    -0.03836618     0.00054834    -0.01319917
     0.02957288     0.00280052     0.02112315
     0.00471823    -0.00392834    -0.00081187
    -0.00054653    -0.00048820    -0.00026294
    -0.03125835     0.00162695    -0.01792412
    -0.00426293    -0.00128470     0.00166168
     0.03099590     0.00655310     0.00776154
    -0.00271663     0.00244857     0.00165162
     0.00020248    -0.00225651    -0.00191763

 H vector - DCV - non-adiabatic coupling
     0.16279207    -0.28123346    -0.64505525
    -0.43330358     0.41995473     0.50136608
    -0.02955982    -0.00080123    -0.03557899
     0.02660077     0.00595054    -0.01327889
    -0.12506233     0.04352821    -0.06079466
    -0.44467088    -0.67569447     0.04466324
     0.40978501     0.49828124     0.23857869
     0.06129558    -0.05225118    -0.03017797
    -0.04736317     0.08097498     0.10453176
     0.40727831    -0.17656347    -0.07791151
     0.04698200     0.03625756    -0.03444251
    -0.06922656     0.09135653    -0.02700204
    -0.01760190     0.01985656     0.05711667
     0.05205449    -0.00961655    -0.02201461
--------------------------------------------------


--------------------------------------------------------------------------------
DFTB+ running times                          cpu [s]             wall clock [s]
--------------------------------------------------------------------------------
SCC                                    +     0.22  ( 42.3%)      0.22  ( 42.2%)
      Sparse to dense                        0.01  (  2.0%)      0.01  (  1.7%)
      Dense to sparse                        0.04  (  7.1%)      0.03  (  5.9%)
      Range separated Hamiltonian            0.02  (  3.3%)      0.01  (  2.7%)
  Density matrix creation                    0.02  (  4.2%)      0.03  (  4.7%)
Post-SCC processing                    +     0.30  ( 57.1%)      0.30  ( 57.0%)
  Force calculation                          0.30  ( 57.0%)      0.30  ( 56.8%)
--------------------------------------------------------------------------------
Missing                                +     0.00  (  0.7%)      0.00  (  0.8%)
Total                                  =     0.52  (100.0%)      0.53  (100.0%)
--------------------------------------------------------------------------------
