|===============================================================================
|
|  DFTB+ release 20.1
|
|  Copyright (C) 2006 - 2020  DFTB+ developers group
|
|===============================================================================
|
|  When publishing results obtained with DFTB+, please cite the following
|  reference:
|
|  * DFTB+, a software package for efficient approximate density functional
|    theory based atomistic simulations, J. Chem. Phys. 152, 124101 (2020).
|    [doi: 10.1063/1.5143190]
|
|  You should also cite additional publications crediting the parametrization
|  data you use. Please consult the documentation of the SK-files for the
|  references.
|
|===============================================================================

Reading input file 'dftb_in.hsd'
Parser version: 8

--------------------------------------------------------------------------------
Reading SK-files:
Done.


Processed input in HSD format written to 'dftb_pin.hsd'

Starting initialization...
--------------------------------------------------------------------------------
OpenMP threads:              1
Chosen random seed:          497903166
Mode:                        Static calculation
Self consistent charges:     Yes
SCC-tolerance:                 0.100000E-05
Max. scc iterations:                   1000
Shell resolved Hubbard:      No
Spin polarisation:           No
Nr. of up electrons:            16.000000
Nr. of down electrons:          16.000000
Periodic boundaries:         No
Electronic solver:           Relatively robust
Maximal SCC-cycles:                    1000
Initial charges:             Set automatically (system chrg:   0.100E+01)
Included shells:             C:  s, p
                             H:  s
                             N:  s, p
Spin coupling constants:     C   1(s)-1(s):  -0.455900E-01
                             C   1(s)-2(p):  -0.293000E-01
                             C   2(p)-1(s):  -0.293000E-01
                             C   2(p)-2(p):  -0.275500E-01
                             H   1(s)-1(s):  -0.792500E-01
                             N   1(s)-1(s):  -0.468700E-01
                             N   1(s)-2(p):  -0.317000E-01
                             N   2(p)-1(s):  -0.317000E-01
                             N   2(p)-2(p):  -0.307200E-01
Range separated hybrid:      Yes
  Screening parameter omega:   0.300000E+00
  Range separated algorithm:   MatrixBased
Extra options:
                             Mulliken analysis
                             Force calculation
Force type                   original
                             Eigenvector printing


REKS Calcuation:             Yes
SSR(2,2) Calcuation:         Yes
Energy Functional:           (PPS+OSS)/2
Number of Core Orbitals:                 15
Number of Active Orbitals:                2
Number of Basis:                         32
Number of States:                         2
State-Averaging Weight:          0.500000
                                 0.500000
State of Interest:                        1
Initial Guess:               Diagonalize H0 matrix
Newton-Raphson for FON opt:  Yes
NR max. Iterations:                      50
Level Shifting:              Yes
Shift Value:                     0.300000
W Scale Factor:              C  =    3.200000
                             H  =    3.200000
                             N  =    3.200000
Transition Dipole:           No
Gradient of Microstate:      No
CP-REKS Solver:              Preconditioned Conjugate-Gradient
CG max. Iterations:                     100
CG Tolerance:                  0.100000E-07
Memory for A and Hxc:        Direct Updating Without Saving
Non-Adiabatic Coupling:      Yes

--------------------------------------------------------------------------------

***  Geometry step: 0

  iSCC       reks energy        Diff energy         x_a       SCC error   
    1      -16.3949065215       0.0000000000     0.999311    1.15532308
    2      -16.4131220662      -0.0182155447     0.999936    0.04188340
    3      -16.4171166596      -0.0039945934     0.999982    0.01793750
    4      -16.4184209388      -0.0013042792     0.999992    0.01001427
    5      -16.4189631603      -0.0005422215     0.999995    0.00624726
    6      -16.4192197653      -0.0002566050     0.999997    0.00443493
    7      -16.4193523492      -0.0001325840     0.999997    0.00322415
    8      -16.4194261242      -0.0000737750     0.999998    0.00237747
    9      -16.4194701289      -0.0000440048     0.999998    0.00177459
   10      -16.4194981616      -0.0000280327     0.999998    0.00134203
   11      -16.4195171252      -0.0000189636     0.999998    0.00103023
   12      -16.4195306420      -0.0000135168     0.999998    0.00080452
   13      -16.4195407060      -0.0000100640     0.999999    0.00064039
   14      -16.4195484698      -0.0000077638     0.999999    0.00052043
   15      -16.4195546332      -0.0000061634     0.999999    0.00043635
   16      -16.4195596413      -0.0000050081     0.999999    0.00040908
   17      -16.4195637900      -0.0000041487     0.999999    0.00038453
   18      -16.4195672835      -0.0000034935     0.999999    0.00036021
   19      -16.4195702678      -0.0000029843     0.999999    0.00033687
   20      -16.4195728498      -0.0000025820     0.999999    0.00031489
   21      -16.4195751099      -0.0000022601     0.999999    0.00029553
   22      -16.4195771095      -0.0000019996     0.999999    0.00028510
   23      -16.4195788963      -0.0000017868     0.999999    0.00027468
   24      -16.4195805079      -0.0000016116     0.999999    0.00026445
   25      -16.4195819740      -0.0000014661     0.999999    0.00025457
   26      -16.4195833184      -0.0000013445     0.999999    0.00024510
   27      -16.4195845605      -0.0000012421     0.999999    0.00023611
   28      -16.4195857158      -0.0000011553     0.999999    0.00022760
   29      -16.4195867971      -0.0000010813     0.999999    0.00021959
   30      -16.4195878149      -0.0000010178     0.999999    0.00021207
   31      -16.4195887778      -0.0000009629     0.999999    0.00020502
   32      -16.4195896929      -0.0000009151     0.999999    0.00019843
   33      -16.4195905662      -0.0000008732     0.999999    0.00019227
   34      -16.4195914025      -0.0000008363     0.999999    0.00018651
   35      -16.4195922060      -0.0000008036     0.999999    0.00018113
   36      -16.4195929803      -0.0000007743     0.999999    0.00017622
   37      -16.4195937282      -0.0000007479     0.999999    0.00017279
   38      -16.4195944521      -0.0000007240     0.999999    0.00016955
   39      -16.4195951543      -0.0000007022     0.999999    0.00016650
   40      -16.4195958365      -0.0000006822     0.999999    0.00016361
   41      -16.4195965003      -0.0000006637     0.999999    0.00016087
   42      -16.4195971469      -0.0000006466     0.999999    0.00015828
   43      -16.4195977776      -0.0000006307     0.999999    0.00015581
   44      -16.4195983933      -0.0000006157     0.999999    0.00015346
   45      -16.4195989949      -0.0000006016     0.999999    0.00015121
   46      -16.4195995831      -0.0000005883     0.999999    0.00014907
   47      -16.4196001588      -0.0000005756     0.999999    0.00014702
   48      -16.4196007224      -0.0000005636     0.999999    0.00014506
   49      -16.4196012745      -0.0000005521     0.999999    0.00014317
   50      -16.4196018156      -0.0000005411     0.999999    0.00014136
   51      -16.4196023462      -0.0000005306     0.999999    0.00013962
   52      -16.4196028666      -0.0000005204     0.999999    0.00013794
   53      -16.4196033772      -0.0000005106     0.999999    0.00013633
   54      -16.4196038784      -0.0000005012     0.999999    0.00013476
   55      -16.4196043704      -0.0000004920     0.999999    0.00013325
   56      -16.4196048536      -0.0000004832     0.999999    0.00013179
   57      -16.4196053283      -0.0000004746     0.999999    0.00013037
   58      -16.4196057946      -0.0000004663     0.999999    0.00012900
   59      -16.4196062529      -0.0000004583     0.999999    0.00012766
   60      -16.4196067033      -0.0000004504     0.999999    0.00012637
   61      -16.4196071462      -0.0000004428     0.999999    0.00012511
   62      -16.4196075816      -0.0000004354     0.999999    0.00012388
   63      -16.4196080098      -0.0000004282     0.999999    0.00012269
   64      -16.4196084310      -0.0000004212     0.999999    0.00012152
   65      -16.4196088453      -0.0000004143     0.999999    0.00012039
   66      -16.4196092530      -0.0000004077     0.999999    0.00011928
   67      -16.4196096541      -0.0000004012     0.999999    0.00011820
   68      -16.4196100489      -0.0000003948     0.999999    0.00011714
   69      -16.4196104375      -0.0000003886     0.999999    0.00011611
   70      -16.4196108201      -0.0000003826     0.999999    0.00011510
   71      -16.4196111968      -0.0000003767     0.999999    0.00011411
   72      -16.4196115677      -0.0000003709     0.999999    0.00011314
   73      -16.4196119330      -0.0000003653     0.999999    0.00011219
   74      -16.4196122928      -0.0000003598     0.999999    0.00011126
   75      -16.4196126472      -0.0000003544     0.999999    0.00011034
   76      -16.4196129963      -0.0000003492     0.999999    0.00010945
   77      -16.4196133404      -0.0000003440     0.999999    0.00010857
   78      -16.4196136794      -0.0000003390     0.999999    0.00010771
   79      -16.4196140135      -0.0000003341     0.999999    0.00010686
   80      -16.4196143429      -0.0000003293     0.999999    0.00010603
   81      -16.4196146675      -0.0000003246     0.999999    0.00010522
   82      -16.4196149876      -0.0000003201     0.999999    0.00010441
   83      -16.4196153031      -0.0000003156     0.999999    0.00010363
   84      -16.4196156143      -0.0000003112     0.999999    0.00010285
   85      -16.4196159212      -0.0000003069     0.999999    0.00010209
   86      -16.4196162239      -0.0000003027     0.999999    0.00010134
   87      -16.4196165225      -0.0000002986     0.999999    0.00010060
   88      -16.4196168170      -0.0000002946     0.999999    0.00009988
   89      -16.4196171076      -0.0000002906     0.999999    0.00009916
   90      -16.4196173944      -0.0000002868     0.999999    0.00009846
   91      -16.4196176774      -0.0000002830     0.999999    0.00009777
   92      -16.4196179566      -0.0000002793     0.999999    0.00009709
   93      -16.4196182323      -0.0000002757     0.999999    0.00009642
   94      -16.4196185044      -0.0000002721     0.999999    0.00009576
   95      -16.4196187730      -0.0000002686     0.999999    0.00009510
   96      -16.4196190382      -0.0000002652     0.999999    0.00009446
   97      -16.4196193001      -0.0000002619     0.999999    0.00009383
   98      -16.4196195588      -0.0000002586     0.999999    0.00009321
   99      -16.4196198142      -0.0000002554     0.999999    0.00009260
  100      -16.4196200665      -0.0000002523     0.999999    0.00009199
  101      -16.4196203157      -0.0000002492     0.999999    0.00009140
  102      -16.4196205618      -0.0000002462     0.999999    0.00009081
  103      -16.4196208051      -0.0000002432     0.999999    0.00009023
  104      -16.4196210454      -0.0000002403     0.999999    0.00008966
  105      -16.4196212829      -0.0000002375     0.999999    0.00008910
  106      -16.4196215176      -0.0000002347     0.999999    0.00008854
  107      -16.4196217496      -0.0000002320     0.999999    0.00008799
  108      -16.4196219788      -0.0000002293     0.999999    0.00008745
  109      -16.4196222055      -0.0000002267     0.999999    0.00008692
  110      -16.4196224296      -0.0000002241     0.999999    0.00008640
  111      -16.4196226511      -0.0000002215     0.999999    0.00008588
  112      -16.4196228702      -0.0000002191     0.999999    0.00008537
  113      -16.4196230868      -0.0000002166     0.999999    0.00008486
  114      -16.4196233011      -0.0000002142     0.999999    0.00008437
  115      -16.4196235130      -0.0000002119     0.999999    0.00008388
  116      -16.4196237225      -0.0000002096     0.999999    0.00008339
  117      -16.4196239299      -0.0000002073     0.999999    0.00008291
  118      -16.4196241350      -0.0000002051     0.999999    0.00008244
  119      -16.4196243379      -0.0000002029     0.999999    0.00008198
  120      -16.4196245388      -0.0000002008     0.999999    0.00008152
  121      -16.4196247375      -0.0000001987     0.999999    0.00008106
  122      -16.4196249341      -0.0000001967     0.999999    0.00008062
  123      -16.4196251287      -0.0000001946     0.999999    0.00008018
  124      -16.4196253214      -0.0000001926     0.999999    0.00007974
  125      -16.4196255121      -0.0000001907     0.999999    0.00007931
  126      -16.4196257009      -0.0000001888     0.999999    0.00007888
  127      -16.4196258878      -0.0000001869     0.999999    0.00007847
  128      -16.4196260728      -0.0000001851     0.999999    0.00007805
  129      -16.4196262560      -0.0000001832     0.999999    0.00007764
  130      -16.4196264375      -0.0000001815     0.999999    0.00007724
  131      -16.4196266172      -0.0000001797     0.999999    0.00007684
  132      -16.4196267952      -0.0000001780     0.999999    0.00007645
  133      -16.4196269715      -0.0000001763     0.999999    0.00007606
  134      -16.4196271461      -0.0000001746     0.999999    0.00007568
  135      -16.4196273191      -0.0000001730     0.999999    0.00007530
  136      -16.4196274905      -0.0000001714     0.999999    0.00007492
  137      -16.4196276603      -0.0000001698     0.999999    0.00007455
  138      -16.4196278286      -0.0000001683     0.999999    0.00007419
  139      -16.4196279953      -0.0000001667     0.999999    0.00007383
  140      -16.4196281606      -0.0000001652     0.999999    0.00007347
  141      -16.4196283243      -0.0000001638     0.999999    0.00007312
  142      -16.4196284867      -0.0000001623     0.999999    0.00007277
  143      -16.4196286476      -0.0000001609     0.999999    0.00007243
  144      -16.4196288071      -0.0000001595     0.999999    0.00007209
  145      -16.4196289652      -0.0000001581     0.999999    0.00007176
  146      -16.4196291220      -0.0000001568     0.999999    0.00007143
  147      -16.4196292775      -0.0000001555     0.999999    0.00007110
  148      -16.4196294316      -0.0000001541     0.999999    0.00007078
  149      -16.4196295845      -0.0000001529     0.999999    0.00007046
  150      -16.4196297361      -0.0000001516     0.999999    0.00007015
  151      -16.4196298864      -0.0000001504     0.999999    0.00006984
  152      -16.4196300356      -0.0000001491     0.999999    0.00006953
  153      -16.4196301835      -0.0000001479     0.999999    0.00006923
  154      -16.4196303303      -0.0000001467     0.999999    0.00006893
  155      -16.4196304758      -0.0000001456     0.999999    0.00006863
  156      -16.4196306203      -0.0000001444     0.999999    0.00006834
  157      -16.4196307636      -0.0000001433     0.999999    0.00006805
  158      -16.4196309058      -0.0000001422     0.999999    0.00006777
  159      -16.4196310469      -0.0000001411     0.999999    0.00006748
  160      -16.4196311870      -0.0000001400     0.999999    0.00006721
  161      -16.4196313260      -0.0000001390     0.999999    0.00006693
  162      -16.4196314639      -0.0000001380     0.999999    0.00006666
  163      -16.4196316009      -0.0000001369     0.999999    0.00006639
  164      -16.4196317368      -0.0000001359     0.999999    0.00006613
  165      -16.4196318717      -0.0000001349     0.999999    0.00006586
  166      -16.4196320057      -0.0000001340     0.999999    0.00006560
  167      -16.4196321387      -0.0000001330     0.999999    0.00006535
  168      -16.4196322708      -0.0000001321     0.999999    0.00006510
  169      -16.4196324019      -0.0000001311     0.999999    0.00006485
  170      -16.4196325322      -0.0000001302     0.999999    0.00006460
  171      -16.4196326615      -0.0000001293     0.999999    0.00006436
  172      -16.4196327900      -0.0000001285     0.999999    0.00006411
  173      -16.4196329175      -0.0000001276     0.999999    0.00006388
  174      -16.4196330443      -0.0000001267     0.999999    0.00006364
  175      -16.4196331702      -0.0000001259     0.999999    0.00006341
  176      -16.4196332952      -0.0000001251     0.999999    0.00006318
  177      -16.4196334195      -0.0000001242     0.999999    0.00006295
  178      -16.4196335429      -0.0000001234     0.999999    0.00006273
  179      -16.4196336655      -0.0000001226     0.999999    0.00006251
  180      -16.4196337874      -0.0000001219     0.999999    0.00006229
  181      -16.4196339085      -0.0000001211     0.999999    0.00006207
  182      -16.4196340289      -0.0000001203     0.999999    0.00006186
  183      -16.4196341485      -0.0000001196     0.999999    0.00006165
  184      -16.4196342673      -0.0000001189     0.999999    0.00006144
  185      -16.4196343855      -0.0000001182     0.999999    0.00006123
  186      -16.4196345029      -0.0000001174     0.999999    0.00006103
  187      -16.4196346197      -0.0000001168     0.999999    0.00006083
  188      -16.4196347358      -0.0000001161     0.999999    0.00006063
  189      -16.4196348512      -0.0000001154     0.999999    0.00006043
  190      -16.4196349659      -0.0000001147     0.999999    0.00006024
  191      -16.4196350800      -0.0000001141     0.999999    0.00006005
  192      -16.4196351934      -0.0000001134     0.999999    0.00005986
  193      -16.4196353062      -0.0000001128     0.999999    0.00005967
  194      -16.4196354183      -0.0000001122     0.999999    0.00005949
  195      -16.4196355299      -0.0000001116     0.999999    0.00005930
  196      -16.4196356409      -0.0000001110     0.999999    0.00005912
  197      -16.4196357512      -0.0000001104     0.999999    0.00005895
  198      -16.4196358610      -0.0000001098     0.999999    0.00005877
  199      -16.4196359702      -0.0000001092     0.999999    0.00005860
  200      -16.4196360788      -0.0000001086     0.999999    0.00005842
  201      -16.4196361869      -0.0000001081     0.999999    0.00005826
  202      -16.4196362944      -0.0000001075     0.999999    0.00005809
  203      -16.4196364014      -0.0000001070     0.999999    0.00005792
  204      -16.4196365078      -0.0000001064     0.999999    0.00005776
  205      -16.4196366137      -0.0000001059     0.999999    0.00005760
  206      -16.4196367191      -0.0000001054     0.999999    0.00005744
  207      -16.4196368240      -0.0000001049     0.999999    0.00005728
  208      -16.4196369284      -0.0000001044     0.999999    0.00005713
  209      -16.4196370323      -0.0000001039     0.999999    0.00005697
  210      -16.4196371357      -0.0000001034     0.999999    0.00005682
  211      -16.4196372387      -0.0000001029     0.999999    0.00005667
  212      -16.4196373412      -0.0000001025     0.999999    0.00005652
  213      -16.4196374432      -0.0000001020     0.999999    0.00005638
  214      -16.4196375447      -0.0000001016     0.999999    0.00005623
  215      -16.4196376458      -0.0000001011     0.999999    0.00005609
  216      -16.4196377465      -0.0000001007     0.999999    0.00005595
  217      -16.4196378467      -0.0000001002     0.999999    0.00005581
  218      -16.4196379466      -0.0000000998     0.999999    0.00005567
  219      -16.4196380460      -0.0000000994     0.999999    0.00005554
  220      -16.4196381449      -0.0000000990     0.999999    0.00005541
  221      -16.4196382435      -0.0000000986     0.999999    0.00005527
  222      -16.4196383417      -0.0000000982     0.999999    0.00005514
  223      -16.4196384395      -0.0000000978     0.999999    0.00005502
  224      -16.4196385369      -0.0000000974     0.999999    0.00005489
  225      -16.4196386339      -0.0000000970     0.999999    0.00005476
  226      -16.4196387306      -0.0000000967     0.999999    0.00005464
  227      -16.4196388269      -0.0000000963     0.999999    0.00005452
  228      -16.4196389228      -0.0000000959     0.999999    0.00005440
  229      -16.4196390184      -0.0000000956     0.999999    0.00005428
  230      -16.4196391136      -0.0000000952     0.999999    0.00005416
  231      -16.4196392085      -0.0000000949     0.999999    0.00005405
  232      -16.4196393031      -0.0000000946     0.999999    0.00005394
  233      -16.4196393973      -0.0000000942     0.999999    0.00005382
  234      -16.4196394912      -0.0000000939     0.999999    0.00005371
  235      -16.4196395848      -0.0000000936     0.999999    0.00005360
  236      -16.4196396780      -0.0000000933     0.999999    0.00005350
  237      -16.4196397710      -0.0000000930     0.999999    0.00005339
  238      -16.4196398637      -0.0000000927     0.999999    0.00005329
  239      -16.4196399560      -0.0000000924     0.999999    0.00005318
  240      -16.4196400481      -0.0000000921     0.999999    0.00005308
  241      -16.4196401399      -0.0000000918     0.999999    0.00005298
  242      -16.4196402314      -0.0000000915     0.999999    0.00005288
  243      -16.4196403226      -0.0000000912     0.999999    0.00005278
  244      -16.4196404136      -0.0000000910     0.999999    0.00005269
  245      -16.4196405043      -0.0000000907     0.999999    0.00005259
  246      -16.4196405948      -0.0000000904     0.999999    0.00005250
  247      -16.4196406849      -0.0000000902     0.999999    0.00005241
  248      -16.4196407749      -0.0000000899     0.999999    0.00005232
  249      -16.4196408646      -0.0000000897     0.999999    0.00005223
  250      -16.4196409540      -0.0000000895     0.999999    0.00005214
  251      -16.4196410432      -0.0000000892     0.999999    0.00005206
  252      -16.4196411322      -0.0000000890     0.999999    0.00005197
  253      -16.4196412210      -0.0000000888     0.999999    0.00005189
  254      -16.4196413095      -0.0000000885     0.999999    0.00005180
  255      -16.4196413979      -0.0000000883     0.999999    0.00005172
  256      -16.4196414860      -0.0000000881     0.999999    0.00005164
  257      -16.4196415739      -0.0000000879     0.999999    0.00005157
  258      -16.4196416616      -0.0000000877     0.999999    0.00005149
  259      -16.4196417491      -0.0000000875     0.999999    0.00005141
  260      -16.4196418364      -0.0000000873     0.999999    0.00005134
  261      -16.4196419236      -0.0000000871     0.999999    0.00005127
  262      -16.4196420105      -0.0000000869     0.999999    0.00005119
  263      -16.4196420973      -0.0000000868     0.999999    0.00005112
  264      -16.4196421839      -0.0000000866     0.999999    0.00005105
  265      -16.4196422703      -0.0000000864     0.999999    0.00005098
  266      -16.4196423565      -0.0000000862     0.999999    0.00005092
  267      -16.4196424426      -0.0000000861     0.999999    0.00005085
  268      -16.4196425285      -0.0000000859     0.999999    0.00005079
  269      -16.4196426143      -0.0000000858     0.999999    0.00005072
  270      -16.4196426999      -0.0000000856     0.999999    0.00005066
  271      -16.4196427854      -0.0000000855     0.999999    0.00005060
  272      -16.4196428707      -0.0000000853     0.999999    0.00005054
  273      -16.4196429559      -0.0000000852     0.999999    0.00005048
  274      -16.4196430410      -0.0000000851     0.999999    0.00005042
  275      -16.4196431259      -0.0000000849     0.999999    0.00005037
  276      -16.4196432107      -0.0000000848     0.999999    0.00005031
  277      -16.4196432954      -0.0000000847     0.999999    0.00005026
  278      -16.4196433800      -0.0000000846     0.999999    0.00005021
  279      -16.4196434644      -0.0000000844     0.999999    0.00005017
  280      -16.4196435487      -0.0000000843     0.999999    0.00005012
  281      -16.4196436330      -0.0000000842     0.999999    0.00005008
  282      -16.4196437171      -0.0000000841     0.999999    0.00005004
  283      -16.4196438011      -0.0000000840     0.999999    0.00005000
  284      -16.4196438851      -0.0000000839     0.999999    0.00004996
  285      -16.4196439689      -0.0000000838     0.999999    0.00004992
  286      -16.4196440526      -0.0000000837     0.999999    0.00004988
  287      -16.4196441363      -0.0000000837     0.999999    0.00004984
  288      -16.4196442199      -0.0000000836     0.999999    0.00004981
  289      -16.4196443034      -0.0000000835     0.999999    0.00004977
  290      -16.4196443868      -0.0000000834     0.999999    0.00004974
  291      -16.4196444702      -0.0000000834     0.999999    0.00004971
  292      -16.4196445535      -0.0000000833     0.999999    0.00004968
  293      -16.4196446367      -0.0000000832     0.999999    0.00004965
  294      -16.4196447199      -0.0000000832     0.999999    0.00004962
  295      -16.4196448030      -0.0000000831     0.999999    0.00004959
  296      -16.4196448861      -0.0000000831     0.999999    0.00004956
  297      -16.4196449691      -0.0000000830     0.999999    0.00004954
  298      -16.4196450521      -0.0000000830     0.999999    0.00004951
  299      -16.4196451350      -0.0000000829     0.999999    0.00004949
  300      -16.4196452179      -0.0000000829     0.999999    0.00004947
  301      -16.4196453008      -0.0000000829     0.999999    0.00004944
  302      -16.4196453836      -0.0000000828     0.999999    0.00004942
  303      -16.4196454664      -0.0000000828     0.999999    0.00004940
  304      -16.4196455492      -0.0000000828     0.999999    0.00004938
  305      -16.4196456319      -0.0000000828     0.999999    0.00004937
  306      -16.4196457147      -0.0000000827     0.999999    0.00004935
  307      -16.4196457974      -0.0000000827     0.999999    0.00004933
  308      -16.4196458801      -0.0000000827     0.999999    0.00004932
  309      -16.4196459628      -0.0000000827     0.999999    0.00004930
  310      -16.4196460455      -0.0000000827     0.999999    0.00004929
  311      -16.4196461282      -0.0000000827     0.999999    0.00004928
  312      -16.4196462109      -0.0000000827     0.999999    0.00004927
  313      -16.4196462937      -0.0000000827     0.999999    0.00004926
  314      -16.4196463764      -0.0000000827     0.999999    0.00004925
  315      -16.4196464591      -0.0000000827     0.999999    0.00004924
  316      -16.4196465419      -0.0000000828     0.999999    0.00004924
  317      -16.4196466247      -0.0000000828     0.999999    0.00004923
  318      -16.4196467075      -0.0000000828     0.999999    0.00004922
  319      -16.4196467903      -0.0000000828     0.999999    0.00004922
  320      -16.4196468732      -0.0000000829     0.999999    0.00004922
  321      -16.4196469561      -0.0000000829     0.999999    0.00004921
  322      -16.4196470390      -0.0000000829     0.999999    0.00004921
  323      -16.4196471220      -0.0000000830     0.999999    0.00004921
  324      -16.4196472050      -0.0000000830     0.999999    0.00004921
  325      -16.4196472881      -0.0000000831     0.999999    0.00004922
  326      -16.4196473712      -0.0000000831     0.999999    0.00004922
  327      -16.4196474544      -0.0000000832     0.999999    0.00004922
  328      -16.4196475376      -0.0000000832     0.999999    0.00004923
  329      -16.4196476209      -0.0000000833     0.999999    0.00004923
  330      -16.4196477043      -0.0000000834     0.999999    0.00004924
  331      -16.4196477877      -0.0000000834     0.999999    0.00004925
  332      -16.4196478712      -0.0000000835     0.999999    0.00004925
  333      -16.4196479548      -0.0000000836     0.999999    0.00004926
  334      -16.4196480385      -0.0000000837     0.999999    0.00004927
  335      -16.4196481222      -0.0000000837     0.999999    0.00004929
  336      -16.4196482060      -0.0000000838     0.999999    0.00004930
  337      -16.4196482899      -0.0000000839     0.999999    0.00004931
  338      -16.4196483739      -0.0000000840     0.999999    0.00004932
  339      -16.4196484580      -0.0000000841     0.999999    0.00004934
  340      -16.4196485422      -0.0000000842     0.999999    0.00004936
  341      -16.4196486266      -0.0000000843     0.999999    0.00004937
  342      -16.4196487110      -0.0000000844     0.999999    0.00004939
  343      -16.4196487955      -0.0000000845     0.999999    0.00004941
  344      -16.4196488801      -0.0000000846     0.999999    0.00004943
  345      -16.4196489649      -0.0000000848     0.999999    0.00004945
  346      -16.4196490497      -0.0000000849     0.999999    0.00004947
  347      -16.4196491347      -0.0000000850     0.999999    0.00004949
  348      -16.4196492199      -0.0000000851     0.999999    0.00004952
  349      -16.4196493051      -0.0000000853     0.999999    0.00004954
  350      -16.4196493905      -0.0000000854     0.999999    0.00004957
  351      -16.4196494760      -0.0000000855     0.999999    0.00004959
  352      -16.4196495617      -0.0000000857     0.999999    0.00004962
  353      -16.4196496475      -0.0000000858     0.999999    0.00004965
  354      -16.4196497335      -0.0000000860     0.999999    0.00004968
  355      -16.4196498196      -0.0000000861     0.999999    0.00004971
  356      -16.4196499059      -0.0000000863     0.999999    0.00004974
  357      -16.4196499923      -0.0000000864     0.999999    0.00004977
  358      -16.4196500789      -0.0000000866     0.999999    0.00004980
  359      -16.4196501657      -0.0000000868     0.999999    0.00004984
  360      -16.4196502527      -0.0000000869     0.999999    0.00004987
  361      -16.4196503398      -0.0000000871     0.999999    0.00004991
  362      -16.4196504271      -0.0000000873     0.999999    0.00004995
  363      -16.4196505145      -0.0000000875     0.999999    0.00004998
  364      -16.4196506022      -0.0000000877     0.999999    0.00005002
  365      -16.4196506901      -0.0000000879     0.999999    0.00005006
  366      -16.4196507781      -0.0000000880     0.999999    0.00005010
  367      -16.4196508664      -0.0000000882     0.999999    0.00005014
  368      -16.4196509548      -0.0000000885     0.999999    0.00005019
  369      -16.4196510435      -0.0000000887     0.999999    0.00005023
  370      -16.4196511323      -0.0000000889     0.999999    0.00005027
  371      -16.4196512214      -0.0000000891     0.999999    0.00005032
  372      -16.4196513107      -0.0000000893     0.999999    0.00005037
  373      -16.4196514002      -0.0000000895     0.999999    0.00005041
  374      -16.4196514900      -0.0000000897     0.999999    0.00005046
  375      -16.4196515800      -0.0000000900     0.999999    0.00005051
  376      -16.4196516702      -0.0000000902     0.999999    0.00005056
  377      -16.4196517606      -0.0000000904     0.999999    0.00005061
  378      -16.4196518513      -0.0000000907     0.999999    0.00005066
  379      -16.4196519422      -0.0000000909     0.999999    0.00005072
  380      -16.4196520334      -0.0000000912     0.999999    0.00005077
  381      -16.4196521249      -0.0000000914     0.999999    0.00005083
  382      -16.4196522166      -0.0000000917     0.999999    0.00005088
  383      -16.4196523086      -0.0000000920     0.999999    0.00005094
  384      -16.4196524008      -0.0000000922     0.999999    0.00005100
  385      -16.4196524933      -0.0000000925     0.999999    0.00005106
  386      -16.4196525861      -0.0000000928     0.999999    0.00005112
  387      -16.4196526792      -0.0000000931     0.999999    0.00005118
  388      -16.4196527725      -0.0000000934     0.999999    0.00005124
  389      -16.4196528662      -0.0000000936     0.999999    0.00005130
  390      -16.4196529601      -0.0000000939     0.999999    0.00005136
  391      -16.4196530543      -0.0000000942     0.999999    0.00005143
  392      -16.4196531489      -0.0000000945     0.999999    0.00005150
  393      -16.4196532437      -0.0000000948     0.999999    0.00005156
  394      -16.4196533389      -0.0000000952     0.999999    0.00005163
  395      -16.4196534344      -0.0000000955     0.999999    0.00005170
  396      -16.4196535302      -0.0000000958     0.999999    0.00005177
  397      -16.4196536263      -0.0000000961     0.999999    0.00005184
  398      -16.4196537228      -0.0000000965     0.999999    0.00005191
  399      -16.4196538196      -0.0000000968     0.999999    0.00005199
  400      -16.4196539167      -0.0000000971     0.999999    0.00005206
  401      -16.4196540142      -0.0000000975     0.999999    0.00005213
  402      -16.4196541120      -0.0000000978     0.999999    0.00005221
  403      -16.4196542102      -0.0000000982     0.999999    0.00005229
  404      -16.4196543088      -0.0000000986     0.999999    0.00005237
  405      -16.4196544077      -0.0000000989     0.999999    0.00005244
  406      -16.4196545070      -0.0000000993     0.999999    0.00005252
  407      -16.4196546067      -0.0000000997     0.999999    0.00005261
  408      -16.4196547068      -0.0000001001     0.999999    0.00005269
  409      -16.4196548072      -0.0000001005     0.999999    0.00005277
  410      -16.4196549081      -0.0000001008     0.999999    0.00005286
  411      -16.4196550093      -0.0000001012     0.999999    0.00005294
  412      -16.4196551110      -0.0000001016     0.999999    0.00005303
  413      -16.4196552130      -0.0000001021     0.999999    0.00005312
  414      -16.4196553155      -0.0000001025     0.999999    0.00005320
  415      -16.4196554184      -0.0000001029     0.999999    0.00005329
  416      -16.4196555217      -0.0000001033     0.999999    0.00005339
  417      -16.4196556255      -0.0000001038     0.999999    0.00005348
  418      -16.4196557297      -0.0000001042     0.999999    0.00005357
  419      -16.4196558343      -0.0000001046     0.999999    0.00005366
  420      -16.4196559394      -0.0000001051     0.999999    0.00005376
  421      -16.4196560449      -0.0000001055     0.999999    0.00005386
  422      -16.4196561510      -0.0000001060     0.999999    0.00005395
  423      -16.4196562574      -0.0000001065     0.999999    0.00005405
  424      -16.4196563644      -0.0000001070     0.999999    0.00005415
  425      -16.4196564718      -0.0000001074     0.999999    0.00005425
  426      -16.4196565797      -0.0000001079     0.999999    0.00005435
  427      -16.4196566882      -0.0000001084     0.999999    0.00005446
  428      -16.4196567971      -0.0000001089     0.999999    0.00005456
  429      -16.4196569065      -0.0000001094     0.999999    0.00005467
  430      -16.4196570164      -0.0000001099     0.999999    0.00005477
  431      -16.4196571269      -0.0000001105     0.999999    0.00005488
  432      -16.4196572379      -0.0000001110     0.999999    0.00005499
  433      -16.4196573494      -0.0000001115     0.999999    0.00005510
  434      -16.4196574614      -0.0000001121     0.999999    0.00005521
  435      -16.4196575741      -0.0000001126     0.999999    0.00005532
  436      -16.4196576872      -0.0000001132     0.999999    0.00005544
  437      -16.4196578009      -0.0000001137     0.999999    0.00005558
  438      -16.4196579152      -0.0000001143     0.999999    0.00005573
  439      -16.4196580301      -0.0000001149     0.999999    0.00005587
  440      -16.4196581455      -0.0000001154     0.999999    0.00005602
  441      -16.4196582616      -0.0000001160     0.999999    0.00005617
  442      -16.4196583782      -0.0000001166     0.999999    0.00005632
  443      -16.4196584954      -0.0000001172     0.999999    0.00005647
  444      -16.4196586133      -0.0000001179     0.999999    0.00005662
  445      -16.4196587318      -0.0000001185     0.999999    0.00005678
  446      -16.4196588509      -0.0000001191     0.999999    0.00005693
  447      -16.4196589706      -0.0000001197     0.999999    0.00005709
  448      -16.4196590910      -0.0000001204     0.999999    0.00005725
  449      -16.4196592120      -0.0000001210     0.999999    0.00005742
  450      -16.4196593337      -0.0000001217     0.999999    0.00005761
  451      -16.4196594561      -0.0000001224     0.999999    0.00005780
  452      -16.4196595791      -0.0000001230     0.999999    0.00005799
  453      -16.4196597029      -0.0000001237     0.999999    0.00005818
  454      -16.4196598273      -0.0000001244     0.999999    0.00005837
  455      -16.4196599524      -0.0000001251     0.999999    0.00005856
  456      -16.4196600782      -0.0000001258     0.999999    0.00005876
  457      -16.4196602048      -0.0000001266     0.999999    0.00005896
  458      -16.4196603321      -0.0000001273     0.999999    0.00005916
  459      -16.4196604601      -0.0000001280     0.999999    0.00005936
  460      -16.4196605889      -0.0000001288     0.999999    0.00005956
  461      -16.4196607184      -0.0000001295     0.999999    0.00005977
  462      -16.4196608487      -0.0000001303     0.999999    0.00005998
  463      -16.4196609798      -0.0000001311     0.999999    0.00006019
  464      -16.4196611117      -0.0000001319     0.999999    0.00006040
  465      -16.4196612444      -0.0000001327     0.999999    0.00006061
  466      -16.4196613778      -0.0000001335     0.999999    0.00006083
  467      -16.4196615121      -0.0000001343     0.999999    0.00006104
  468      -16.4196616472      -0.0000001351     0.999999    0.00006126
  469      -16.4196617832      -0.0000001359     1.000000    0.00006148
  470      -16.4196619200      -0.0000001368     1.000000    0.00006171
  471      -16.4196620576      -0.0000001377     1.000000    0.00006193
  472      -16.4196621961      -0.0000001385     1.000000    0.00006216
  473      -16.4196623355      -0.0000001394     1.000000    0.00006239
  474      -16.4196624758      -0.0000001403     1.000000    0.00006262
  475      -16.4196626170      -0.0000001412     1.000000    0.00006285
  476      -16.4196627591      -0.0000001421     1.000000    0.00006309
  477      -16.4196629021      -0.0000001430     1.000000    0.00006332
  478      -16.4196630461      -0.0000001440     1.000000    0.00006356
  479      -16.4196631910      -0.0000001449     1.000000    0.00006380
  480      -16.4196633369      -0.0000001459     1.000000    0.00006405
  481      -16.4196634837      -0.0000001468     1.000000    0.00006429
  482      -16.4196636315      -0.0000001478     1.000000    0.00006454
  483      -16.4196637804      -0.0000001488     1.000000    0.00006479
  484      -16.4196639302      -0.0000001498     1.000000    0.00006504
  485      -16.4196640810      -0.0000001508     1.000000    0.00006530
  486      -16.4196642329      -0.0000001519     1.000000    0.00006556
  487      -16.4196643858      -0.0000001529     1.000000    0.00006582
  488      -16.4196645398      -0.0000001540     1.000000    0.00006608
  489      -16.4196646949      -0.0000001551     1.000000    0.00006634
  490      -16.4196648510      -0.0000001561     1.000000    0.00006661
  491      -16.4196650082      -0.0000001572     1.000000    0.00006688
  492      -16.4196651666      -0.0000001583     1.000000    0.00006715
  493      -16.4196653261      -0.0000001595     1.000000    0.00006742
  494      -16.4196654867      -0.0000001606     1.000000    0.00006770
  495      -16.4196656484      -0.0000001618     1.000000    0.00006798
  496      -16.4196658114      -0.0000001629     1.000000    0.00006826
  497      -16.4196659755      -0.0000001641     1.000000    0.00006854
  498      -16.4196661408      -0.0000001653     1.000000    0.00006883
  499      -16.4196663074      -0.0000001665     1.000000    0.00006912
  500      -16.4196664751      -0.0000001678     1.000000    0.00006941
  501      -16.4196666442      -0.0000001690     1.000000    0.00006970
  502      -16.4196668144      -0.0000001703     1.000000    0.00007000
  503      -16.4196669860      -0.0000001716     1.000000    0.00007030
  504      -16.4196671588      -0.0000001728     1.000000    0.00007060
  505      -16.4196673330      -0.0000001742     1.000000    0.00007090
  506      -16.4196675085      -0.0000001755     1.000000    0.00007121
  507      -16.4196676853      -0.0000001768     1.000000    0.00007152
  508      -16.4196678635      -0.0000001782     1.000000    0.00007183
  509      -16.4196680431      -0.0000001796     1.000000    0.00007215
  510      -16.4196682240      -0.0000001810     1.000000    0.00007246
  511      -16.4196684064      -0.0000001824     1.000000    0.00007279
  512      -16.4196685902      -0.0000001838     1.000000    0.00007311
  513      -16.4196687754      -0.0000001853     1.000000    0.00007344
  514      -16.4196689622      -0.0000001867     1.000000    0.00007376
  515      -16.4196691504      -0.0000001882     1.000000    0.00007410
  516      -16.4196693401      -0.0000001897     1.000000    0.00007443
  517      -16.4196695313      -0.0000001912     1.000000    0.00007477
  518      -16.4196697241      -0.0000001928     1.000000    0.00007511
  519      -16.4196699184      -0.0000001943     1.000000    0.00007546
  520      -16.4196701143      -0.0000001959     1.000000    0.00007580
  521      -16.4196703119      -0.0000001975     1.000000    0.00007615
  522      -16.4196705110      -0.0000001992     1.000000    0.00007651
  523      -16.4196707118      -0.0000002008     1.000000    0.00007686
  524      -16.4196709143      -0.0000002025     1.000000    0.00007722
  525      -16.4196711184      -0.0000002042     1.000000    0.00007759
  526      -16.4196713243      -0.0000002059     1.000000    0.00007795
  527      -16.4196715319      -0.0000002076     1.000000    0.00007832
  528      -16.4196717413      -0.0000002094     1.000000    0.00007869
  529      -16.4196719524      -0.0000002111     1.000000    0.00007907
  530      -16.4196721653      -0.0000002129     1.000000    0.00007945
  531      -16.4196723801      -0.0000002148     1.000000    0.00007983
  532      -16.4196725967      -0.0000002166     1.000000    0.00008022
  533      -16.4196728151      -0.0000002185     1.000000    0.00008061
  534      -16.4196730355      -0.0000002204     1.000000    0.00008100
  535      -16.4196732578      -0.0000002223     1.000000    0.00008140
  536      -16.4196734820      -0.0000002242     1.000000    0.00008180
  537      -16.4196737082      -0.0000002262     1.000000    0.00008220
  538      -16.4196739364      -0.0000002282     1.000000    0.00008261
  539      -16.4196741667      -0.0000002302     1.000000    0.00008302
  540      -16.4196743989      -0.0000002323     1.000000    0.00008343
  541      -16.4196746333      -0.0000002344     1.000000    0.00008385
  542      -16.4196748698      -0.0000002365     1.000000    0.00008427
  543      -16.4196751083      -0.0000002386     1.000000    0.00008469
  544      -16.4196753491      -0.0000002407     1.000000    0.00008512
  545      -16.4196755920      -0.0000002429     1.000000    0.00008555
  546      -16.4196758372      -0.0000002452     1.000000    0.00008599
  547      -16.4196760846      -0.0000002474     1.000000    0.00008643
  548      -16.4196763342      -0.0000002497     1.000000    0.00008687
  549      -16.4196765862      -0.0000002520     1.000000    0.00008732
  550      -16.4196768405      -0.0000002543     1.000000    0.00008777
  551      -16.4196770972      -0.0000002567     1.000000    0.00008823
  552      -16.4196773563      -0.0000002591     1.000000    0.00008869
  553      -16.4196776178      -0.0000002615     1.000000    0.00008915
  554      -16.4196778818      -0.0000002640     1.000000    0.00008962
  555      -16.4196781482      -0.0000002665     1.000000    0.00009009
  556      -16.4196784172      -0.0000002690     1.000000    0.00009057
  557      -16.4196786888      -0.0000002716     1.000000    0.00009105
  558      -16.4196789629      -0.0000002741     1.000000    0.00009153
  559      -16.4196792397      -0.0000002768     1.000000    0.00009202
  560      -16.4196795191      -0.0000002794     1.000000    0.00009251
  561      -16.4196798013      -0.0000002821     1.000000    0.00009301
  562      -16.4196800862      -0.0000002849     1.000000    0.00009351
  563      -16.4196803738      -0.0000002877     1.000000    0.00009402
  564      -16.4196806643      -0.0000002905     1.000000    0.00009453
  565      -16.4196809576      -0.0000002933     1.000000    0.00009504
  566      -16.4196812538      -0.0000002962     1.000000    0.00009556
  567      -16.4196815530      -0.0000002991     1.000000    0.00009609
  568      -16.4196818550      -0.0000003021     1.000000    0.00009661
  569      -16.4196821601      -0.0000003051     1.000000    0.00009715
  570      -16.4196824683      -0.0000003081     1.000000    0.00009768
  571      -16.4196827795      -0.0000003112     1.000000    0.00009823
  572      -16.4196830939      -0.0000003144     1.000000    0.00009877
  573      -16.4196834114      -0.0000003175     1.000000    0.00009932
  574      -16.4196837321      -0.0000003207     1.000000    0.00009988
  575      -16.4196840561      -0.0000003240     1.000000    0.00010044
  576      -16.4196843834      -0.0000003273     1.000000    0.00010101
  577      -16.4196847140      -0.0000003306     1.000000    0.00010158
  578      -16.4196850480      -0.0000003340     1.000000    0.00010215
  579      -16.4196853855      -0.0000003375     1.000000    0.00010273
  580      -16.4196857264      -0.0000003409     1.000000    0.00010332
  581      -16.4196860709      -0.0000003445     1.000000    0.00010391
  582      -16.4196864189      -0.0000003480     1.000000    0.00010450
  583      -16.4196867706      -0.0000003517     1.000000    0.00010510
  584      -16.4196871259      -0.0000003553     1.000000    0.00010571
  585      -16.4196874850      -0.0000003591     1.000000    0.00010632
  586      -16.4196878478      -0.0000003628     1.000000    0.00010694
  587      -16.4196882144      -0.0000003666     1.000000    0.00010756
  588      -16.4196885850      -0.0000003705     1.000000    0.00010818
  589      -16.4196889594      -0.0000003744     1.000000    0.00010881
  590      -16.4196893378      -0.0000003784     1.000000    0.00010945
  591      -16.4196897203      -0.0000003825     1.000000    0.00011009
  592      -16.4196901068      -0.0000003865     1.000000    0.00011074
  593      -16.4196904975      -0.0000003907     1.000000    0.00011139
  594      -16.4196908924      -0.0000003949     1.000000    0.00011205
  595      -16.4196912916      -0.0000003991     1.000000    0.00011272
  596      -16.4196916950      -0.0000004035     1.000000    0.00011339
  597      -16.4196921029      -0.0000004078     1.000000    0.00011406
  598      -16.4196925151      -0.0000004123     1.000000    0.00011474
  599      -16.4196929319      -0.0000004168     1.000000    0.00011543
  600      -16.4196933532      -0.0000004213     1.000000    0.00011612
  601      -16.4196937791      -0.0000004259     1.000000    0.00011682
  602      -16.4196942097      -0.0000004306     1.000000    0.00011752
  603      -16.4196946450      -0.0000004353     1.000000    0.00011823
  604      -16.4196950851      -0.0000004401     1.000000    0.00011894
  605      -16.4196955301      -0.0000004450     1.000000    0.00011966
  606      -16.4196959800      -0.0000004499     1.000000    0.00012039
  607      -16.4196964349      -0.0000004549     1.000000    0.00012112
  608      -16.4196968949      -0.0000004600     1.000000    0.00012186
  609      -16.4196973600      -0.0000004651     1.000000    0.00012260
  610      -16.4196978303      -0.0000004703     1.000000    0.00012335
  611      -16.4196983059      -0.0000004756     1.000000    0.00012411
  612      -16.4196987868      -0.0000004809     1.000000    0.00012487
  613      -16.4196992731      -0.0000004863     1.000000    0.00012563
  614      -16.4196997649      -0.0000004918     1.000000    0.00012641
  615      -16.4197002623      -0.0000004974     1.000000    0.00012719
  616      -16.4197007653      -0.0000005030     1.000000    0.00012797
  617      -16.4197012740      -0.0000005087     1.000000    0.00012876
  618      -16.4197017884      -0.0000005145     1.000000    0.00012956
  619      -16.4197023087      -0.0000005203     1.000000    0.00013036
  620      -16.4197028350      -0.0000005263     1.000000    0.00013117
  621      -16.4197033673      -0.0000005323     1.000000    0.00013199
  622      -16.4197039056      -0.0000005383     1.000000    0.00013281
  623      -16.4197044501      -0.0000005445     1.000000    0.00013364
  624      -16.4197050009      -0.0000005508     1.000000    0.00013447
  625      -16.4197055580      -0.0000005571     1.000000    0.00013531
  626      -16.4197061215      -0.0000005635     1.000000    0.00013616
  627      -16.4197066915      -0.0000005700     1.000000    0.00013701
  628      -16.4197072680      -0.0000005766     1.000000    0.00013787
  629      -16.4197078513      -0.0000005832     1.000000    0.00013874
  630      -16.4197084412      -0.0000005900     1.000000    0.00013961
  631      -16.4197090380      -0.0000005968     1.000000    0.00014048
  632      -16.4197096418      -0.0000006037     1.000000    0.00014137
  633      -16.4197102525      -0.0000006107     1.000000    0.00014226
  634      -16.4197108703      -0.0000006178     1.000000    0.00014315
  635      -16.4197114954      -0.0000006250     1.000000    0.00014405
  636      -16.4197121277      -0.0000006323     1.000000    0.00014496
  637      -16.4197127673      -0.0000006397     1.000000    0.00014587
  638      -16.4197134145      -0.0000006471     1.000000    0.00014679
  639      -16.4197140691      -0.0000006547     1.000000    0.00014772
  640      -16.4197147314      -0.0000006623     1.000000    0.00014865
  641      -16.4197154015      -0.0000006701     1.000000    0.00014959
  642      -16.4197160794      -0.0000006779     1.000000    0.00015053
  643      -16.4197167652      -0.0000006858     1.000000    0.00015148
  644      -16.4197174591      -0.0000006938     1.000000    0.00015243
  645      -16.4197181610      -0.0000007020     1.000000    0.00015340
  646      -16.4197188712      -0.0000007102     1.000000    0.00015436
  647      -16.4197195897      -0.0000007185     1.000000    0.00015533
  648      -16.4197203166      -0.0000007269     1.000000    0.00015631
  649      -16.4197210520      -0.0000007354     1.000000    0.00015730
  650      -16.4197217960      -0.0000007440     1.000000    0.00015828
  651      -16.4197225488      -0.0000007527     1.000000    0.00015928
  652      -16.4197233103      -0.0000007615     1.000000    0.00016028
  653      -16.4197240808      -0.0000007705     1.000000    0.00016128
  654      -16.4197248602      -0.0000007795     1.000000    0.00016229
  655      -16.4197256488      -0.0000007886     1.000000    0.00016331
  656      -16.4197264466      -0.0000007978     1.000000    0.00016433
  657      -16.4197272537      -0.0000008071     1.000000    0.00016536
  658      -16.4197280702      -0.0000008165     1.000000    0.00016639
  659      -16.4197288963      -0.0000008260     1.000000    0.00016742
  660      -16.4197297319      -0.0000008357     1.000000    0.00016846
  661      -16.4197305773      -0.0000008454     1.000000    0.00016951
  662      -16.4197314325      -0.0000008552     1.000000    0.00017056
  663      -16.4197322976      -0.0000008651     1.000000    0.00017161
  664      -16.4197331728      -0.0000008751     1.000000    0.00017267
  665      -16.4197340580      -0.0000008853     1.000000    0.00017373
  666      -16.4197349535      -0.0000008955     1.000000    0.00017480
  667      -16.4197358594      -0.0000009058     1.000000    0.00017587
  668      -16.4197367756      -0.0000009163     1.000000    0.00017694
  669      -16.4197377024      -0.0000009268     1.000000    0.00017802
  670      -16.4197386398      -0.0000009374     1.000000    0.00017910
  671      -16.4197395879      -0.0000009481     1.000000    0.00018018
  672      -16.4197405469      -0.0000009590     1.000000    0.00018127
  673      -16.4197415168      -0.0000009699     1.000000    0.00018236
  674      -16.4197424977      -0.0000009809     1.000000    0.00018345
  675      -16.4197434897      -0.0000009920     1.000000    0.00018454
  676      -16.4197444929      -0.0000010032     1.000000    0.00018564
  677      -16.4197455074      -0.0000010145     1.000000    0.00018674
  678      -16.4197465333      -0.0000010259     1.000000    0.00018784
  679      -16.4197475706      -0.0000010374     1.000000    0.00018894
  680      -16.4197486196      -0.0000010489     1.000000    0.00019004
  681      -16.4197496801      -0.0000010606     1.000000    0.00019115
  682      -16.4197507525      -0.0000010723     1.000000    0.00019225
  683      -16.4197518366      -0.0000010841     1.000000    0.00019336
  684      -16.4197529326      -0.0000010960     1.000000    0.00019446
  685      -16.4197540406      -0.0000011080     1.000000    0.00019557
  686      -16.4197551607      -0.0000011201     1.000000    0.00019668
  687      -16.4197562929      -0.0000011322     1.000000    0.00019778
  688      -16.4197574372      -0.0000011444     1.000000    0.00019889
  689      -16.4197585939      -0.0000011566     1.000000    0.00019999
  690      -16.4197597629      -0.0000011690     1.000000    0.00020109
  691      -16.4197609443      -0.0000011814     1.000000    0.00020219
  692      -16.4197621381      -0.0000011938     1.000000    0.00020329
  693      -16.4197633444      -0.0000012063     1.000000    0.00020439
  694      -16.4197645633      -0.0000012189     1.000000    0.00020548
  695      -16.4197657948      -0.0000012315     1.000000    0.00020657
  696      -16.4197670390      -0.0000012442     1.000000    0.00020765
  697      -16.4197682959      -0.0000012569     1.000000    0.00020874
  698      -16.4197695655      -0.0000012696     1.000000    0.00020981
  699      -16.4197708478      -0.0000012824     1.000000    0.00021089
  700      -16.4197721430      -0.0000012952     1.000000    0.00021196
  701      -16.4197734510      -0.0000013080     1.000000    0.00021302
  702      -16.4197747718      -0.0000013208     1.000000    0.00021407
  703      -16.4197761055      -0.0000013337     1.000000    0.00021512
  704      -16.4197774520      -0.0000013465     1.000000    0.00021617
  705      -16.4197788114      -0.0000013594     1.000000    0.00021720
  706      -16.4197801837      -0.0000013722     1.000000    0.00021823
  707      -16.4197815688      -0.0000013851     1.000000    0.00021925
  708      -16.4197829667      -0.0000013979     1.000000    0.00022026
  709      -16.4197843774      -0.0000014107     1.000000    0.00022126
  710      -16.4197858010      -0.0000014235     1.000000    0.00022225
  711      -16.4197872373      -0.0000014363     1.000000    0.00022323
  712      -16.4197886862      -0.0000014490     1.000000    0.00022420
  713      -16.4197901479      -0.0000014617     1.000000    0.00022516
  714      -16.4197916222      -0.0000014743     1.000000    0.00022611
  715      -16.4197931090      -0.0000014868     1.000000    0.00022704
  716      -16.4197946083      -0.0000014993     1.000000    0.00022796
  717      -16.4197961200      -0.0000015117     1.000000    0.00022887
  718      -16.4197976440      -0.0000015240     1.000000    0.00022976
  719      -16.4197991802      -0.0000015362     1.000000    0.00023064
  720      -16.4198007285      -0.0000015483     1.000000    0.00023150
  721      -16.4198022889      -0.0000015603     1.000000    0.00023235
  722      -16.4198038611      -0.0000015722     1.000000    0.00023318
  723      -16.4198054450      -0.0000015840     1.000000    0.00023400
  724      -16.4198070406      -0.0000015956     1.000000    0.00023479
  725      -16.4198086477      -0.0000016071     1.000000    0.00023557
  726      -16.4198102661      -0.0000016184     1.000000    0.00023633
  727      -16.4198118956      -0.0000016295     1.000000    0.00023707
  728      -16.4198135361      -0.0000016405     1.000000    0.00023779
  729      -16.4198151874      -0.0000016513     1.000000    0.00023848
  730      -16.4198168493      -0.0000016619     1.000000    0.00023916
  731      -16.4198185216      -0.0000016723     1.000000    0.00023981
  732      -16.4198202040      -0.0000016825     1.000000    0.00024045
  733      -16.4198218965      -0.0000016924     1.000000    0.00024105
  734      -16.4198235986      -0.0000017021     1.000000    0.00024164
  735      -16.4198253102      -0.0000017116     1.000000    0.00024220
  736      -16.4198270310      -0.0000017208     1.000000    0.00024273
  737      -16.4198287607      -0.0000017298     1.000000    0.00024324
  738      -16.4198304992      -0.0000017384     1.000000    0.00024372
  739      -16.4198322460      -0.0000017468     1.000000    0.00024418
  740      -16.4198340009      -0.0000017549     1.000000    0.00024460
  741      -16.4198357636      -0.0000017627     1.000000    0.00024500
  742      -16.4198375337      -0.0000017701     1.000000    0.00024537
  743      -16.4198393110      -0.0000017773     1.000000    0.00024571
  744      -16.4198410951      -0.0000017841     1.000000    0.00024603
  745      -16.4198428856      -0.0000017905     1.000000    0.00024631
  746      -16.4198446822      -0.0000017966     1.000000    0.00024655
  747      -16.4198464845      -0.0000018023     1.000000    0.00024677
  748      -16.4198482922      -0.0000018077     1.000000    0.00024696
  749      -16.4198501048      -0.0000018126     1.000000    0.00024711
  750      -16.4198519220      -0.0000018172     1.000000    0.00024723
  751      -16.4198537434      -0.0000018214     1.000000    0.00024731
  752      -16.4198555685      -0.0000018251     1.000000    0.00024736
  753      -16.4198573969      -0.0000018284     1.000000    0.00024738
  754      -16.4198592282      -0.0000018313     1.000000    0.00024736
  755      -16.4198610619      -0.0000018337     1.000000    0.00024731
  756      -16.4198628977      -0.0000018357     1.000000    0.00024721
  757      -16.4198647350      -0.0000018373     1.000000    0.00024709
  758      -16.4198665734      -0.0000018384     1.000000    0.00024713
  759      -16.4198684124      -0.0000018390     1.000000    0.00024754
  760      -16.4198702515      -0.0000018391     1.000000    0.00024791
  761      -16.4198720903      -0.0000018388     1.000000    0.00024824
  762      -16.4198739283      -0.0000018380     1.000000    0.00024854
  763      -16.4198757650      -0.0000018367     1.000000    0.00024880
  764      -16.4198775999      -0.0000018349     1.000000    0.00024902
  765      -16.4198794324      -0.0000018326     1.000000    0.00024920
  766      -16.4198812622      -0.0000018298     1.000000    0.00024935
  767      -16.4198830886      -0.0000018265     1.000000    0.00024945
  768      -16.4198849113      -0.0000018226     1.000000    0.00024951
  769      -16.4198867296      -0.0000018183     1.000000    0.00024954
  770      -16.4198885431      -0.0000018135     1.000000    0.00024952
  771      -16.4198903512      -0.0000018081     1.000000    0.00024946
  772      -16.4198921535      -0.0000018023     1.000000    0.00024936
  773      -16.4198939494      -0.0000017959     1.000000    0.00024922
  774      -16.4198957385      -0.0000017890     1.000000    0.00024903
  775      -16.4198975201      -0.0000017817     1.000000    0.00024880
  776      -16.4198992939      -0.0000017738     1.000000    0.00024853
  777      -16.4199010593      -0.0000017654     1.000000    0.00024822
  778      -16.4199028158      -0.0000017565     1.000000    0.00024787
  779      -16.4199045630      -0.0000017471     1.000000    0.00024747
  780      -16.4199063002      -0.0000017373     1.000000    0.00024703
  781      -16.4199080271      -0.0000017269     1.000000    0.00024654
  782      -16.4199097432      -0.0000017161     1.000000    0.00024601
  783      -16.4199114480      -0.0000017048     1.000000    0.00024544
  784      -16.4199131411      -0.0000016930     1.000000    0.00024483
  785      -16.4199148219      -0.0000016808     1.000000    0.00024417
  786      -16.4199164900      -0.0000016682     1.000000    0.00024348
  787      -16.4199181451      -0.0000016551     1.000000    0.00024273
  788      -16.4199197866      -0.0000016415     1.000000    0.00024195
  789      -16.4199214142      -0.0000016276     1.000000    0.00024113
  790      -16.4199230274      -0.0000016132     1.000000    0.00024026
  791      -16.4199246259      -0.0000015985     1.000000    0.00023935
  792      -16.4199262093      -0.0000015833     1.000000    0.00023840
  793      -16.4199277771      -0.0000015678     1.000000    0.00023741
  794      -16.4199293291      -0.0000015520     1.000000    0.00023638
  795      -16.4199308648      -0.0000015358     1.000000    0.00023532
  796      -16.4199323840      -0.0000015192     1.000000    0.00023421
  797      -16.4199338864      -0.0000015023     1.000000    0.00023306
  798      -16.4199353715      -0.0000014852     1.000000    0.00023188
  799      -16.4199368393      -0.0000014677     1.000000    0.00023066
  800      -16.4199382892      -0.0000014500     1.000000    0.00022940
  801      -16.4199397212      -0.0000014320     1.000000    0.00022811
  802      -16.4199411349      -0.0000014137     1.000000    0.00022678
  803      -16.4199425301      -0.0000013952     1.000000    0.00022542
  804      -16.4199439066      -0.0000013765     1.000000    0.00022402
  805      -16.4199452643      -0.0000013576     1.000000    0.00022259
  806      -16.4199466028      -0.0000013385     1.000000    0.00022113
  807      -16.4199479221      -0.0000013193     1.000000    0.00021964
  808      -16.4199492219      -0.0000012999     1.000000    0.00021811
  809      -16.4199505023      -0.0000012803     1.000000    0.00021656
  810      -16.4199517629      -0.0000012607     1.000000    0.00021498
  811      -16.4199530038      -0.0000012409     1.000000    0.00021337
  812      -16.4199542248      -0.0000012210     1.000000    0.00021174
  813      -16.4199554259      -0.0000012011     1.000000    0.00021008
  814      -16.4199566069      -0.0000011811     1.000000    0.00020839
  815      -16.4199577679      -0.0000011610     1.000000    0.00020668
  816      -16.4199589089      -0.0000011409     1.000000    0.00020495
  817      -16.4199600297      -0.0000011208     1.000000    0.00020320
  818      -16.4199611305      -0.0000011008     1.000000    0.00020143
  819      -16.4199622112      -0.0000010807     1.000000    0.00019963
  820      -16.4199632718      -0.0000010606     1.000000    0.00019782
  821      -16.4199643124      -0.0000010406     1.000000    0.00019599
  822      -16.4199653331      -0.0000010207     1.000000    0.00019414
  823      -16.4199663339      -0.0000010008     1.000000    0.00019228
  824      -16.4199673149      -0.0000009810     1.000000    0.00019040
  825      -16.4199682761      -0.0000009613     1.000000    0.00018851
  826      -16.4199692178      -0.0000009417     1.000000    0.00018661
  827      -16.4199701400      -0.0000009222     1.000000    0.00018469
  828      -16.4199710429      -0.0000009028     1.000000    0.00018276
  829      -16.4199719265      -0.0000008836     1.000000    0.00018083
  830      -16.4199727910      -0.0000008646     1.000000    0.00017888
  831      -16.4199736367      -0.0000008457     1.000000    0.00017693
  832      -16.4199744636      -0.0000008269     1.000000    0.00017497
  833      -16.4199752720      -0.0000008084     1.000000    0.00017301
  834      -16.4199760620      -0.0000007900     1.000000    0.00017104
  835      -16.4199768338      -0.0000007718     1.000000    0.00016907
  836      -16.4199775876      -0.0000007538     1.000000    0.00016709
  837      -16.4199783237      -0.0000007361     1.000000    0.00016511
  838      -16.4199790422      -0.0000007185     1.000000    0.00016313
  839      -16.4199797434      -0.0000007012     1.000000    0.00016115
  840      -16.4199804276      -0.0000006841     1.000000    0.00015917
  841      -16.4199810948      -0.0000006673     1.000000    0.00015720
  842      -16.4199817455      -0.0000006506     1.000000    0.00015522
  843      -16.4199823798      -0.0000006343     1.000000    0.00015325
  844      -16.4199829979      -0.0000006182     1.000000    0.00015128
  845      -16.4199836002      -0.0000006023     1.000000    0.00014931
  846      -16.4199841868      -0.0000005867     1.000000    0.00014736
  847      -16.4199847582      -0.0000005713     1.000000    0.00014540
  848      -16.4199853144      -0.0000005562     1.000000    0.00014346
  849      -16.4199858557      -0.0000005414     1.000000    0.00014152
  850      -16.4199863825      -0.0000005268     1.000000    0.00013959
  851      -16.4199868951      -0.0000005125     1.000000    0.00013766
  852      -16.4199873935      -0.0000004985     1.000000    0.00013575
  853      -16.4199878782      -0.0000004847     1.000000    0.00013385
  854      -16.4199883495      -0.0000004712     1.000000    0.00013195
  855      -16.4199888074      -0.0000004580     1.000000    0.00013007
  856      -16.4199892525      -0.0000004450     1.000000    0.00012820
  857      -16.4199896848      -0.0000004323     1.000000    0.00012634
  858      -16.4199901047      -0.0000004199     1.000000    0.00012449
  859      -16.4199905125      -0.0000004078     1.000000    0.00012266
  860      -16.4199909084      -0.0000003959     1.000000    0.00012084
  861      -16.4199912926      -0.0000003843     1.000000    0.00011903
  862      -16.4199916655      -0.0000003729     1.000000    0.00011724
  863      -16.4199920273      -0.0000003618     1.000000    0.00011546
  864      -16.4199923782      -0.0000003509     1.000000    0.00011370
  865      -16.4199927186      -0.0000003403     1.000000    0.00011195
  866      -16.4199930486      -0.0000003300     1.000000    0.00011022
  867      -16.4199933685      -0.0000003199     1.000000    0.00010850
  868      -16.4199936786      -0.0000003101     1.000000    0.00010680
  869      -16.4199939791      -0.0000003005     1.000000    0.00010512
  870      -16.4199942703      -0.0000002911     1.000000    0.00010345
  871      -16.4199945523      -0.0000002820     1.000000    0.00010180
  872      -16.4199948254      -0.0000002732     1.000000    0.00010016
  873      -16.4199950899      -0.0000002645     1.000000    0.00009855
  874      -16.4199953460      -0.0000002561     1.000000    0.00009695
  875      -16.4199955939      -0.0000002479     1.000000    0.00009536
  876      -16.4199958338      -0.0000002399     1.000000    0.00009380
  877      -16.4199960660      -0.0000002322     1.000000    0.00009225
  878      -16.4199962906      -0.0000002246     1.000000    0.00009072
  879      -16.4199965079      -0.0000002173     1.000000    0.00008921
  880      -16.4199967180      -0.0000002101     1.000000    0.00008772
  881      -16.4199969213      -0.0000002032     1.000000    0.00008624
  882      -16.4199971177      -0.0000001965     1.000000    0.00008479
  883      -16.4199973077      -0.0000001900     1.000000    0.00008335
  884      -16.4199974913      -0.0000001836     1.000000    0.00008193
  885      -16.4199976687      -0.0000001774     1.000000    0.00008052
  886      -16.4199978402      -0.0000001715     1.000000    0.00007914
  887      -16.4199980059      -0.0000001657     1.000000    0.00007777
  888      -16.4199981659      -0.0000001600     1.000000    0.00007642
  889      -16.4199983204      -0.0000001546     1.000000    0.00007509
  890      -16.4199984697      -0.0000001493     1.000000    0.00007378
  891      -16.4199986139      -0.0000001441     1.000000    0.00007249
  892      -16.4199987530      -0.0000001392     1.000000    0.00007121
  893      -16.4199988874      -0.0000001343     1.000000    0.00006995
  894      -16.4199990170      -0.0000001297     1.000000    0.00006871
  895      -16.4199991422      -0.0000001251     1.000000    0.00006749
  896      -16.4199992630      -0.0000001208     1.000000    0.00006629
  897      -16.4199993795      -0.0000001165     1.000000    0.00006510
  898      -16.4199994919      -0.0000001124     1.000000    0.00006393
  899      -16.4199996003      -0.0000001084     1.000000    0.00006278
  900      -16.4199997049      -0.0000001046     1.000000    0.00006164
  901      -16.4199998058      -0.0000001009     1.000000    0.00006052
  902      -16.4199999031      -0.0000000973     1.000000    0.00005942
  903      -16.4199999969      -0.0000000938     1.000000    0.00005834
  904      -16.4200000873      -0.0000000904     1.000000    0.00005727
  905      -16.4200001745      -0.0000000872     1.000000    0.00005622
  906      -16.4200002585      -0.0000000840     1.000000    0.00005519
  907      -16.4200003395      -0.0000000810     1.000000    0.00005417
  908      -16.4200004175      -0.0000000780     1.000000    0.00005317
  909      -16.4200004927      -0.0000000752     1.000000    0.00005218
  910      -16.4200005652      -0.0000000725     1.000000    0.00005121
  911      -16.4200006350      -0.0000000698     1.000000    0.00005026
  912      -16.4200007022      -0.0000000672     1.000000    0.00004932
  913      -16.4200007670      -0.0000000648     1.000000    0.00004840
  914      -16.4200008294      -0.0000000624     1.000000    0.00004749
  915      -16.4200008895      -0.0000000601     1.000000    0.00004660
  916      -16.4200009474      -0.0000000579     1.000000    0.00004572
  917      -16.4200010031      -0.0000000557     1.000000    0.00004486
  918      -16.4200010567      -0.0000000536     1.000000    0.00004401
  919      -16.4200011084      -0.0000000516     1.000000    0.00004317
  920      -16.4200011581      -0.0000000497     1.000000    0.00004235
  921      -16.4200012059      -0.0000000479     1.000000    0.00004155
  922      -16.4200012520      -0.0000000461     1.000000    0.00004076
  923      -16.4200012963      -0.0000000443     1.000000    0.00003998
  924      -16.4200013390      -0.0000000427     1.000000    0.00003921
  925      -16.4200013801      -0.0000000411     1.000000    0.00003846
  926      -16.4200014196      -0.0000000395     1.000000    0.00003772
  927      -16.4200014576      -0.0000000380     1.000000    0.00003700
  928      -16.4200014942      -0.0000000366     1.000000    0.00003628
  929      -16.4200015293      -0.0000000352     1.000000    0.00003558
  930      -16.4200015632      -0.0000000338     1.000000    0.00003490
  931      -16.4200015957      -0.0000000326     1.000000    0.00003422
  932      -16.4200016271      -0.0000000313     1.000000    0.00003356
  933      -16.4200016572      -0.0000000301     1.000000    0.00003290
  934      -16.4200016861      -0.0000000290     1.000000    0.00003226
  935      -16.4200017140      -0.0000000279     1.000000    0.00003164
  936      -16.4200017408      -0.0000000268     1.000000    0.00003102
  937      -16.4200017665      -0.0000000258     1.000000    0.00003041
  938      -16.4200017913      -0.0000000248     1.000000    0.00002982
  939      -16.4200018151      -0.0000000238     1.000000    0.00002923
  940      -16.4200018380      -0.0000000229     1.000000    0.00002866
  941      -16.4200018600      -0.0000000220     1.000000    0.00002810
  942      -16.4200018811      -0.0000000212     1.000000    0.00002755
  943      -16.4200019015      -0.0000000203     1.000000    0.00002700
  944      -16.4200019210      -0.0000000195     1.000000    0.00002647
  945      -16.4200019398      -0.0000000188     1.000000    0.00002595
  946      -16.4200019579      -0.0000000181     1.000000    0.00002544
  947      -16.4200019752      -0.0000000174     1.000000    0.00002493
  948      -16.4200019919      -0.0000000167     1.000000    0.00002444
  949      -16.4200020079      -0.0000000160     1.000000    0.00002396
  950      -16.4200020233      -0.0000000154     1.000000    0.00002348
  951      -16.4200020381      -0.0000000148     1.000000    0.00002302
  952      -16.4200020523      -0.0000000142     1.000000    0.00002256
  953      -16.4200020660      -0.0000000137     1.000000    0.00002211
  954      -16.4200020791      -0.0000000131     1.000000    0.00002167
  955      -16.4200020917      -0.0000000126     1.000000    0.00002124
  956      -16.4200021038      -0.0000000121     1.000000    0.00002081
  957      -16.4200021154      -0.0000000116     1.000000    0.00002040
  958      -16.4200021266      -0.0000000112     1.000000    0.00001999
  959      -16.4200021373      -0.0000000107     1.000000    0.00001959
  960      -16.4200021477      -0.0000000103     1.000000    0.00001920
  961      -16.4200021576      -0.0000000099     1.000000    0.00001881
  962      -16.4200021671      -0.0000000095     1.000000    0.00001844
  963      -16.4200021762      -0.0000000091     1.000000    0.00001807
  964      -16.4200021850      -0.0000000088     1.000000    0.00001770
  965      -16.4200021934      -0.0000000084     1.000000    0.00001735
  966      -16.4200022015      -0.0000000081     1.000000    0.00001700
  967      -16.4200022093      -0.0000000078     1.000000    0.00001666
  968      -16.4200022167      -0.0000000075     1.000000    0.00001632
  969      -16.4200022239      -0.0000000072     1.000000    0.00001599
  970      -16.4200022308      -0.0000000069     1.000000    0.00001567
  971      -16.4200022374      -0.0000000066     1.000000    0.00001535
  972      -16.4200022437      -0.0000000063     1.000000    0.00001504
  973      -16.4200022498      -0.0000000061     1.000000    0.00001474
  974      -16.4200022557      -0.0000000058     1.000000    0.00001444
  975      -16.4200022613      -0.0000000056     1.000000    0.00001415
  976      -16.4200022667      -0.0000000054     1.000000    0.00001386
  977      -16.4200022718      -0.0000000052     1.000000    0.00001358
  978      -16.4200022768      -0.0000000050     1.000000    0.00001331
  979      -16.4200022816      -0.0000000048     1.000000    0.00001304
  980      -16.4200022862      -0.0000000046     1.000000    0.00001277
  981      -16.4200022906      -0.0000000044     1.000000    0.00001251
  982      -16.4200022948      -0.0000000042     1.000000    0.00001226
  983      -16.4200022988      -0.0000000040     1.000000    0.00001201
  984      -16.4200023027      -0.0000000039     1.000000    0.00001177
  985      -16.4200023064      -0.0000000037     1.000000    0.00001153
  986      -16.4200023100      -0.0000000036     1.000000    0.00001129
  987      -16.4200023135      -0.0000000034     1.000000    0.00001106
  988      -16.4200023167      -0.0000000033     1.000000    0.00001084
  989      -16.4200023199      -0.0000000032     1.000000    0.00001062
  990      -16.4200023230      -0.0000000030     1.000000    0.00001040
  991      -16.4200023259      -0.0000000029     1.000000    0.00001019
  992      -16.4200023287      -0.0000000028     1.000000    0.00000998
  993      -16.4200023314      -0.0000000027     1.000000    0.00000978
  994      -16.4200023339      -0.0000000026     1.000000    0.00000958
  995      -16.4200023364      -0.0000000025     1.000000    0.00000938
  996      -16.4200023388      -0.0000000024     1.000000    0.00000919
  997      -16.4200023411      -0.0000000023     1.000000    0.00000900
  998      -16.4200023432      -0.0000000022     1.000000    0.00000882
  999      -16.4200023453      -0.0000000021     1.000000    0.00000864
 1000      -16.4200023473      -0.0000000020     1.000000    0.00000846

Total Energy:                      -16.4200023473 H         -446.8110 eV
Extrapolated to 0:                 -16.3678428035 H         -445.3917 eV

----------------------------------------------------------------------------------
 Solving CP-REKS equation for  1 state vector...
----------------------------------------------------------------------------------
  CG solver: Constructing Y initial guess
  CG solver: Iteration    1    eps =    0.143510162520
  CG solver: Iteration    2    eps =    0.015951735243
  CG solver: Iteration    3    eps =    0.004311002491
  CG solver: Iteration    4    eps =    0.009578698031
  CG solver: Iteration    5    eps =    0.017203872420
  CG solver: Iteration    6    eps =    0.003087063735
  CG solver: Iteration    7    eps =    0.001043547970
  CG solver: Iteration    8    eps =    0.000084586861
  CG solver: Iteration    9    eps =    0.000028857163
  CG solver: Iteration   10    eps =    0.000006388689
  CG solver: Iteration   11    eps =    0.000001078529
  CG solver: Iteration   12    eps =    0.000000227116
  CG solver: Iteration   13    eps =    0.000000027200
  CG solver: Iteration   14    eps =    0.000000003188
  Convergence reached in CG solver after   14 iterations
  CG solver: Calculating converged R, Z, Q2 matrix
----------------------------------------------------------------------------------

----------------------------------------------------------------------------------
 Solving CP-REKS equation for SI between  1 and  2 state vectors...
----------------------------------------------------------------------------------
  CG solver: Constructing Y initial guess
  CG solver: Iteration    1    eps =    0.009372875321
  CG solver: Iteration    2    eps =    0.000785719085
  CG solver: Iteration    3    eps =    0.000125587775
  CG solver: Iteration    4    eps =    0.000512080698
  CG solver: Iteration    5    eps =    0.000235887601
  CG solver: Iteration    6    eps =    0.000188197151
  CG solver: Iteration    7    eps =    0.000066314064
  CG solver: Iteration    8    eps =    0.000011800317
  CG solver: Iteration    9    eps =    0.000002915706
  CG solver: Iteration   10    eps =    0.000000495654
  CG solver: Iteration   11    eps =    0.000000096341
  CG solver: Iteration   12    eps =    0.000000010975
  CG solver: Iteration   13    eps =    0.000000000915
  Convergence reached in CG solver after   13 iterations
  CG solver: Calculating converged R, Z, Q2 matrix
----------------------------------------------------------------------------------

--------------------------------------------------
 Gradient Information
--------------------------------------------------
           1 st state (SSR)
     0.00000000     0.00000000     0.00000000
     0.00000000     0.00000000     0.00000000
     0.00000000     0.00000000     0.00000000
     0.00000000     0.00000000     0.00000000
     0.00000000     0.00000000     0.00000000
     0.00000000     0.00000000     0.00000000
     0.00000000     0.00000000     0.00000000
     0.00000000     0.00000000     0.00000000
     0.00000000     0.00000000     0.00000000
     0.00000000     0.00000000     0.00000000
     0.00000000     0.00000000     0.00000000
     0.00000000     0.00000000     0.00000000
     0.00000000     0.00000000     0.00000000
     0.00000000     0.00000000     0.00000000

           2 st state (SSR)
     0.00000000     0.00000000     0.00000000
     0.00000000     0.00000000     0.00000000
     0.00000000     0.00000000     0.00000000
     0.00000000     0.00000000     0.00000000
     0.00000000     0.00000000     0.00000000
     0.00000000     0.00000000     0.00000000
     0.00000000     0.00000000     0.00000000
     0.00000000     0.00000000     0.00000000
     0.00000000     0.00000000     0.00000000
     0.00000000     0.00000000     0.00000000
     0.00000000     0.00000000     0.00000000
     0.00000000     0.00000000     0.00000000
     0.00000000     0.00000000     0.00000000
     0.00000000     0.00000000     0.00000000
--------------------------------------------------
 Coupling Information
--------------------------------------------------
 between  1 and  2 states
--------------------------------------------------
 g vector - difference gradient
     0.04683075    -0.06019795     0.02764242
    -0.07618494    -0.21003937     0.08685240
    -0.01271672     0.27380328     0.15301981
     0.06229309    -0.10588488    -0.13927988
     0.01859660    -0.12020964    -0.19272964
    -0.18928969    -0.02388036    -0.08474973
     0.29383254     0.12628583    -0.08095509
    -0.07167215     0.00489364     0.07019036
    -0.08547529     0.13627314     0.07532272
    -0.22290764    -0.08690178     0.07328990
     0.03068647    -0.05361579    -0.01409324
     0.19050846     0.06496023     0.03316126
     0.03895603     0.00165525    -0.00910926
    -0.02345751     0.05285839     0.00143798

 h vector - derivative coupling
    -0.01290734    -0.01140052     0.01894616
     0.01655420     0.01410508    -0.01475350
    -0.00078135    -0.00426601    -0.00227291
    -0.00063771     0.00261047     0.00173291
     0.00189012    -0.00464060    -0.00573429
    -0.00026111     0.00871367     0.01388514
     0.00775387    -0.00831297    -0.00831661
    -0.00333597     0.00324367    -0.00748425
    -0.00253828     0.00275329    -0.00421397
    -0.00546395    -0.00378392     0.01069468
    -0.00004463    -0.00014884     0.00001720
     0.00021051     0.00087260    -0.00231225
    -0.00059118     0.00084115     0.00008313
     0.00015281    -0.00058707    -0.00027144

 G vector - GDV
     0.00000000     0.00000000     0.00000000
     0.00000000     0.00000000     0.00000000
     0.00000000     0.00000000     0.00000000
     0.00000000     0.00000000     0.00000000
     0.00000000     0.00000000     0.00000000
     0.00000000     0.00000000     0.00000000
     0.00000000     0.00000000     0.00000000
     0.00000000     0.00000000     0.00000000
     0.00000000     0.00000000     0.00000000
     0.00000000     0.00000000     0.00000000
     0.00000000     0.00000000     0.00000000
     0.00000000     0.00000000     0.00000000
     0.00000000     0.00000000     0.00000000
     0.00000000     0.00000000     0.00000000

 H vector - DCV - non-adiabatic coupling
     0.00000000     0.00000000     0.00000000
     0.00000000     0.00000000     0.00000000
     0.00000000     0.00000000     0.00000000
     0.00000000     0.00000000     0.00000000
     0.00000000     0.00000000     0.00000000
     0.00000000     0.00000000     0.00000000
     0.00000000     0.00000000     0.00000000
     0.00000000     0.00000000     0.00000000
     0.00000000     0.00000000     0.00000000
     0.00000000     0.00000000     0.00000000
     0.00000000     0.00000000     0.00000000
     0.00000000     0.00000000     0.00000000
     0.00000000     0.00000000     0.00000000
     0.00000000     0.00000000     0.00000000
--------------------------------------------------

WARNING!
-> SCC is NOT converged, maximal SCC iterations exceeded

--------------------------------------------------------------------------------
DFTB+ running times                          cpu [s]             wall clock [s]
--------------------------------------------------------------------------------
SCC                                    +     1.36  ( 79.9%)      1.36  ( 79.7%)
      Sparse to dense                        0.07  (  4.0%)      0.06  (  3.7%)
      Dense to sparse                        0.23  ( 13.7%)      0.25  ( 14.5%)
      Range separated Hamiltonian            0.12  (  7.3%)      0.12  (  7.3%)
  Density matrix creation                    0.15  (  8.7%)      0.15  (  8.7%)
  Force calculation                          0.34  ( 20.1%)      0.34  ( 20.0%)
--------------------------------------------------------------------------------
Missing                                +     0.34  ( 20.1%)      0.35  ( 20.3%)
Total                                  =     1.70  (100.0%)      1.71  (100.0%)
--------------------------------------------------------------------------------
