    14
  Step:   600            Position(A)                                  Velocity(au)
C        -4.58348949    -0.80617028    -0.92829281    -0.00030177    -0.00000073     0.00049164
C        -4.55791272     0.34834616    -0.20111405     0.00061116     0.00021732    -0.00065247
H        -4.18232353    -1.70832215    -0.41775974    -0.00199810     0.00114063     0.00300509
H        -5.00206610    -0.99991668    -1.91755476    -0.00152021    -0.00369839     0.00092579
H        -4.89799357     1.29035313    -0.52795227     0.00164343     0.00017901     0.00056949
C        -3.90494210     0.16549671     1.18350952    -0.00001553     0.00021949    -0.00054768
C        -2.51375232     0.34508004     1.18117431     0.00023263    -0.00048226    -0.00028601
H        -4.52942679     0.16728273     2.07293182    -0.00008155     0.00016386    -0.00007998
H        -1.80709359    -0.17791247     1.90017654     0.00017269    -0.00249780    -0.00365319
C        -1.85657516     0.80308697    -0.07805551     0.00027799     0.00048364     0.00065566
H        -1.36723489     0.25006789    -0.83091691    -0.00085725    -0.00001911    -0.00004065
N        -1.90124369     2.04990883    -0.53699458    -0.00042975     0.00018926     0.00022713
H        -1.77546401     2.33997679    -1.47753682     0.00127206    -0.00113872     0.00181066
H        -2.45302371     2.79472094    -0.11552366    -0.00224512    -0.00197234    -0.00165574
