    14
  Step:     0            Position(A)                                  Velocity(au)
C        -6.03742049    -0.78452439    -0.10398033    -0.00006011    -0.00008236     0.00003178
C        -4.67141980    -0.76764229     0.10377816     0.00024844    -0.00001691     0.00000820
H        -6.39852637     0.11619164    -0.55423396     0.00071522    -0.00066073    -0.00018168
H        -6.65485814    -1.71003473    -0.06481912     0.00045382    -0.00043174    -0.00050204
H        -4.09280738    -1.61546699     0.50675513     0.00048096    -0.00129097     0.00018729
C        -3.92866178     0.43500216    -0.07326465    -0.00041855     0.00026316    -0.00002353
C        -2.56084673     0.58000754     0.21890362    -0.00021389     0.00003156     0.00008358
H        -4.40353828     1.39110917    -0.36396433    -0.00014163     0.00121597     0.00065711
H        -2.00523191    -0.32808645     0.37890406     0.00114102    -0.00026156     0.00018584
C        -1.81336120     1.75747915     0.08519080    -0.00015757     0.00018646    -0.00021536
H        -2.34234807     2.71319035    -0.19576177    -0.00006670     0.00109355     0.00002211
N        -0.53841635     1.73451578     0.14890688     0.00025022    -0.00027168    -0.00004740
H         0.02687235     2.62117905     0.16072448     0.00021413    -0.00172943     0.00080887
H        -0.07628454     0.80793044     0.32873649     0.00089574     0.00128939     0.00085537
    14
  Step:     1            Position(A)                                  Velocity(au)
C        -6.03813371    -0.78554305    -0.10371137    -0.00006740    -0.00010573     0.00001834
C        -4.66848391    -0.76773079     0.10394974     0.00028718    -0.00000156     0.00002375
H        -6.39189261     0.10949476    -0.55630859     0.00048543    -0.00054201    -0.00020862
H        -6.64947087    -1.71381185    -0.07006210     0.00052617    -0.00026041    -0.00045505
H        -4.08811302    -1.62956478     0.50849066     0.00036181    -0.00124984     0.00011493
C        -3.93370627     0.43787022    -0.07356912    -0.00050167     0.00026145    -0.00003136
C        -2.56279065     0.58036179     0.21984717    -0.00013998     0.00003227     0.00008867
H        -4.40553137     1.40359646    -0.35694808    -0.00021947     0.00104941     0.00062938
H        -1.99226237    -0.33147872     0.38123905     0.00120028    -0.00032529     0.00023452
C        -1.81575244     1.75958318     0.08275652    -0.00027513     0.00019786    -0.00022921
H        -2.34226338     2.72418379    -0.19494105     0.00008902     0.00089948     0.00012956
N        -0.53507099     1.73156303     0.14844870     0.00035396    -0.00026848    -0.00003693
H         0.02846042     2.60051876     0.16947753     0.00010608    -0.00198539     0.00078925
H        -0.06685390     0.82383035     0.33790176     0.00083763     0.00156559     0.00082596
    14
  Step:     2            Position(A)                                  Velocity(au)
C        -6.03889493    -0.78683743    -0.10357920    -0.00006892    -0.00013158     0.00000647
C        -4.66513729    -0.76767640     0.10429780     0.00032291     0.00000972     0.00004012
H        -6.38790661     0.10433415    -0.55879794     0.00023608    -0.00038845    -0.00025326
H        -6.64334718    -1.71573172    -0.07477413     0.00058506    -0.00009837    -0.00040496
H        -4.08489208    -1.64280967     0.50926949     0.00021665    -0.00114104     0.00001582
C        -3.93963683     0.44072196    -0.07395078    -0.00057983     0.00025976    -0.00003739
C        -2.56390911     0.58071355     0.22084348    -0.00006379     0.00003120     0.00009308
H        -4.40833952     1.41406704    -0.35019555    -0.00029231     0.00085211     0.00060741
H        -1.97897351    -0.33520286     0.38403468     0.00120055    -0.00032402     0.00027017
C        -1.81938029     1.76180775     0.08017640    -0.00038135     0.00020784    -0.00024170
H        -2.34040052     2.73286829    -0.19292742     0.00025268     0.00067979     0.00023754
N        -0.53067288     1.72864228     0.14809899     0.00043993    -0.00026598    -0.00002804
H         0.02919313     2.57774487     0.17799084     0.00006907    -0.00209891     0.00076637
H        -0.05795982     0.84218076     0.34680598     0.00080573     0.00172337     0.00081171
    14
  Step:     3            Position(A)                                  Velocity(au)
C        -6.03964145    -0.78842151    -0.10356982    -0.00006491    -0.00015735    -0.00000452
C        -4.66141963    -0.76751813     0.10482746     0.00035446     0.00001798     0.00005661
H        -6.38672795     0.10099665    -0.56184921    -0.00002217    -0.00021929    -0.00030591
H        -6.63667160    -1.71596388    -0.07892147     0.00062398     0.00004218    -0.00035189
H        -4.08337334    -1.65452711     0.50883681     0.00005588    -0.00097739    -0.00010288
C        -3.94639107     0.44355293    -0.07438699    -0.00065153     0.00025725    -0.00004110
C        -2.56418610     0.58104441     0.22188337     0.00001288     0.00002872     0.00009646
H        -4.41192623     1.42223797    -0.34365984    -0.00036360     0.00063428     0.00058829
H        -1.96599801    -0.33856722     0.38714957     0.00114607    -0.00026381     0.00029351
C        -1.82409515     1.76412999     0.07746891    -0.00047215     0.00021508    -0.00025220
H        -2.33673554     2.73905544    -0.18974451     0.00041303     0.00045129     0.00034077
N        -0.52544664     1.72574417     0.14783538     0.00050346    -0.00026440    -0.00002164
H         0.02997151     2.55460113     0.18624328     0.00012224    -0.00204200     0.00074321
H        -0.04922696     0.86153230     0.35565954     0.00081453     0.00173909     0.00082044
    14
  Step:     4            Position(A)                                  Velocity(au)
C        -6.04031496    -0.79027978    -0.10367799    -0.00005587    -0.00018038    -0.00001545
C        -4.65738288    -0.76728304     0.10553621     0.00038074     0.00002428     0.00007254
H        -6.38839155     0.09953668    -0.56549036    -0.00027783    -0.00005611    -0.00035529
H        -6.62969643    -1.71480906    -0.08247241     0.00063727     0.00014985    -0.00029611
H        -4.08366958    -1.66419205     0.50701869    -0.00011002    -0.00077297    -0.00023378
C        -3.95389039     0.44634987    -0.07485002    -0.00071527     0.00025320    -0.00004208
C        -2.56362725     0.58134178     0.22295364     0.00008790     0.00002539     0.00009843
H        -4.41629398     1.42794322    -0.33732549    -0.00043690     0.00040687     0.00056924
H        -1.95390098    -0.34097419     0.39045570     0.00104432    -0.00015476     0.00030604
C        -1.82970958     1.76651306     0.07465900    -0.00054470     0.00021839    -0.00026016
H        -2.33136468     2.74274113    -0.18547242     0.00055934     0.00023094     0.00043419
N        -0.51965872     1.72285805     0.14762562     0.00054201    -0.00026365    -0.00001851
H         0.03186730     2.53307231     0.19425004     0.00027416    -0.00180364     0.00072296
H        -0.04014040     0.88022677     0.36475470     0.00087299     0.00160172     0.00085824
    14
  Step:     5            Position(A)                                  Velocity(au)
C        -6.04086368    -0.79236776    -0.10390782    -0.00004243    -0.00019824    -0.00002713
C        -4.65309012    -0.76698685     0.10641444     0.00040078     0.00002960     0.00008730
H        -6.39280590     0.09976908    -0.56962190    -0.00051988     0.00008058    -0.00039039
H        -6.62273003    -1.71268560    -0.08539936     0.00062065     0.00021510    -0.00023802
H        -4.08578015    -1.67143741     0.50372245    -0.00027092    -0.00054239    -0.00036955
C        -3.96203895     0.44909214    -0.07530762    -0.00076942     0.00024702    -0.00003994
C        -2.56226317     0.58159992     0.22403676     0.00015888     0.00002183     0.00009861
H        -4.42148426     1.43113907    -0.33120662    -0.00051572     0.00018112     0.00054769
H        -1.94315151    -0.34195282     0.39384477     0.00090475    -0.00000910     0.00030977
C        -1.83601148     1.76890759     0.07177732    -0.00059730     0.00021669    -0.00026511
H        -2.32449890     2.74410771    -0.18024587     0.00068146     0.00003585     0.00051294
N        -0.51358922     1.71997624     0.14743042     0.00055594    -0.00026318    -0.00001903
H         0.03596935     2.51514296     0.20205933     0.00051629    -0.00139915     0.00070776
H        -0.03012861     0.89657299     0.37443523     0.00098056     0.00131910     0.00092722
    14
  Step:     6            Position(A)                                  Velocity(au)
C        -6.04124329    -0.79461659    -0.10427159    -0.00002529    -0.00020906    -0.00004020
C        -4.64861515    -0.76663550     0.10744604     0.00041358     0.00003476     0.00010031
H        -6.39976488     0.10129963    -0.57403092    -0.00073891     0.00017446    -0.00040224
H        -6.61611852    -1.71010327    -0.08767957     0.00057184     0.00023143    -0.00017809
H        -4.08959643    -1.67605788     0.49893417    -0.00041721    -0.00030060    -0.00050310
C        -3.97072290     0.45175384    -0.07572387    -0.00081239     0.00023832    -0.00003440
C        -2.56015151     0.58181924     0.22511092     0.00022336     0.00001854     0.00009663
H        -4.42757642     1.43190551    -0.32534375    -0.00060337    -0.00003182     0.00052137
H        -1.93410792    -0.34117330     0.39723245     0.00073786     0.00015992     0.00030696
C        -1.84277666     1.77125356     0.06885918    -0.00062931     0.00020913    -0.00026668
H        -2.31645637     2.74352547    -0.17425083     0.00077018    -0.00011710     0.00057264
N        -0.50749645     1.71710046     0.14720934     0.00054885    -0.00026187    -0.00002291
H         0.04316215     2.50246317     0.20973356     0.00081938    -0.00087450     0.00069742
H        -0.01868873     0.90908455     0.38503931     0.00112423     0.00092162     0.00102328
    14
  Step:     7            Position(A)                                  Velocity(au)
C        -6.04141698    -0.79694141    -0.10478717    -0.00000514    -0.00021188    -0.00005500
C        -4.64404236    -0.76622647     0.10860898     0.00041821     0.00004050     0.00011106
H        -6.40897088     0.10358582    -0.57842158    -0.00092786     0.00021539    -0.00038511
H        -6.61021982    -1.70762260    -0.08929549     0.00049126     0.00019662    -0.00011675
H        -4.09490742    -1.67801371     0.49271625    -0.00053975    -0.00006297    -0.00062757
C        -3.97981155     0.45430575    -0.07606025    -0.00084282     0.00022686    -0.00002528
C        -2.55737667     0.58200562     0.22615062     0.00027908     0.00001606     0.00009219
H        -4.43468414     1.43044305    -0.31980057    -0.00070277    -0.00022127     0.00048838
H        -1.92700934    -0.33845423     0.40056007     0.00055469     0.00033866     0.00030003
C        -1.84977887     1.77348262     0.06594320    -0.00064094     0.00019503    -0.00026464
H        -2.30764963     2.74154583    -0.16771818     0.00081778    -0.00021224     0.00060966
N        -0.50158208     1.71424722     0.14692918     0.00052707    -0.00025831    -0.00002911
H         0.05389479     2.49601149     0.21731674     0.00113656    -0.00030095     0.00068866
H        -0.00553388     0.91673510     0.39682148     0.00127873     0.00045997     0.00113527
    14
  Step:     8            Position(A)                                  Velocity(au)
C        -6.04135580    -0.79925181    -0.10547480     0.00001724    -0.00020670    -0.00007162
C        -4.63946611    -0.76574952     0.10987577     0.00041383     0.00004753     0.00011907
H        -6.42006364     0.10601161    -0.58245592    -0.00108237     0.00019996    -0.00033694
H        -6.60537128    -1.70580185    -0.09023379     0.00038255     0.00011384    -0.00005438
H        -4.10140451    -1.67743539     0.48520488    -0.00062988     0.00015480    -0.00073636
C        -3.98916118     0.45671681    -0.07627698    -0.00085977     0.00021254    -0.00001254
C        -2.55404608     0.58217048     0.22712779     0.00032416     0.00001490     0.00008513
H        -4.44295079     1.42706481    -0.31465945    -0.00081622    -0.00037772     0.00044723
H        -1.92197307    -0.33376451     0.40379612     0.00036638     0.00051335     0.00029145
C        -1.85679837     1.77552022     0.06306969    -0.00063306     0.00017402    -0.00025892
H        -2.29856591     2.73888239    -0.16091339     0.00081893    -0.00023694     0.00062159
N        -0.49596586     1.71144932     0.14657243     0.00049835    -0.00025122    -0.00003595
H         0.06802649     2.49587940     0.22479930     0.00141373     0.00024066     0.00067561
H         0.00928583     0.91914724     0.40987557     0.00141103    -0.00000404     0.00124630
    14
  Step:     9            Position(A)                                  Velocity(au)
C        -6.04103986    -0.80146326    -0.10635397     0.00004094    -0.00019451    -0.00008988
C        -4.63498915    -0.76518662     0.11121383     0.00039977     0.00005656     0.00012390
H        -6.43264990     0.10796024    -0.58579274    -0.00120058     0.00013072    -0.00025886
H        -6.60185073    -1.70513222    -0.09048508     0.00025292    -0.00000783     0.00000869
H        -4.10868730    -1.67462716     0.47660701    -0.00067966     0.00033696    -0.00082328
C        -3.99862061     0.45895542    -0.07633457    -0.00086284     0.00019539     0.00000373
C        -2.55028499     0.58233161     0.22801293     0.00035725     0.00001571     0.00007535
H        -4.45254053     1.42217969    -0.31001649    -0.00094503    -0.00049370     0.00039701
H        -1.91899410    -0.32722383     0.40693614     0.00018404     0.00067023     0.00028373
C        -1.86362838     1.77728957     0.06027876    -0.00060714     0.00014616    -0.00024966
H        -2.28973402     2.73636240    -0.15411964     0.00077188    -0.00018443     0.00060786
N        -0.49067970     1.70875124     0.14614262     0.00047010    -0.00023993    -0.00004152
H         0.08482285     2.50127641     0.23209692     0.00160353     0.00067979     0.00065160
H         0.02533501     0.91664666     0.42408667     0.00148818    -0.00041093     0.00133737
    14
  Step:    10            Position(A)                                  Velocity(au)
C        -6.04046014    -0.80350713    -0.10744104     0.00006490    -0.00017714    -0.00010940
C        -4.63072040    -0.76451222     0.11258632     0.00037561     0.00006822     0.00012522
H        -6.44632873     0.10887130    -0.58811908    -0.00128277     0.00001476    -0.00015455
H        -6.59983811    -1.70597306    -0.09004372     0.00011267    -0.00015400     0.00007208
H        -4.11627330    -1.67006377     0.46719399    -0.00068230     0.00046859    -0.00088297
C        -4.00803751     0.46099143    -0.07619543    -0.00085219     0.00017570     0.00002327
C        -2.54623056     0.58251411     0.22877618     0.00037748     0.00001916     0.00006286
H        -4.46362507     1.41626408    -0.30597406    -0.00108904    -0.00056490     0.00033758
H        -1.91794675    -0.31910199     0.41000326     0.00001847     0.00079580     0.00027939
C        -1.87008074     1.77871775     0.05760799    -0.00056506     0.00011222    -0.00023718
H        -2.28167962     2.73484760    -0.14761537     0.00067942    -0.00005670     0.00057011
N        -0.48568158     1.70620049     0.14566410     0.00044781    -0.00022453    -0.00004415
H         0.10310681     2.51075111     0.23905435     0.00167623     0.00097118     0.00061134
H         0.04184260     0.91015739     0.43913299     0.00148531    -0.00071586     0.00139184
    14
  Step:    11            Position(A)                                  Velocity(au)
C        -6.03961999    -0.80533845    -0.10874735     0.00008797    -0.00015692    -0.00012969
C        -4.62677195    -0.76369421     0.11395319     0.00034123     0.00008300     0.00012281
H        -6.46071300     0.10828324    -0.58917386    -0.00133094    -0.00013772    -0.00002939
H        -6.59938581    -1.70850115    -0.08890824    -0.00002591    -0.00030685     0.00013536
H        -4.12361392    -1.66437575     0.45729035    -0.00063297     0.00053707    -0.00091141
C        -4.01726397     0.46279915    -0.07582550    -0.00082846     0.00015403     0.00004570
C        -2.54202695     0.58275080     0.22938817     0.00038442     0.00002595     0.00004774
H        -4.47636540     1.40982147    -0.30263125    -0.00124627    -0.00059104     0.00026974
H        -1.91858997    -0.30981429     0.41304843    -0.00012029     0.00087729     0.00028096
C        -1.87599021     1.77974451     0.05508998    -0.00050908     0.00007381    -0.00022206
H        -2.27487047     2.73512191    -0.14164743     0.00054934     0.00013332     0.00051242
N        -0.48088296     1.70383922     0.14517685     0.00043438    -0.00020576    -0.00004278
H         0.12149362     2.52252283     0.24547107     0.00162346     0.00109939     0.00055227
H         0.05782892     0.90098576     0.45453590     0.00139059    -0.00089535     0.00139900
    14
  Step:    12            Position(A)                                  Velocity(au)
C        -6.03853562    -0.80694006    -0.11027824     0.00010901    -0.00013642    -0.00015016
C        -4.62325535    -0.76269645     0.11527298     0.00029690     0.00010103     0.00011666
H        -6.47544554     0.10585840    -0.58876202    -0.00134834    -0.00031491     0.00011030
H        -6.60040499    -1.71268598    -0.08708248    -0.00015019    -0.00044779     0.00019797
H        -4.13012078    -1.65831444     0.44725510    -0.00052993     0.00053433    -0.00090679
C        -4.02616175     0.46436107    -0.07519568    -0.00079274     0.00013133     0.00007050
C        -2.53782073     0.58308173     0.22982067     0.00037802     0.00003665     0.00003012
H        -4.49088969     1.40333397    -0.30007288    -0.00141255    -0.00057657     0.00019535
H        -1.92057824    -0.29990955     0.41614990    -0.00022358     0.00090360     0.00029081
C        -1.88121793     1.78033240     0.05274999    -0.00044170     0.00003341    -0.00020504
H        -2.26966170     2.73776431    -0.13640530     0.00039381     0.00036194     0.00044083
N        -0.47617877     1.70169905     0.14472831     0.00043021    -0.00018464    -0.00003708
H         0.13862305     2.53480240     0.25113628     0.00145501     0.00107397     0.00047485
H         0.07226435     0.89057000     0.46973869     0.00120576    -0.00094683     0.00135528
    14
  Step:    13            Position(A)                                  Velocity(au)
C        -6.03723529    -0.80832286    -0.11203249     0.00012701    -0.00011807    -0.00017022
C        -4.62027669    -0.76148391     0.11650542     0.00024338     0.00012189     0.00010704
H        -6.49021060     0.10139404    -0.58676094    -0.00133922    -0.00050427     0.00025778
H        -6.60267152    -1.71829743    -0.08457721    -0.00024891    -0.00056031     0.00025920
H        -4.13520726    -1.65268615     0.43745262    -0.00037578     0.00045960    -0.00087026
C        -4.03460659     0.46567217    -0.07428318    -0.00074646     0.00010891     0.00009705
C        -2.53375693     0.58355250     0.23004717     0.00035865     0.00005159     0.00001019
H        -4.50726772     1.39720786    -0.29835756    -0.00158139    -0.00053071     0.00011730
H        -1.92348112    -0.29004629     0.41941048    -0.00028525     0.00086684     0.00031084
C        -1.88565324     1.78047537     0.05060443    -0.00036546    -0.00000590    -0.00018694
H        -2.26625509     2.74304010    -0.13200339     0.00022763     0.00059771     0.00036246
N        -0.47147135     1.69979993     0.14436561     0.00043393    -0.00016215    -0.00002736
H         0.15332466     2.54601805     0.25585936     0.00119213     0.00092014     0.00038182
H         0.08420718     0.88027213     0.48418518     0.00094312    -0.00088355     0.00126355
    14
  Step:    14            Position(A)                                  Velocity(au)
C        -6.03575698    -0.80952297    -0.11400217     0.00014126    -0.00010394    -0.00018926
C        -4.61793093    -0.76002978     0.11761461     0.00018198     0.00014443     0.00009449
H        -6.50474350     0.09482644    -0.58312269    -0.00130857    -0.00069319     0.00040628
H        -6.60585044    -1.72494381    -0.08141193    -0.00031365    -0.00063231     0.00031820
H        -4.13834165    -1.64825979     0.42821640    -0.00017835     0.00032150    -0.00080649
C        -4.04249189     0.46674371    -0.07307259    -0.00069134     0.00008838     0.00012464
C        -2.52997459     0.58421045     0.23004368     0.00032705     0.00007070    -0.00001177
H        -4.52548570     1.39172373    -0.29750666    -0.00174426    -0.00046650     0.00003936
H        -1.92681868    -0.28094588     0.42295009    -0.00030300     0.00076426     0.00034204
C        -1.88921307     1.78020326     0.04866042    -0.00028277    -0.00004091    -0.00016857
H        -2.26468183     2.75084026    -0.12847590     0.00006586     0.00080689     0.00028420
N        -0.46668573     1.69815166     0.14412975     0.00044315    -0.00013912    -0.00001433
H         0.16470320     2.55493212     0.25948932     0.00086116     0.00067015     0.00027720
H         0.09289701     0.87124075     0.49738128     0.00062136    -0.00072813     0.00113124
    14
  Step:    15            Position(A)                                  Velocity(au)
C        -6.03414501    -0.81059676    -0.11617283     0.00015134    -0.00009562    -0.00020669
C        -4.61629553    -0.75832416     0.11857247     0.00011454     0.00016674     0.00007985
H        -6.51883807     0.08622922    -0.57787281    -0.00126205    -0.00086934     0.00054923
H        -6.60953324    -1.73213032    -0.07761596    -0.00033961    -0.00065737     0.00037405
H        -4.13910899    -1.64565281     0.41980907     0.00004915     0.00013862    -0.00072339
C        -4.04973103     0.46760563    -0.07155644    -0.00062929     0.00007144     0.00015255
C        -2.52660217     0.58509922     0.22978974     0.00028445     0.00009334    -0.00003537
H        -4.54542671     1.38700220    -0.29749659    -0.00189128    -0.00039900    -0.00003427
H        -1.93010991    -0.27332672     0.42689329    -0.00027949     0.00060004     0.00038402
C        -1.89183933     1.77958041     0.04691658    -0.00019572    -0.00006881    -0.00015064
H        -2.26481424     2.76069228    -0.12578604    -0.00007855     0.00095983     0.00021163
N        -0.46177652     1.69675632     0.14405215     0.00045507    -0.00011617     0.00000107
H         0.17216416     2.56067877     0.26192365     0.00048934     0.00035777     0.00016554
H         0.09780069     0.86434279     0.50893329     0.00026182    -0.00050728     0.00096843
    14
  Step:    16            Position(A)                                  Velocity(au)
C        -6.03244605    -0.81161483    -0.11852382     0.00015721    -0.00009414    -0.00022198
C        -4.61542510    -0.75638205     0.11936144     0.00004333     0.00018634     0.00006414
H        -6.53235336     0.07580803    -0.57110725    -0.00120582    -0.00102109     0.00068047
H        -6.61328006    -1.73932507    -0.07322888    -0.00032565    -0.00063477     0.00042585
H        -4.13726644    -1.64522712     0.41239085     0.00028934    -0.00006250    -0.00063107
C        -4.05625886     0.46830668    -0.06973534    -0.00056226     0.00005970     0.00018006
C        -2.52375178     0.58625244     0.22926981     0.00023259     0.00011828    -0.00006011
H        -4.56686105     1.38299484    -0.29825637    -0.00201232    -0.00034288    -0.00009939
H        -1.93293312    -0.26781890     0.43135131    -0.00022303     0.00038639     0.00043457
C        -1.89349486     1.77869785     0.04536496    -0.00010600    -0.00008767    -0.00013363
H        -2.26640017     2.77183833    -0.12384598    -0.00019628     0.00103578     0.00014836
N        -0.45673015     1.69561021     0.14415306     0.00046676    -0.00009377     0.00001776
H         0.17540844     2.56275898     0.26311090     0.00010307     0.00001600     0.00005151
H         0.09862472     0.86014293     0.51856765    -0.00011380    -0.00024867     0.00078657
    14
  Step:    17            Position(A)                                  Velocity(au)
C        -6.03070565    -0.81265636    -0.12102900     0.00015911    -0.00010006    -0.00023467
C        -4.61534759    -0.75424757     0.11997569    -0.00002917     0.00020063     0.00004841
H        -6.54521773     0.06389091    -0.56298618    -0.00114626    -0.00113793     0.00079455
H        -6.61665755    -1.74601721    -0.06829967    -0.00027383    -0.00056860     0.00047282
H        -4.13277908    -1.64702009     0.40600331     0.00052298    -0.00025180    -0.00054010
C        -4.06203150     0.46891172    -0.06761737    -0.00049211     0.00005440     0.00020654
C        -2.52151392     0.58768674     0.22847473     0.00017361     0.00014373    -0.00008533
H        -4.58944996     1.37950114    -0.29967085    -0.00209816    -0.00031020    -0.00015235
H        -1.93498906    -0.26487362     0.43640024    -0.00014701     0.00014297     0.00048955
C        -1.89415828     1.77766249     0.04399320    -0.00001485    -0.00009658    -0.00011785
H        -2.26910835     2.78335199    -0.12254040    -0.00028221     0.00102514     0.00009588
N        -0.45156516     1.69470494     0.14444075     0.00047530    -0.00007234     0.00003464
H         0.17441902     2.56102882     0.26305049    -0.00027220    -0.00032283    -0.00006025
H         0.09531100     0.85890266     0.52614090    -0.00048437     0.00002011     0.00059786
    14
  Step:    18            Position(A)                                  Velocity(au)
C        -6.02896528    -0.81380394    -0.12365773     0.00015749    -0.00011348    -0.00024442
C        -4.61606332    -0.75199285     0.12042054    -0.00010053     0.00020735     0.00003356
H        -6.55743007     0.05091362    -0.55372494    -0.00108969    -0.00121095     0.00088698
H        -6.61927055    -1.75176438    -0.06288496    -0.00018870    -0.00046666     0.00051438
H        -4.12582522    -1.65073571     0.40057506     0.00073180    -0.00040131    -0.00045969
C        -4.06702480     0.46949673    -0.06521685    -0.00042057     0.00005625     0.00023150
C        -2.51995365     0.58939686     0.22740307     0.00010994     0.00016764    -0.00011030
H        -4.61276236     1.37620858    -0.30158940    -0.00214162    -0.00030878    -0.00019050
H        -1.93614930    -0.26469120     0.44206116    -0.00006805    -0.00010570     0.00054335
C        -1.89381966     1.77658500     0.04278674     0.00007683    -0.00009567    -0.00010343
H        -2.27257413     2.79426527    -0.12174838    -0.00033490     0.00092886     0.00005399
N        -0.44633201     1.69402753     0.14491089     0.00047776    -0.00005234     0.00005051
H         0.16945359     2.55569648     0.26179285    -0.00061131    -0.00062604    -0.00016500
H         0.08802829     0.86058285     0.53164692    -0.00082954     0.00027153     0.00041522
    14
  Step:    19            Position(A)                                  Velocity(au)
C        -6.02726022    -0.81513901    -0.12637614     0.00015297    -0.00013410    -0.00025100
C        -4.61754684    -0.74971138     0.12070998    -0.00016856     0.00020503     0.00002024
H        -6.56905685     0.03739908    -0.54358188    -0.00104179    -0.00123360     0.00095461
H        -6.62078570    -1.75622639    -0.05704656    -0.00007662    -0.00033921     0.00055018
H        -4.11676945    -1.65579951     0.39594681     0.00090104    -0.00049003    -0.00039622
C        -4.07123220     0.47014227    -0.06255284    -0.00034911     0.00006536     0.00025458
C        -2.51910871     0.59135421     0.22606169     0.00004403     0.00018800    -0.00013428
H        -4.63630191     1.37274607    -0.30383830    -0.00213816    -0.00034146    -0.00021232
H        -1.93647777    -0.26718594     0.44828700    -0.00000315    -0.00033407     0.00058964
C        -1.89247738     1.77556953     0.04173051     0.00016837    -0.00008590    -0.00009035
H        -2.27643496     2.80367267    -0.12135923    -0.00035567     0.00075604     0.00002132
N        -0.44111326     1.69355981     0.14554583     0.00047122    -0.00003428     0.00006413
H         0.16104547     2.54733292     0.25944073    -0.00088907    -0.00085992    -0.00025795
H         0.07716328     0.86484286     0.53522460    -0.00112993     0.00047799     0.00025222
    14
  Step:    20            Position(A)                                  Velocity(au)
C        -6.02561876    -0.81673753    -0.12914884     0.00014617    -0.00016120    -0.00025437
C        -4.61975086    -0.74750750     0.12086341    -0.00023149     0.00019320     0.00000878
H        -6.58022131     0.02392622    -0.53284107    -0.00100682    -0.00120269     0.00099610
H        -6.62094675    -1.75918523    -0.05084874     0.00005493    -0.00019787     0.00058012
H        -4.10611315    -1.66145601     0.39190702     0.00102095    -0.00050664    -0.00035279
C        -4.07466215     0.47092659    -0.05964745    -0.00027899     0.00008123     0.00027557
C        -2.51899049     0.59350963     0.22446552    -0.00002187     0.00020322    -0.00015658
H        -4.65953870     1.36873841    -0.30623428    -0.00208617    -0.00040650    -0.00021753
H        -1.93621824    -0.27199965     0.45496066     0.00003314    -0.00051985     0.00062248
C        -1.89013628     1.77470572     0.04081019     0.00025920    -0.00006885    -0.00007851
H        -2.28035500     2.81080520    -0.12128199    -0.00034762     0.00052114    -0.00000415
N        -0.43602326     1.69327760     0.14631389     0.00045288    -0.00001870     0.00007422