     6
  Step:     0            Position(A)                                  Velocity(au)
C        -0.03207299     0.01517601     0.01545953    -0.00005409    -0.00004280    -0.00020917
N        -0.04511891    -0.04392587     1.29801428     0.00015671    -0.00008793     0.00029818
H         0.90862221     0.00122146    -0.54656701     0.00059190     0.00040631    -0.00018352
H         0.82193733    -0.19315563     1.84609975    -0.00098448     0.00057332    -0.00143886
H        -0.95320702    -0.09041470     1.85427157    -0.00113245     0.00048723     0.00029268
H        -0.98111851     0.04214154    -0.48364270    -0.00000820     0.00026505    -0.00032139
     6
  Step:     1            Position(A)                                  Velocity(au)
C        -0.03235920     0.01498067     0.01396679    -0.00005022    -0.00002881    -0.00033554
N        -0.04427583    -0.04440336     1.29997694     0.00014929    -0.00008644     0.00041736
H         0.91198613     0.00330198    -0.54757205     0.00063173     0.00035540    -0.00018163
H         0.81658691    -0.19015500     1.83822202    -0.00095160     0.00052058    -0.00142613
H        -0.95915784    -0.08786295     1.85566025    -0.00103267     0.00044657     0.00021140
H        -0.98148672     0.04347169    -0.48563466    -0.00012372     0.00022204    -0.00040508
     6
  Step:     2            Position(A)                                  Velocity(au)
C        -0.03262239     0.01486077     0.01178841    -0.00004572    -0.00001527    -0.00045877
N        -0.04348556    -0.04487165     1.30258059     0.00013727    -0.00008447     0.00053126
H         0.91553396     0.00510987    -0.54855419     0.00065830     0.00030652    -0.00017533
H         0.81152588    -0.18746000     1.83049651    -0.00087657     0.00046134    -0.00138079
H        -0.96450548    -0.08552881     1.85658454    -0.00091249     0.00040728     0.00012418
H        -0.98247210     0.04457089    -0.48807465    -0.00023207     0.00018071    -0.00048393
     6
  Step:     3            Position(A)                                  Velocity(au)
C        -0.03285976     0.01481349     0.00894436    -0.00004081    -0.00000234    -0.00057716
N        -0.04277302    -0.04532816     1.30579303     0.00012075    -0.00008201     0.00063805
H         0.91919297     0.00665770    -0.54949155     0.00067132     0.00026014    -0.00016535
H         0.80699045    -0.18510444     1.82310556    -0.00075777     0.00039625    -0.00130131
H        -0.96914746    -0.08340414     1.85701970    -0.00077514     0.00036947     0.00003397
H        -0.98402733     0.04545002    -0.49093263    -0.00033021     0.00014168    -0.00055628
     6
  Step:     4            Position(A)                                  Velocity(au)
C        -0.03306954     0.01483508     0.00546386    -0.00003565     0.00000978    -0.00068877
N        -0.04216239    -0.04577029     1.30957230     0.00009998    -0.00007904     0.00073576
H         0.92289033     0.00796045    -0.55036606     0.00067102     0.00021665    -0.00015233
H         0.80322226    -0.18311791     1.81623673    -0.00059547     0.00032627    -0.00118768
H        -0.97299949    -0.08148011     1.85695682    -0.00062432     0.00033325    -0.00005622
H        -0.98609057     0.04612340    -0.49417036    -0.00041580     0.00010556    -0.00062067
     6
  Step:     5            Position(A)                                  Velocity(au)
C        -0.03325097     0.01492085     0.00138681    -0.00003044     0.00002095    -0.00079142
N        -0.04167599    -0.04619541     1.31386617     0.00007547    -0.00007556     0.00082243
H         0.92655575     0.00903495    -0.55116303     0.00065812     0.00017635    -0.00013695
H         0.80045661    -0.18152441     1.81007371    -0.00039262     0.00025263    -0.00104184
H        -0.97599782    -0.07974750     1.85640280    -0.00046425     0.00029864    -0.00014342
H        -0.98858968     0.04660828    -0.49774296    -0.00048727     0.00007283    -0.00067602
     6
  Step:     6            Position(A)                                  Velocity(au)
C        -0.03340415     0.01506533    -0.00323522    -0.00002533     0.00003100    -0.00088285
N        -0.04133288    -0.04660087     1.31861231     0.00004799    -0.00007159     0.00089622
H         0.93012427     0.00989881    -0.55187142     0.00063386     0.00013930    -0.00011997
H         0.79890662    -0.18034102     1.80478504    -0.00015535     0.00017682    -0.00086796
H        -0.97810243    -0.07819753     1.85538039    -0.00029979     0.00026551    -0.00022460
H        -0.99144657     0.04692388    -0.50160098    -0.00054382     0.00004375    -0.00072165
     6
  Step:     7            Position(A)                                  Velocity(au)
C        -0.03353004     0.01526237    -0.00833867    -0.00002048     0.00003984    -0.00096090
N        -0.04114731    -0.04698401     1.32373904     0.00001862    -0.00006712     0.00095557
H         0.93353837     0.01056943    -0.55248461     0.00059980     0.00010542    -0.00010223
H         0.79874531    -0.17957661     1.80051222     0.00010693     0.00010056    -0.00067236
H        -0.97930033    -0.07682263     1.85392854    -0.00013637     0.00023362    -0.00029678
H        -0.99458049     0.04709018    -0.50569274    -0.00058521     0.00001839    -0.00075734
     6
  Step:     8            Position(A)                                  Velocity(au)
C        -0.03363032     0.01550539    -0.01384876    -0.00001601     0.00004740    -0.00102381
N        -0.04112718    -0.04734225     1.32916693    -0.00001133    -0.00006222     0.00099939
H         0.93674925     0.01106324    -0.55300059     0.00055777     0.00007456    -0.00008462
H         0.80008767    -0.17923035     1.79735854     0.00038183     0.00002585    -0.00046320
H        -0.97960866    -0.07561706     1.85210229     0.00002018     0.00020270    -0.00035710
H        -0.99791041     0.04712699    -0.50996606    -0.00061162    -0.00000332    -0.00078315
     6
  Step:     9            Position(A)                                  Velocity(au)
C        -0.03370743     0.01578749    -0.01968167    -0.00001206     0.00005364    -0.00107042
N        -0.04127282    -0.04767332     1.33481148    -0.00004041    -0.00005696     0.00102728
H         0.93971802     0.01139546    -0.55342213     0.00050982     0.00004650    -0.00006801
H         0.80297575    -0.17929022     1.79538032     0.00065511    -0.00004514    -0.00024977
H        -0.97907679    -0.07457682     1.84997215     0.00016392     0.00017252    -0.00040302
H        -1.00135674     0.04705342    -0.51436939    -0.00062359    -0.00002154    -0.00079934
     6
  Step:    10            Position(A)                                  Velocity(au)
C        -0.03376442     0.01610168    -0.02574811    -0.00000873     0.00005859    -0.00110054
N        -0.04157641    -0.04797544     1.34058663    -0.00006719    -0.00005148     0.00103968
H         0.94241665     0.01158019    -0.55375666     0.00045817     0.00002108    -0.00005323
H         0.80737013    -0.17973213     1.79458203     0.00091212    -0.00011025    -0.00004158
H        -0.97778649    -0.07369923     1.84762210     0.00028931     0.00014295    -0.00043263
H        -1.00484255     0.04688750    -0.51885186    -0.00062196    -0.00003653    -0.00080621
     6
  Step:    11            Position(A)                                  Velocity(au)
C        -0.03380485     0.01644106    -0.03195812    -0.00001029     0.00010509    -0.00188005
N        -0.04202228    -0.04824761     1.34640905    -0.00015241    -0.00007748     0.00175015
H         0.94482889     0.01163061    -0.55401595     0.00068309    -0.00000318    -0.00006911
H         0.81315041    -0.18052011     1.79491655     0.00192185    -0.00028266     0.00025756
H        -0.97584952    -0.07298222     1.84514618     0.00066057     0.00019219    -0.00075005
H        -1.00829464     0.04664597    -0.52336265    -0.00102511    -0.00008187    -0.00135623
     6
  Step:    12            Position(A)                                  Velocity(au)
C        -0.03385457     0.01701204    -0.04214312    -0.00000774     0.00009612    -0.00170850
N        -0.04292631    -0.04865990     1.35591163    -0.00016301    -0.00006803     0.00159779
H         0.94872437     0.01164176    -0.55470904     0.00068951     0.00000693    -0.00017279
H         0.82443645    -0.18222512     1.79690469     0.00202835    -0.00031389     0.00042549
H        -0.97196659    -0.07191690     1.84101022     0.00068909     0.00018272    -0.00069606
H        -1.01420436     0.04620011    -0.53120765    -0.00104959    -0.00007587    -0.00140149
     6
  Step:    13            Position(A)                                  Velocity(au)
C        -0.03389272     0.01753285    -0.05136324    -0.00000331     0.00004706    -0.00082929
N        -0.04387374    -0.04902026     1.36455675    -0.00009021    -0.00003188     0.00077968
H         0.95266037     0.01170938    -0.55597846     0.00037458     0.00000902    -0.00014605
H         0.83618837    -0.18408529     1.79974923     0.00112176    -0.00018143     0.00030095
H        -0.96802280    -0.07090691     1.83724031     0.00036732     0.00009298    -0.00033480
H        -1.02021593     0.04578429    -0.53928077    -0.00057069    -0.00003836    -0.00077289
     6
  Step:    14            Position(A)                                  Velocity(au)
C        -0.03391152     0.01780331    -0.05601537    -0.00000361     0.00004836    -0.00081380
N        -0.04440632    -0.04918671     1.36888903    -0.00009614    -0.00002721     0.00075099
H         0.95461167     0.01170414    -0.55677021     0.00031678    -0.00001009    -0.00013474
H         0.84281069    -0.18519541     1.80181652     0.00120217    -0.00020744     0.00041930
H        -0.96590733    -0.07046803     1.83547910     0.00037059     0.00006281    -0.00028325
H        -1.02328026     0.04555101    -0.54356293    -0.00051062    -0.00004348    -0.00074008
     6
  Step:    15            Position(A)                                  Velocity(au)
C        -0.03393352     0.01808009    -0.06057195    -0.00000445     0.00004985    -0.00080441
N        -0.04496164    -0.04932813     1.37305476    -0.00009935    -0.00002328     0.00072892
H         0.95624497     0.01159520    -0.55750311     0.00026531    -0.00002806    -0.00012671
H         0.84979185    -0.18643258     1.80449391     0.00126201    -0.00022887     0.00052228
H        -0.96382935    -0.07019618     1.83403511     0.00035860     0.00003424    -0.00022567
H        -1.02599400     0.04529228    -0.54765529    -0.00045234    -0.00004794    -0.00071383
     6
  Step:    16            Position(A)                                  Velocity(au)
C        -0.03396160     0.01836431    -0.06506715    -0.00000579     0.00005150    -0.00079954
N        -0.04552427    -0.04944863     1.37709135    -0.00009973    -0.00001995     0.00071187
H         0.95759716     0.01138844    -0.55819601     0.00021914    -0.00004536    -0.00012173
H         0.85701167    -0.18777083     1.80769362     0.00129920    -0.00024573     0.00061080
H        -0.96187206    -0.07008279     1.83293971     0.00033153     0.00000649    -0.00016143
H        -1.02837028     0.04501160    -0.55159543    -0.00039494    -0.00005179    -0.00069266
     6
  Step:    17            Position(A)                                  Velocity(au)
C        -0.03399838     0.01865684    -0.06952631    -0.00000758     0.00005320    -0.00079711
N        -0.04607860    -0.04955159     1.38102728    -0.00009715    -0.00001712     0.00069789
H         0.95869922     0.01108716    -0.55886640     0.00017742    -0.00006231    -0.00011956
H         0.86434209    -0.18918462     1.81133445     0.00131101    -0.00025774     0.00068483
H        -0.96011646    -0.07012348     1.83222715     0.00028948    -0.00002098    -0.00009022
H        -1.03041712     0.04471222    -0.55541262    -0.00033755    -0.00005501    -0.00067478
     6
  Step:    18            Position(A)                                  Velocity(au)
C        -0.03404624     0.01895808    -0.07396327    -0.00000978     0.00005488    -0.00079530
N        -0.04660850    -0.04963974     1.38488015    -0.00009154    -0.00001470     0.00068535
H         0.95957730     0.01069307    -0.55953031     0.00013971    -0.00007904    -0.00012001
H         0.87164313    -0.19064728     1.81533662     0.00129543    -0.00026460     0.00074412
H        -0.95864137    -0.07031690     1.83193286     0.00023318    -0.00004849    -0.00001233
H        -1.03213752     0.04439763    -0.55912632    -0.00027975    -0.00005751    -0.00065878
     6
  Step:    19            Position(A)                                  Velocity(au)
C        -0.03410725     0.01926790    -0.07838191    -0.00001231     0.00005645    -0.00079280
N        -0.04709791    -0.04971528     1.38865858    -0.00008302    -0.00001262     0.00067311
H         0.96025492     0.01020702    -0.56020266     0.00010589    -0.00009566    -0.00012297
H         0.87876659    -0.19213095     1.81962021     0.00125187    -0.00026621     0.00078866
H        -0.95751999    -0.07066341     1.83208988     0.00016422    -0.00007620     0.00007126
H        -1.03353215     0.04407181    -0.56274814    -0.00022164    -0.00005921    -0.00064376
     6
  Step:    20            Position(A)                                  Velocity(au)
C        -0.03418317     0.01958576    -0.08277885    -0.00001514     0.00005787    -0.00078875
N        -0.04753161    -0.04978006     1.39236491    -0.00007183    -0.00001083     0.00066050
H         0.96075471     0.00962940    -0.56089768     0.00007600    -0.00011220    -0.00012837
H         0.88556340    -0.19360743     1.82410617     0.00118120    -0.00026264     0.00081883
H        -0.95681529    -0.07116418     1.83272528     0.00008499    -0.00010415     0.00015907
H        -1.03460212     0.04373924    -0.56628472    -0.00016370    -0.00006003    -0.00062926
     6
  Step:    21            Position(A)                                  Velocity(au)
C        -0.03427543     0.01991088    -0.08714607    -0.00001818     0.00005911    -0.00078268
N        -0.04789603    -0.04983564     1.39599769    -0.00005837    -0.00000930     0.00064715
H         0.96109940     0.00896030    -0.56162902     0.00005019    -0.00012872    -0.00013613
H         0.89189143    -0.19504921     1.82871856     0.00108554    -0.00025414     0.00083547
H        -0.95657560    -0.07182062     1.83385739    -0.00000142    -0.00013233     0.00024924
H        -1.03535107     0.04340480    -0.56974011    -0.00010661    -0.00005991    -0.00061512
     6
  Step:    22            Position(A)                                  Velocity(au)
C        -0.03438511     0.02024230    -0.09147286    -0.00002138     0.00006015    -0.00077435
N        -0.04817995    -0.04988334     1.39955345    -0.00004311    -0.00000798     0.00063293
H         0.96131224     0.00819955    -0.56240984     0.00002859    -0.00014528    -0.00014618
H         0.89762158    -0.19643046     1.83338660     0.00096789    -0.00024114     0.00083978
H        -0.95683111    -0.07263406     1.83549383    -0.00009147    -0.00016069     0.00033969
H        -1.03578638     0.04307375    -0.57311751    -0.00005120    -0.00005880    -0.00060141
     6
  Step:    23            Position(A)                                  Velocity(au)
C        -0.03451287     0.02057900    -0.09574730    -0.00002466     0.00006100    -0.00076373
N        -0.04837492    -0.04992425     1.40302801    -0.00002661    -0.00000683     0.00061785
H         0.96141694     0.00734663    -0.56325272     0.00001126    -0.00016193    -0.00015840
H         0.90264240    -0.19772766     1.83804651     0.00083190    -0.00022411     0.00083322
H        -0.95759160    -0.07360556     1.83763052    -0.00018134    -0.00018920     0.00042827
H        -1.03591974     0.04275165    -0.57642038     0.00000172    -0.00005666    -0.00058831
     6
  Step:    24            Position(A)                                  Velocity(au)
C        -0.03465902     0.02091995    -0.09995718    -0.00002795     0.00006166    -0.00075089
N        -0.04847554    -0.04995927     1.40641721    -0.00000941    -0.00000584     0.00060203
H         0.96143732     0.00640065    -0.56416950    -0.00000180    -0.00017877    -0.00017265
H         0.90686324    -0.19892014     1.84264284     0.00068161    -0.00020364     0.00081744
H        -0.95884564    -0.07473591     1.84025154    -0.00026725    -0.00021780     0.00051291
H        -1.03576732     0.04244435    -0.57965312     0.00005131    -0.00005343    -0.00057608
     6
  Step:    25            Position(A)                                  Velocity(au)
C        -0.03482347     0.02126414    -0.10409076    -0.00003120     0.00006214    -0.00073599
N        -0.04847952    -0.04998910     1.40971745     0.00000791    -0.00000495     0.00058563
H         0.96139698     0.00536021    -0.56517114    -0.00001067    -0.00019591    -0.00018878
H         0.91021604    -0.19999036     1.84712938     0.00052120    -0.00018030     0.00079420
H        -0.96056108    -0.07602562     1.84332963    -0.00034561    -0.00024645     0.00059167
H        -1.03534956     0.04215793    -0.58282146     0.00009687    -0.00004909    -0.00056500
     6
  Step:    26            Position(A)                                  Velocity(au)
C        -0.03500575     0.02161064    -0.10813709    -0.00003433     0.00006247    -0.00071923
N        -0.04838761    -0.05001427     1.41292592     0.00002485    -0.00000414     0.00056879
H         0.96131877     0.00422325    -0.56626759    -0.00001553    -0.00021348    -0.00020658
H         0.91265587    -0.20092397     1.85146964     0.00035482    -0.00015466     0.00076528
H        -0.96268681    -0.07747503     1.84682738    -0.00041329    -0.00027515     0.00066289
H        -1.03469075     0.04189880    -0.58593263     0.00013772    -0.00004356    -0.00055537
     6
  Step:    27            Position(A)                                  Velocity(au)
C        -0.03520507     0.02195859    -0.11208629    -0.00003728     0.00006265    -0.00070082
N        -0.04820331    -0.05003512     1.41604063     0.00004092    -0.00000338     0.00055171
H         0.96122438     0.00298696    -0.56746767    -0.00001663    -0.00023164    -0.00022586
H         0.91416052    -0.20170972     1.85563683     0.00018648    -0.00012727     0.00073243
H        -0.96515549    -0.07908443     1.85069880    -0.00046767    -0.00030391     0.00072521
H        -1.03381851     0.04167371    -0.58899536     0.00017335    -0.00003678    -0.00054745
     6
  Step:    28            Position(A)                                  Velocity(au)
C        -0.03542027     0.02230724    -0.11592965    -0.00004000     0.00006270    -0.00068098
N        -0.04793259    -0.05005182     1.41906044     0.00005573    -0.00000263     0.00053450
H         0.96113389     0.00164758    -0.56877899    -0.00001428    -0.00025058    -0.00024640
H         0.91472941    -0.20233915     1.85961370     0.00001993    -0.00009860     0.00069734
H        -0.96788694    -0.08085430     1.85489115    -0.00050682    -0.00033280     0.00077763
H        -1.03276319     0.04148989    -0.59201982     0.00020333    -0.00002864    -0.00054150
     6
  Step:    29            Position(A)                                  Velocity(au)
C        -0.03564994     0.02265593    -0.11965959    -0.00004245     0.00006265    -0.00065991
N        -0.04758349    -0.05006439     1.42198485     0.00006895    -0.00000188     0.00051727
H         0.96106552     0.00020021    -0.57020788    -0.00000885    -0.00027053    -0.00026797
H         0.91438215    -0.20280629     1.86339208    -0.00014137    -0.00006904     0.00066161
H        -0.97079195    -0.08278553     1.85934696    -0.00052948    -0.00036192     0.00081949
H        -1.03155720     0.04135521    -0.59501748     0.00022736    -0.00001901    -0.00053776
     6
  Step:    30            Position(A)                                  Velocity(au)
C        -0.03589243     0.02300409    -0.12326959    -0.00004459     0.00006251    -0.00063778
N        -0.04716568    -0.05007268     1.42481385     0.00008031    -0.00000108     0.00050009
H         0.96103541    -0.00136145    -0.57175951    -0.00000071    -0.00029179    -0.00029039
H         0.91315702    -0.20310709     1.86697252    -0.00029424    -0.00003889     0.00062676
H        -0.97377612    -0.08487981     1.86400595    -0.00053506    -0.00039147     0.00085045
H        -1.03023437     0.04127845    -0.59800105     0.00024523    -0.00000769    -0.00053642
     6
  Step:    31            Position(A)                                  Velocity(au)
C        -0.03614590     0.02335123    -0.12675384    -0.00004639     0.00006229    -0.00061465
N        -0.04669014    -0.05007641     1.42754753     0.00008963    -0.00000022     0.00048291
H         0.96105765    -0.00304547    -0.57343798     0.00000980    -0.00031472    -0.00031349
H         0.91110925    -0.20323884     1.87036376    -0.00043580    -0.00000829     0.00059421
H        -0.97674361    -0.08714006     1.86880685    -0.00052361    -0.00042175     0.00087049
H        -1.02882940     0.04126969    -0.60098435     0.00025685     0.00000561    -0.00053772
     6
  Step:    32            Position(A)                                  Velocity(au)
C        -0.03640845     0.02369693    -0.13010676    -0.00004785     0.00006199    -0.00059052
N        -0.04616868    -0.05007513     1.43018561     0.00009678     0.00000074     0.00046563
H         0.96114446    -0.00486226    -0.57524663     0.00002240    -0.00033982    -0.00033718
H         0.90830928    -0.20319928     1.87358228    -0.00056351     0.00002279     0.00056531
H        -0.97960060    -0.08957117     1.87368901    -0.00049579    -0.00045317     0.00087986
H        -1.02737728     0.04134083    -0.60398247     0.00026218     0.00002130    -0.00054190
     6
  Step:    33            Position(A)                                  Velocity(au)
C        -0.03667816     0.02404077    -0.13332243    -0.00004899     0.00006162    -0.00056525
N        -0.04561362    -0.05006822     1.43272695     0.00010171     0.00000182     0.00044804
H         0.96130681    -0.00682539    -0.57718860     0.00003697    -0.00036779    -0.00036155
H         0.90484113    -0.20298539     1.87665188    -0.00067509     0.00005464     0.00054134
H        -0.98225848    -0.09218089     1.87859387    -0.00045277    -0.00048642     0.00087903
H        -1.02591305     0.04150657    -0.60701210     0.00026122     0.00004001    -0.00054935
     6
  Step:    34            Position(A)                                  Velocity(au)
C        -0.03695332     0.02438233    -0.13639376    -0.00004985     0.00006118    -0.00053850
N        -0.04503742    -0.05005491     1.43516892     0.00010443     0.00000305     0.00042978
H         0.96155569    -0.00895297    -0.57926793     0.00005377    -0.00039966    -0.00038695
H         0.90080059    -0.20259160     1.87960336    -0.00076860     0.00008799     0.00052357
H        -0.98463650    -0.09498140     1.88346599    -0.00039614    -0.00052250     0.00086861
H        -1.02447185     0.04178583    -0.61009257     0.00025386     0.00006274    -0.00056075
     6
  Step:    35            Position(A)                                  Velocity(au)
C        -0.03723259     0.02472111    -0.13931110    -0.00005056     0.00006062    -0.00050943
N        -0.04445229    -0.05003425     1.43750651     0.00010501     0.00000448     0.00041017
H         0.96190480    -0.01126995    -0.58149186     0.00007385    -0.00043699    -0.00041446
H         0.89629357    -0.20200686     1.88247444    -0.00084236     0.00012427     0.00051326
H        -0.98666397    -0.09799165     1.88825365    -0.00032792    -0.00056297     0.00084931
H        -1.02308991     0.04220427    -0.61324815     0.00023958     0.00009108    -0.00057752
     6
  Step:    36            Position(A)                                  Velocity(au)
C        -0.03751546     0.02505632    -0.14205810    -0.00005131     0.00005984    -0.00047582
N        -0.04386980    -0.05000506     1.43972955     0.00010363     0.00000616     0.00038758
H         0.96237679    -0.01381186    -0.58387628     0.00010025    -0.00048207    -0.00044694
H         0.89143445    -0.20120988     1.88531026    -0.00089494     0.00016586     0.00051192
H        -0.98828267    -0.10124107     1.89290942    -0.00025064    -0.00061005     0.00082199
H        -1.02180801     0.04279858    -0.61651403     0.00021655     0.00012755    -0.00060310
     6
  Step:    37            Position(A)                                  Velocity(au)
C        -0.03780292     0.02538636    -0.14460042    -0.00005243     0.00005858    -0.00043195
N        -0.04330028    -0.04996578     1.44181500     0.00010056     0.00000819     0.00035803
H         0.96301920    -0.01662880    -0.58646016     0.00014077    -0.00053619    -0.00049181
H         0.88634516    -0.20016311     1.88816514    -0.00092499     0.00021476     0.00052137
H        -0.98945016    -0.10477316     1.89739117    -0.00016756    -0.00066474     0.00078812
H        -1.02068268     0.04362218    -0.61995238     0.00017912     0.00017432    -0.00064581
     6
  Step:    38            Position(A)                                  Velocity(au)
C        -0.03809806     0.02570732    -0.14685836    -0.00005394     0.00005635    -0.00036908
N        -0.04275233    -0.04991405     1.44370831     0.00009593     0.00001069     0.00031542
H         0.96394117    -0.01977055    -0.58934182     0.00020630    -0.00059060    -0.00056070
H         0.88115498    -0.19882323     1.89110431    -0.00093191     0.00026346     0.00054219
H        -0.99014482    -0.10862841     1.90166778    -0.00008207    -0.00071750     0.00075115
H        -1.01981749     0.04473581    -0.62369095     0.00011733     0.00022459    -0.00071787
     6
  Step:    39            Position(A)                                  Velocity(au)
C        -0.03840211     0.02601234    -0.14870049    -0.00006184     0.00005959    -0.00032262
N        -0.04223461    -0.04984700     1.44531900     0.00010053     0.00001526     0.00029157
H         0.96531095    -0.02318980    -0.59268896     0.00032942    -0.00070371    -0.00073334
H         0.87599259    -0.19723631     1.89418829    -0.00102988     0.00032973     0.00064126
H        -0.99036188    -0.11274385     1.90573568     0.00000550    -0.00084108     0.00080252
H        -1.01937927     0.04611720    -0.62792727     0.00003489     0.00029295    -0.00091790
     6
  Step:    40            Position(A)                                  Velocity(au)
C        -0.03872850     0.02634143    -0.15043894    -0.00005606     0.00005917    -0.00030689
N        -0.04170693    -0.04975753     1.44689953     0.00008900     0.00001704     0.00027972
H         0.96709272    -0.02696727    -0.59677823     0.00030597    -0.00067078    -0.00073321
H         0.87032130    -0.19557644     1.89776224    -0.00100263     0.00028010     0.00065155
H        -0.99003564    -0.11727511     1.91009602     0.00011305    -0.00080520     0.00076359
H        -1.01925963     0.04760130    -0.63302044     0.00001483     0.00025404    -0.00091213
     6
  Step:    41            Position(A)                                  Velocity(au)
C        -0.03902451     0.02666925    -0.15210767    -0.00005083     0.00005901    -0.00029498
N        -0.04124650    -0.04965782     1.44842455     0.00007643     0.00001899     0.00026987
H         0.96870795    -0.03063700    -0.60082930     0.00027327    -0.00065992    -0.00072394
H         0.86486098    -0.19412656     1.90142207    -0.00095520     0.00024941     0.00067200
H        -0.98910680    -0.12168346     1.91421340     0.00022121    -0.00079170     0.00071730
H        -1.01921463     0.04893762    -0.63805405     0.00000430     0.00023523    -0.00090064
     6
  Step:    42            Position(A)                                  Velocity(au)
C        -0.03929270     0.02699635    -0.15371286    -0.00004597     0.00005891    -0.00028358
N        -0.04085862    -0.04954681     1.44989483     0.00006300     0.00002112     0.00025976
H         0.97012573    -0.03429165    -0.60481318     0.00023590    -0.00066229    -0.00071058
H         0.85971969    -0.19280829     1.90522067    -0.00088947     0.00022962     0.00070115
H        -0.98758047    -0.12606212     1.91805719     0.00032742    -0.00079152     0.00066674
H        -1.01921190     0.05021213    -0.64301654    -0.00000151     0.00022874    -0.00088781
     6
  Step:    43            Position(A)                                  Velocity(au)
C        -0.03953454     0.02732283    -0.15525400    -0.00004132     0.00005881    -0.00027202
N        -0.04054755    -0.04942349     1.45130655     0.00004892     0.00002342     0.00024891
H         0.97132523    -0.03798516    -0.60871321     0.00019505    -0.00067258    -0.00069455
H         0.85499227    -0.19157894     1.90920135    -0.00080804     0.00021593     0.00073729
H        -0.98547412    -0.13046534     1.92161088     0.00042952    -0.00079935     0.00061408
H        -1.01923136     0.05147545    -0.64790432    -0.00000399     0.00022966    -0.00087434
     6
  Step:    44            Position(A)                                  Velocity(au)
C        -0.03975100     0.02764865    -0.15672986    -0.00003683     0.00005871    -0.00026027
N        -0.04031603    -0.04928701     1.45265551     0.00003451     0.00002587     0.00023735
H         0.97228899    -0.04175122    -0.61251642     0.00015126    -0.00068798    -0.00067634
H         0.85075779    -0.19041343     1.91339797    -0.00071387     0.00020602     0.00077872
H        -0.98281670    -0.13492774     1.92486790     0.00052549    -0.00081257     0.00056091
H        -1.01925614     0.05275930    -0.65271385    -0.00000352     0.00023538    -0.00086014
     6