|===============================================================================
|
|  DFTB+ release 20.1
|
|  Copyright (C) 2006 - 2020  DFTB+ developers group
|
|===============================================================================
|
|  When publishing results obtained with DFTB+, please cite the following
|  reference:
|
|  * DFTB+, a software package for efficient approximate density functional
|    theory based atomistic simulations, J. Chem. Phys. 152, 124101 (2020).
|    [doi: 10.1063/1.5143190]
|
|  You should also cite additional publications crediting the parametrization
|  data you use. Please consult the documentation of the SK-files for the
|  references.
|
|===============================================================================

Reading input file 'dftb_in.hsd'
Parser version: 8

--------------------------------------------------------------------------------
Reading SK-files:
Done.


Processed input in HSD format written to 'dftb_pin.hsd'

Starting initialization...
--------------------------------------------------------------------------------
OpenMP threads:              1
Chosen random seed:          511718041
Mode:                        Static calculation
Self consistent charges:     Yes
SCC-tolerance:                 0.100000E-05
Max. scc iterations:                   1000
Shell resolved Hubbard:      No
Spin polarisation:           No
Nr. of up electrons:             6.000000
Nr. of down electrons:           6.000000
Periodic boundaries:         No
Electronic solver:           Relatively robust
Maximal SCC-cycles:                    1000
Initial charges:             Set automatically (system chrg:   0.100E+01)
Included shells:             C:  s, p
                             N:  s, p
                             H:  s
Spin coupling constants:     C   1(s)-1(s):  -0.455900E-01
                             C   1(s)-2(p):  -0.293000E-01
                             C   2(p)-1(s):  -0.293000E-01
                             C   2(p)-2(p):  -0.275500E-01
                             N   1(s)-1(s):  -0.468700E-01
                             N   1(s)-2(p):  -0.317000E-01
                             N   2(p)-1(s):  -0.317000E-01
                             N   2(p)-2(p):  -0.307200E-01
                             H   1(s)-1(s):  -0.792500E-01
Range separated hybrid:      Yes
  Screening parameter omega:   0.300000E+00
  Range separated algorithm:   MatrixBased
Extra options:
                             Mulliken analysis
                             Force calculation
Force type                   original
                             Eigenvector printing


REKS Calcuation:             Yes
SSR(2,2) Calcuation:         Yes
Energy Functional:           (PPS+OSS)/2
Number of Core Orbitals:                  5
Number of Active Orbitals:                2
Number of Basis:                         12
Number of States:                         2
State-Averaging Weight:          0.500000
                                 0.500000
State of Interest:                        1
Initial Guess:               Diagonalize H0 matrix
Newton-Raphson for FON opt:  Yes
NR max. Iterations:                      50
Level Shifting:              Yes
Shift Value:                     0.300000
W Scale Factor:              C  =    3.000000
                             N  =    3.000000
                             H  =    3.000000
Transition Dipole:           No
Gradient of Microstate:      No
CP-REKS Solver:              Preconditioned Conjugate-Gradient
CG max. Iterations:                     100
CG Tolerance:                  0.100000E-07
Memory for A and Hxc:        Direct Updating Without Saving
Non-Adiabatic Coupling:      Yes

--------------------------------------------------------------------------------

***  Geometry step: 0

  iSCC       reks energy        Diff energy         x_a       SCC error   
    1       -6.2667853234       0.0000000000     0.999846    1.19452965
    2       -6.2760173235      -0.0092320000     0.999922    0.06357358
    3       -6.2792398319      -0.0032225084     0.999951    0.02359206
    4       -6.2808173355      -0.0015775036     0.999964    0.01042987
    5       -6.2816249938      -0.0008076584     0.999970    0.00830543
    6       -6.2820401866      -0.0004151928     0.999973    0.00669237
    7       -6.2822527881      -0.0002126015     0.999975    0.00515545
    8       -6.2823611763      -0.0001083883     0.999976    0.00386059
    9       -6.2824162704      -0.0000550941     0.999977    0.00283871
   10       -6.2824442386      -0.0000279681     0.999977    0.00206267
   11       -6.2824584404      -0.0000142018     0.999977    0.00148719
   12       -6.2824656643      -0.0000072239     0.999977    0.00106684
   13       -6.2824693499      -0.0000036857     0.999977    0.00076282
   14       -6.2824712385      -0.0000018885     0.999977    0.00054434
   15       -6.2824722115      -0.0000009730     0.999977    0.00038800
   16       -6.2824727161      -0.0000005047     0.999977    0.00027643
   17       -6.2824729799      -0.0000002638     0.999977    0.00019694
   18       -6.2824731190      -0.0000001391     0.999977    0.00014037
   19       -6.2824731931      -0.0000000741     0.999977    0.00010012
   20       -6.2824732330      -0.0000000399     0.999977    0.00007148
   21       -6.2824732547      -0.0000000217     0.999977    0.00005109
   22       -6.2824732666      -0.0000000119     0.999977    0.00003839
   23       -6.2824732733      -0.0000000066     0.999977    0.00003088
   24       -6.2824732770      -0.0000000037     0.999977    0.00002477
   25       -6.2824732791      -0.0000000021     0.999977    0.00001982
   26       -6.2824732804      -0.0000000012     0.999977    0.00001582
   27       -6.2824732811      -0.0000000007     0.999977    0.00001260
   28       -6.2824732815      -0.0000000004     0.999977    0.00001002
   29       -6.2824732817      -0.0000000002     0.999977    0.00000795
   30       -6.2824732819      -0.0000000001     0.999977    0.00000631
   31       -6.2824732820      -0.0000000001     0.999977    0.00000499
   32       -6.2824732820      -0.0000000001     0.999977    0.00000395
   33       -6.2824732821      -0.0000000000     0.999977    0.00000312
   34       -6.2824732821      -0.0000000000     0.999977    0.00000247
   35       -6.2824732821      -0.0000000000     0.999977    0.00000195
   36       -6.2824732821      -0.0000000000     0.999977    0.00000154
   37       -6.2824732821      -0.0000000000     0.999977    0.00000121
   38       -6.2824732821      -0.0000000000     0.999977    0.00000095
  
--------------------------------------------------
 Final SA-REKS(2,2) energy:      -6.28247328
  
 State     Energy      FON(1)    FON(2)   Spin
  PPS   -6.41387312   1.999955  0.000045  0.00
  OSS   -6.15107344   1.000000  1.000000  0.00
 Trip   -6.22808941   1.000000  1.000000  1.00
--------------------------------------------------

 Lagrangian Wab:  -0.00151215 -0.00151208

--------------------------------------------------
 SSR: 2SI-2SA-REKS(2,2) Hamiltonian matrix
               PPS           OSS
   PPS    -6.41387312   -0.00212830
   OSS    -0.00212830   -6.15107344
--------------------------------------------------

----------------------------------------------------------------
 SSR: 2SI-2SA-REKS(2,2) states
                    E_n       C_{PPS}    C_{OSS}
 SSR state  1   -6.41389036  -0.999967  -0.008098
 SSR state  2   -6.15105621   0.008098  -0.999967
----------------------------------------------------------------

 unrelaxed SSR FONs for S0:  1.999889  0.000111

Total Energy:                       -6.4138903575 H         -174.5308 eV
Extrapolated to 0:                  -6.4138903575 H         -174.5308 eV

----------------------------------------------------------------------------------
 Solving CP-REKS equation for  1 state vector...
----------------------------------------------------------------------------------
  CG solver: Constructing Y initial guess
  CG solver: Iteration    1    eps =    0.000030787976
  CG solver: Iteration    2    eps =    0.000002639363
  CG solver: Iteration    3    eps =    0.000000250585
  CG solver: Iteration    4    eps =    0.000000006999
  Convergence reached in CG solver after    4 iterations
  CG solver: Calculating converged R, Z, Q2 matrix
----------------------------------------------------------------------------------

----------------------------------------------------------------------------------
 Solving CP-REKS equation for SI between  1 and  2 state vectors...
----------------------------------------------------------------------------------
  CG solver: Constructing Y initial guess
  CG solver: Iteration    1    eps =    0.000437979983
  CG solver: Iteration    2    eps =    0.000154724937
  CG solver: Iteration    3    eps =    0.000054104462
  CG solver: Iteration    4    eps =    0.000001092095
  CG solver: Iteration    5    eps =    0.000000124498
  CG solver: Iteration    6    eps =    0.000000007390
  Convergence reached in CG solver after    6 iterations
  CG solver: Calculating converged R, Z, Q2 matrix
----------------------------------------------------------------------------------

--------------------------------------------------
 Gradient Information
--------------------------------------------------
           1 st state (SSR)
     0.00711891     0.00727661     0.03663974
    -0.02455700     0.01200580    -0.04251964
     0.00355605    -0.00310553     0.00710719
     0.01175939    -0.00784165     0.00217758
     0.00603945    -0.00798226     0.00357374
    -0.00391680    -0.00035297    -0.00697862

           2 st state (SSR)
    -0.00750161    -0.01512166     0.14629587
     0.01352506     0.01646362    -0.17195732
    -0.00222752     0.01587082     0.02437380
    -0.00859249    -0.01056975    -0.00711600
    -0.00085719     0.00279449    -0.00394237
     0.00565375    -0.00943752     0.01234602
--------------------------------------------------
 Coupling Information
--------------------------------------------------
 between  1 and  2 states
--------------------------------------------------
 g vector - difference gradient
     0.00729198     0.01113570    -0.05484388
    -0.01908551    -0.00211800     0.06474093
     0.00300809    -0.00946866    -0.00863914
     0.01029236     0.00132645     0.00462825
     0.00335971    -0.00543136     0.00377449
    -0.00486662     0.00455587    -0.00966065

 h vector - derivative coupling
     0.00118771     0.00400693     0.00053219
     0.00259229    -0.00686539    -0.00083969
    -0.00715695    -0.00128181     0.00029017
    -0.00710516     0.00233258     0.00118256
     0.00549839     0.00261020    -0.00098410
     0.00498372    -0.00080251    -0.00018112

 G vector - GDV
     0.00731026     0.01119913    -0.05482807
    -0.01904103    -0.00222891     0.06471884
     0.00289179    -0.00948817    -0.00863330
     0.01017594     0.00136405     0.00464679
     0.00344832    -0.00538837     0.00375805
    -0.00478528     0.00454227    -0.00966232

 H vector - DCV - non-adiabatic coupling
     0.00406896     0.01455694     0.00540384
     0.01103753    -0.02598668    -0.00718348
    -0.02741170    -0.00429281     0.00163618
    -0.02766350     0.00879183     0.00421350
     0.02070986     0.01026433    -0.00397626
     0.01925884    -0.00333361    -0.00009377
--------------------------------------------------


--------------------------------------------------------------------------------
DFTB+ running times                          cpu [s]             wall clock [s]
--------------------------------------------------------------------------------
SCC                                    +     0.02  ( 64.7%)      0.02  ( 55.6%)
Post-SCC processing                    +     0.01  ( 31.1%)      0.01  ( 27.8%)
--------------------------------------------------------------------------------
Missing                                +     0.00  (  4.2%)      0.01  ( 16.7%)
Total                                  =     0.03  (100.0%)      0.04  (100.0%)
--------------------------------------------------------------------------------
