     6
  Step:     0            Position(A)                                  Velocity(au)
C        -0.03459833     0.02475961     0.01663371    -0.00013079     0.00007468    -0.00030980
N        -0.04721282    -0.05732697     1.30850128     0.00029965     0.00010144     0.00031872
H         0.94504818    -0.07240319    -0.57793461     0.00059983    -0.00041408     0.00021284
H         0.87285340    -0.08390351     1.80538650    -0.00088548    -0.00075932    -0.00130980
H        -0.96269768    -0.06973916     1.81960452    -0.00257949    -0.00070315     0.00073932
H        -0.99977986     0.05786660    -0.53661804     0.00025952    -0.00042299    -0.00037988
     6
  Step:     1            Position(A)                                  Velocity(au)
C        -0.03529080     0.02521422     0.01458690    -0.00012177     0.00009115    -0.00043644
N        -0.04557452    -0.05677210     1.31052313     0.00029560     0.00010136     0.00041878
H         0.94806446    -0.07479059    -0.57652698     0.00049826    -0.00045680     0.00030148
H         0.86788889    -0.08819630     1.79826353    -0.00091002    -0.00080990    -0.00128059
H        -0.97666856    -0.07372343     1.82363603    -0.00249718    -0.00075128     0.00072097
H        -0.99837599     0.05540333    -0.53864113     0.00025202    -0.00047669    -0.00036085
     6
  Step:     2            Position(A)                                  Velocity(au)
C        -0.03593135     0.02575746     0.01185591    -0.00011152     0.00010662    -0.00055732
N        -0.04397675    -0.05621735     1.31308580     0.00028400     0.00010105     0.00051395
H         0.95050281    -0.07740397    -0.57463425     0.00038817    -0.00049469     0.00038781
H         0.86289115    -0.09276981     1.79136745    -0.00089322    -0.00085891    -0.00122192
H        -0.99003518    -0.07796372     1.82749725    -0.00235384    -0.00079352     0.00067702
H        -0.99702088     0.05264807    -0.54056839     0.00024104    -0.00052753    -0.00034399
     6
  Step:     3            Position(A)                                  Velocity(au)
C        -0.03651379     0.02638344     0.00847504    -0.00010025     0.00012078    -0.00067020
N        -0.04245995    -0.05566395     1.31615941     0.00026520     0.00010047     0.00060214
H         0.95232141    -0.08021565    -0.57227401     0.00027231    -0.00052691     0.00046926
H         0.85809324    -0.09761564     1.78486318    -0.00083311    -0.00090569    -0.00113300
H        -1.00248219    -0.08242567     1.83106069    -0.00215662    -0.00082852     0.00061202
H        -0.99573255     0.04961806    -0.54241356     0.00022660    -0.00057439    -0.00032978
     6
  Step:     4            Position(A)                                  Velocity(au)
C        -0.03703304     0.02708476     0.00449112    -0.00008819     0.00013340    -0.00077276
N        -0.04106243    -0.05511324     1.31970270     0.00023974     0.00009964     0.00068131
H         0.95349526    -0.08319415    -0.56947757     0.00015411    -0.00055291     0.00054335
H         0.85373618    -0.10272243     1.77891695    -0.00072962    -0.00094974    -0.00101468
H        -1.01373420    -0.08706832     1.83422274    -0.00191349    -0.00085524     0.00053035
H        -0.99453082     0.04633611    -0.54419236     0.00020825    -0.00061634    -0.00031848
     6
  Step:     5            Position(A)                                  Velocity(au)
C        -0.03748515     0.02785272    -0.00003650    -0.00007556     0.00014425    -0.00086284
N        -0.03981932    -0.05456644     1.32366360     0.00020839     0.00009858     0.00074964
H         0.95401889    -0.08630565    -0.56628932     0.00003733    -0.00057243     0.00060780
H         0.85005689    -0.10807644     1.77368714    -0.00058527    -0.00099064    -0.00086957
H        -1.02355819    -0.09184568     1.83690221    -0.00163315    -0.00087300     0.00043630
H        -0.99343875     0.04282946    -0.54592142     0.00018547    -0.00065269    -0.00031021
     6
  Step:     6            Position(A)                                  Velocity(au)
C        -0.03786742     0.02867763    -0.00503705    -0.00006261     0.00015319    -0.00093863
N        -0.03876118    -0.05402462     1.32798082     0.00017220     0.00009733     0.00080575
H         0.95390746    -0.08951540    -0.56276578    -0.00007425    -0.00058548     0.00066060
H         0.84727317    -0.11366186     1.76931444    -0.00040547    -0.00102805    -0.00070213
H        -1.03176871    -0.09670868     1.83904072    -0.00132507    -0.00088150     0.00033418
H        -0.99248273     0.03912859    -0.54761790     0.00015779    -0.00068300    -0.00030504
     6
  Step:     7            Position(A)                                  Velocity(au)
C        -0.03817847     0.02954913    -0.01043051    -0.00004962     0.00016018    -0.00099889
N        -0.03791241    -0.05348862     1.33258624     0.00013247     0.00009594     0.00084884
H         0.95319663    -0.09278906    -0.55897402    -0.00017702    -0.00059234     0.00070017
H         0.84556685    -0.11946072     1.76591197    -0.00019855    -0.00106164    -0.00051842
H        -1.03823158    -0.10160713     1.84060276    -0.00099920    -0.00088088     0.00022818
H        -0.99169141     0.03526613    -0.54929933     0.00012506    -0.00070709    -0.00030299
     6
  Step:     8            Position(A)                                  Velocity(au)
C        -0.03841848     0.03045663    -0.01613095    -0.00003688     0.00016524    -0.00104319
N        -0.03728991    -0.05295908     1.33740825     0.00009070     0.00009445     0.00087883
H         0.95194143    -0.09609406    -0.55498950    -0.00026775    -0.00059360     0.00072547
H         0.84506807    -0.12545264     1.76355682     0.00002484    -0.00109113    -0.00032566
H        -1.04286600    -0.10649192     1.84157497    -0.00066551    -0.00087174     0.00012228
H        -0.99109374     0.03127548    -0.55098294     0.00008751    -0.00072509    -0.00030396
     6
  Step:     9            Position(A)                                  Velocity(au)
C        -0.03858930     0.03138975    -0.02205066    -0.00002471     0.00016851    -0.00107195
N        -0.03690214    -0.05243651     1.34237555     0.00004845     0.00009292     0.00089639
H         0.95021413    -0.09940116    -0.55089302    -0.00034383    -0.00059015     0.00073611
H         0.84584355    -0.13161484     1.76228446     0.00025272    -0.00111639    -0.00013158
H        -1.04564476    -0.11131746     1.84196486    -0.00033361    -0.00085518     0.00002006
H        -0.99071664     0.02718929    -0.55268515     0.00004573    -0.00073750    -0.00030779
     6
  Step:    10            Position(A)                                  Velocity(au)
C        -0.03869446     0.03233892    -0.02810478    -0.00001338     0.00017024    -0.00108649
N        -0.03674867    -0.05192117     1.34742105     0.00000729     0.00009140     0.00090292
H         0.94810076    -0.10268610    -0.54676697    -0.00040347    -0.00058319     0.00073251
H         0.84789097    -0.13792294     1.76208710     0.00047314    -0.00113758     0.00005646
H        -1.04659253    -0.11604439     1.84179904    -0.00001216    -0.00083278    -0.00007541
H        -0.99058291     0.02303752    -0.55442105     0.00000062    -0.00074518    -0.00031429
     6
  Step:    11            Position(A)                                  Velocity(au)
C        -0.03873911     0.03329595    -0.03421616    -0.00000314     0.00017077    -0.00108894
N        -0.03682057    -0.05141309     1.35248564    -0.00003147     0.00008997     0.00090044
H         0.94569640    -0.10593118    -0.54269106    -0.00044580    -0.00057414     0.00071572
H         0.85114132    -0.14435246     1.76291669     0.00067552    -0.00115518     0.00023225
H        -1.04578093    -0.12064217     1.84112054     0.00029172    -0.00080650    -0.00016169
H        -0.99070965     0.01884538    -0.55620427    -0.00004677    -0.00074939    -0.00032325
     6
  Step:    12            Position(A)                                  Velocity(au)
C        -0.03872972     0.03425449    -0.04031972     0.00000582     0.00017049    -0.00108196
N        -0.03710163    -0.05091191     1.35752149    -0.00006675     0.00008872     0.00089128
H         0.94310010    -0.10912641    -0.53873857    -0.00047077    -0.00056452     0.00068727
H         0.85546843    -0.15088087     1.76469234     0.00085161    -0.00116994     0.00039130
H        -1.04332026    -0.12509111     1.83998534     0.00057277    -0.00077846    -0.00023705
H        -0.99110752     0.01463145    -0.55804701    -0.00009541    -0.00075154    -0.00033449
     6
  Step:    13            Position(A)                                  Velocity(au)
C        -0.03867375     0.03521038    -0.04636515     0.00001340     0.00016981    -0.00106824
N        -0.03757010    -0.05041691     1.36249360    -0.00009785     0.00008770     0.00087775
H         0.94041023    -0.11227000    -0.53497387    -0.00047895    -0.00055572     0.00064883
H         0.86070379    -0.15748944     1.76731047     0.00099583    -0.00118271     0.00053095
H        -1.03934945    -0.12938328     1.83845878     0.00082749    -0.00075068    -0.00030031
H        -0.99178095     0.01040654    -0.55996019    -0.00014436    -0.00075306    -0.00034784
     6
  Step:    14            Position(A)                                  Velocity(au)
C        -0.03857922     0.03616157    -0.05231705     0.00001954     0.00016903    -0.00105010
N        -0.03820055    -0.04992693     1.36737943    -0.00012430     0.00008698     0.00086171
H         0.93772100    -0.11536764    -0.53145163    -0.00047122    -0.00054885     0.00060186
H         0.86665249    -0.16416384     1.77065543     0.00110494    -0.00119408     0.00065012
H        -1.03402676    -0.13352197     1.83661257     0.00105353    -0.00072485    -0.00035060
H        -0.99272880     0.00617387    -0.56195353    -0.00019281    -0.00075509    -0.00036303
     6
  Step:    15            Position(A)                                  Velocity(au)
C        -0.03845438     0.03710775    -0.05815274     0.00002423     0.00016838    -0.00102918
N        -0.03896542    -0.04944054     1.37216650    -0.00014584     0.00008657     0.00084442
H         0.93512072    -0.11843095    -0.52821784    -0.00044848    -0.00054463     0.00054750
H         0.87310697    -0.17089323     1.77460816     0.00117744    -0.00120419     0.00074872
H        -1.02752337    -0.13751981     1.83452319     0.00124891    -0.00070217    -0.00038711
H        -0.99394522     0.00193049    -0.56403525    -0.00023998    -0.00075834    -0.00037970
     6
  Step:    16            Position(A)                                  Velocity(au)
C        -0.03830751     0.03804977    -0.06385849     0.00002746     0.00016794    -0.00100638
N        -0.03983603    -0.04895616     1.37684889    -0.00016227     0.00008644     0.00082644
H         0.93269170    -0.12147523    -0.52531190    -0.00041160    -0.00054335     0.00048650
H         0.87985657    -0.17766794     1.77905175     0.00121295    -0.00121267     0.00082722
H        -1.02002121    -0.14139628     1.83227148     0.00141142    -0.00068343    -0.00040890
H        -0.99542002    -0.00233032    -0.56621152    -0.00028510    -0.00076302    -0.00039730
     6
  Step:    17            Position(A)                                  Velocity(au)
C        -0.03814678     0.03898895    -0.06942547     0.00002925     0.00016773    -0.00098203
N        -0.04078304    -0.04847227     1.38142368    -0.00017344     0.00008657     0.00080785
H         0.93051029    -0.12451715    -0.52276840    -0.00036154    -0.00054495     0.00041950
H         0.88669366    -0.18447675     1.78387413     0.00121199    -0.00121875     0.00088631
H        -1.01171364    -0.14517516     1.82994299     0.00153835    -0.00066908    -0.00041493
H        -0.99713870    -0.00661637    -0.56848556    -0.00032728    -0.00076896    -0.00041517
     6
  Step:    18            Position(A)                                  Velocity(au)
C        -0.03798018     0.03992659    -0.07484668     0.00002965     0.00016768    -0.00095616
N        -0.04177666    -0.04798750     1.38588814    -0.00017922     0.00008691     0.00078843
H         0.92864635    -0.12757282    -0.52061801    -0.00029950    -0.00054914     0.00034716
H         0.89341786    -0.19130493     1.78896894     0.00117585    -0.00122155     0.00092683
H        -1.00280815    -0.14888282     1.82762870     0.00162646    -0.00065944    -0.00040402
H        -0.99908209    -0.01093445    -0.57085702    -0.00036561    -0.00077575    -0.00043257
     6
  Step:    19            Position(A)                                  Velocity(au)
C        -0.03781534     0.04086363    -0.08011518     0.00002871     0.00016771    -0.00092872
N        -0.04278667    -0.04750064     1.39023813    -0.00017955     0.00008743     0.00076785
H         0.92716190    -0.13065639    -0.51888726    -0.00022706    -0.00055547     0.00027031
H         0.89983941    -0.19813340     1.79423590     0.00110670    -0.00122026     0.00094982
H        -0.99353016    -0.15254754     1.82542613     0.00167246    -0.00065481    -0.00037507
H        -1.00122619    -0.01528905    -0.57332161    -0.00039919    -0.00078289    -0.00044876
     6
  Step:    20            Position(A)                                  Velocity(au)
C        -0.03765940     0.04180050    -0.08522365     0.00002655     0.00016773    -0.00089971
N        -0.04378281    -0.04701061     1.39446765    -0.00017448     0.00008812     0.00074587
H         0.92610926    -0.13377932    -0.51759768    -0.00014621    -0.00056345     0.00019003
H         0.90578350    -0.20493941     1.79958168     0.00100763    -0.00121440     0.00095660
H        -0.98412106    -0.15619925     1.82343792     0.00167402    -0.00065549    -0.00032744
H        -1.00354235    -0.01968199    -0.57587117    -0.00042720    -0.00078995    -0.00046309
     6
  Step:    21            Position(A)                                  Velocity(au)
C        -0.03751875     0.04273715    -0.09016477     0.00002333     0.00016767    -0.00086927
N        -0.04473561    -0.04651632     1.39856933    -0.00016424     0.00008900     0.00072236
H         0.92552871    -0.13694999    -0.51676461    -0.00005934    -0.00057253     0.00010758
H         0.91109449    -0.21169800     1.80492098     0.00088248    -0.00120382     0.00094877
H        -0.97483170    -0.15986920     1.82176867     0.00163024    -0.00066175    -0.00026114
H        -1.00599789    -0.02411268    -0.57849421    -0.00044902    -0.00079662    -0.00047505
     6
  Step:    22            Position(A)                                  Velocity(au)
C        -0.03739885     0.04367312    -0.09493194     0.00001923     0.00016749    -0.00083769
N        -0.04561712    -0.04601668     1.40253513    -0.00014920     0.00009007     0.00069735
H         0.92544650    -0.14017350    -0.51639619     0.00003088    -0.00058218     0.00002433
H         0.91563931    -0.21838402     1.81017775     0.00073566    -0.00118877     0.00092814
H        -0.96591410    -0.16358979     1.82052139     0.00154190    -0.00067379    -0.00017686
H        -1.00855717    -0.02857886    -0.58117661    -0.00046428    -0.00080273    -0.00048427
     6
  Step:    23            Position(A)                                  Velocity(au)
C        -0.03730395     0.04460764    -0.09951997     0.00001449     0.00016715    -0.00080532
N        -0.04640189    -0.04551044     1.40635720    -0.00012990     0.00009138     0.00067099
H         0.92587354    -0.14345167    -0.51649289     0.00012165    -0.00059183    -0.00005833
H         0.91931024    -0.22497401     1.81528636     0.00057193    -0.00116979     0.00089674
H        -0.95761195    -0.16739397     1.81979355     0.00141162    -0.00069166    -0.00007599
H        -1.01118285    -0.03307739    -0.58390246    -0.00047279    -0.00080824    -0.00049054
     6
  Step:    24            Position(A)                                  Velocity(au)
C        -0.03723701     0.04553977    -0.10392561     0.00000935     0.00016662    -0.00077257
N        -0.04706780    -0.04499621     1.41002863    -0.00010700     0.00009294     0.00064355
H         0.92680502    -0.14678297    -0.51704756     0.00021019    -0.00060093    -0.00013908
H         0.92202648    -0.23144805     1.82019236     0.00039614    -0.00114770     0.00085661
H        -0.95014941    -0.17131413     1.81967273     0.00124391    -0.00071516     0.00003929
H        -1.01383724    -0.03760512    -0.58665490    -0.00047465    -0.00081326    -0.00049378
     6
  Step:    25            Position(A)                                  Velocity(au)
C        -0.03719959     0.04646841    -0.10814769     0.00000405     0.00016591    -0.00073983
N        -0.04759686    -0.04447250     1.41354401    -0.00008133     0.00009478     0.00061532
H         0.92822086    -0.15016256    -0.51804606     0.00029391    -0.00060888    -0.00021678
H         0.92373412    -0.23779099     1.82485261     0.00021300    -0.00112346     0.00080977
H        -0.94372059    -0.17538059     1.82023237     0.00104507    -0.00074377     0.00016613
H        -1.01648350    -0.04215954    -0.58941681    -0.00047010    -0.00081800    -0.00049400
     6
  Step:    26            Position(A)                                  Velocity(au)
C        -0.03719182     0.04739241    -0.11218710    -0.00000115     0.00016499    -0.00070744
N        -0.04797593    -0.04393780     1.41689975    -0.00005376     0.00009689     0.00058667
H         0.93008700    -0.15358212    -0.51946826     0.00037046    -0.00061505    -0.00029048
H         0.92440504    -0.24399334     1.82923480     0.00002696    -0.00109813     0.00075808
H        -0.93847942    -0.17961953     1.82152788     0.00082298    -0.00077653     0.00030104
H        -1.01908673    -0.04673947    -0.59217128    -0.00045959    -0.00082274    -0.00049128
     6
  Step:    27            Position(A)                                  Velocity(au)
C        -0.03721248     0.04831053    -0.11604640    -0.00000602     0.00016385    -0.00067565
N        -0.04819710    -0.04339070     1.42009425    -0.00002527     0.00009924     0.00055791
H         0.93235707    -0.15702967    -0.52128932     0.00043784    -0.00061874    -0.00035948
H         0.92403513    -0.25005180     1.83331664    -0.00015790    -0.00107286     0.00070321
H        -0.93453191    -0.18405071     1.82359352     0.00058659    -0.00081209     0.00044009
H        -1.02161488    -0.05134553    -0.59490202    -0.00044367    -0.00082784    -0.00048572
     6
  Step:    28            Position(A)                                  Velocity(au)
C        -0.03725897     0.04922148    -0.11972944    -0.00001030     0.00016247    -0.00064461
N        -0.04825805    -0.04282998     1.42312779     0.00000314     0.00010178     0.00052936
H         0.93497459    -0.16048921    -0.52348115     0.00049443    -0.00061918    -0.00042334
H         0.92264242    -0.25596971     1.83708476    -0.00033779    -0.00104883     0.00064663
H        -0.93193132    -0.18868500     1.82644066     0.00034546    -0.00084863     0.00057915
H        -1.02403945    -0.05598067    -0.59759345    -0.00042304    -0.00083376    -0.00047746
     6
  Step:    29            Position(A)                                  Velocity(au)
C        -0.03732743     0.05012386    -0.12324063    -0.00001378     0.00016084    -0.00061431
N        -0.04816205    -0.04225479     1.42600224     0.00003049     0.00010443     0.00050121
H         0.93787519    -0.16394014    -0.52601404     0.00053902    -0.00061544    -0.00048193
H         0.92026522    -0.26175744     1.84053347    -0.00050920    -0.00102736     0.00058959
H        -0.93067634    -0.19352196     1.83005720     0.00010923    -0.00088386     0.00071410
H        -1.02633628    -0.06065088    -0.60023084    -0.00039854    -0.00084114    -0.00046665
     6
  Step:    30            Position(A)                                  Velocity(au)
C        -0.03741270     0.05101616    -0.12658404    -0.00001621     0.00015892    -0.00058458
N        -0.04791789    -0.04166470     1.42872040     0.00005579     0.00010712     0.00047355
H         0.94098912    -0.16735640    -0.52885858     0.00057089    -0.00060638    -0.00053553
H         0.91696063    -0.26743326     1.84366354    -0.00066887    -0.00100998     0.00053311
H        -0.93071253    -0.19854730     1.83440875    -0.00011297    -0.00091503     0.00084118
H        -1.02848649    -0.06536626    -0.60280039    -0.00037126    -0.00085086    -0.00045345
     6
  Step:    31            Position(A)                                  Velocity(au)
C        -0.03750825     0.05189675    -0.12976219    -0.00001732     0.00015669    -0.00055496
N        -0.04753961    -0.04105978     1.43128510     0.00007814     0.00010974     0.00044623
H         0.94424397    -0.17070494    -0.53198840     0.00058982    -0.00059054    -0.00058506
H         0.91280337    -0.27302471     1.84648081    -0.00081368    -0.00099855     0.00047795
H        -0.93193664    -0.20373004     1.83944135    -0.00031297    -0.00093878     0.00095728
H        -1.03047806    -0.07014302    -0.60528956    -0.00034270    -0.00086434    -0.00043823
     6
  Step:    32            Position(A)                                  Velocity(au)
C        -0.03760589     0.05276392    -0.13277412    -0.00001676     0.00015416    -0.00052443
N        -0.04704629    -0.04044061     1.43369769     0.00009665     0.00011220     0.00041871
H         0.94756805    -0.17394331    -0.53538441     0.00059650    -0.00056588    -0.00063260
H         0.90788482    -0.27857119     1.84899459    -0.00094065    -0.00099555     0.00042454
H        -0.93420340    -0.20901852     1.84508638    -0.00048399    -0.00095077     0.00106044
H        -1.03230899    -0.07500718    -0.60768840    -0.00031528    -0.00088394    -0.00042179
     6
  Step:    33            Position(A)                                  Velocity(au)
C        -0.03769512     0.05361601    -0.13561100    -0.00001405     0.00015136    -0.00049055
N        -0.04646173    -0.03980843     1.43595484     0.00011047     0.00011435     0.00038941
H         0.95089653    -0.17701603    -0.53904356     0.00059354    -0.00052999    -0.00068273
H         0.90231263    -0.28412782     1.85121562    -0.00104677    -0.00100399     0.00037310
H        -0.93733447    -0.21433364     1.85126807    -0.00062109    -0.00094516     0.00115032
H        -1.03399428    -0.08000132    -0.60999370    -0.00029348    -0.00091355    -0.00040667
     6
  Step:    34            Position(A)                                  Velocity(au)
C        -0.03776255     0.05445181    -0.13824454    -0.00000895     0.00014848    -0.00044746
N        -0.04581433    -0.03916538     1.43804024     0.00011903     0.00011598     0.00035433
H         0.95418700    -0.17985362    -0.54299799     0.00058850    -0.00048314    -0.00074439
H         0.89621166    -0.28976734     1.85315526    -0.00112883    -0.00102460     0.00032477
H        -0.94112959    -0.21955857     1.85791434    -0.00072185    -0.00091593     0.00122807
H        -1.03558174    -0.08519476    -0.61222343    -0.00028522    -0.00095726    -0.00040040
     6
  Step:    35            Position(A)                                  Velocity(au)
C        -0.03779497     0.05527165    -0.14060052    -0.00000275     0.00014587    -0.00038773
N        -0.04513447    -0.03851521     1.43990587     0.00012287     0.00011682     0.00030828
H         0.95745875    -0.18240342    -0.54734407     0.00059351    -0.00043679    -0.00082493
H         0.88972540    -0.29555285     1.85483707    -0.00118471    -0.00104772     0.00028483
H        -0.94538359    -0.22454694     1.86496198    -0.00078736    -0.00086667     0.00129208
H        -1.03717465    -0.09067550    -0.61445843    -0.00029614    -0.00101040    -0.00041572
     6
  Step:    36            Position(A)                                  Velocity(au)
C        -0.03779324     0.05607820    -0.14256762     0.00000229     0.00015261    -0.00033175
N        -0.04444436    -0.03786289     1.44147746     0.00013122     0.00012414     0.00026749
H         0.96080434    -0.18472369    -0.55219567     0.00064940    -0.00043209    -0.00097412
H         0.88300268    -0.30144894     1.85633098    -0.00129096    -0.00112451     0.00027580
H        -0.94990834    -0.22922154     1.87232050    -0.00087104    -0.00086311     0.00141850
H        -1.03888360    -0.09646027    -0.61685857    -0.00033820    -0.00112387    -0.00048414
     6
  Step:    37            Position(A)                                  Velocity(au)
C        -0.03780530     0.05691875    -0.14434227    -0.00000497     0.00014861    -0.00030919
N        -0.04369031    -0.03716737     1.44290565     0.00013634     0.00012538     0.00024814
H         0.96435171    -0.18727626    -0.55758389     0.00061058    -0.00047095    -0.00095402
H         0.87571163    -0.30751863     1.85788768    -0.00131337    -0.00106644     0.00028191
H        -0.95481618    -0.23420934     1.88015863    -0.00086978    -0.00091422     0.00138588
H        -1.04056697    -0.10253143    -0.61956511    -0.00026281    -0.00106152    -0.00047762
     6
  Step:    38            Position(A)                                  Velocity(au)
C        -0.03784866     0.05773506    -0.14601482    -0.00000934     0.00014404    -0.00029292
N        -0.04292434    -0.03646508     1.44424394     0.00013590     0.00012656     0.00023368
H         0.96761165    -0.18997428    -0.56283202     0.00055056    -0.00048831    -0.00092631
H         0.86835996    -0.31333862     1.85947395    -0.00131280    -0.00103176     0.00028796
H        -0.95960553    -0.23941418     1.88777168    -0.00083115    -0.00094319     0.00133838
H        -1.04181362    -0.10829517    -0.62218359    -0.00018384    -0.00101183    -0.00045681
     6
  Step:    39            Position(A)                                  Velocity(au)
C        -0.03790941     0.05852446    -0.14760779    -0.00001155     0.00013907    -0.00027981
N        -0.04217532    -0.03575647     1.44551068     0.00013069     0.00012769     0.00022187
H         0.97048935    -0.19271991    -0.56791039     0.00047610    -0.00049104    -0.00089418
H         0.86107652    -0.31902067     1.86109787    -0.00128981    -0.00101487     0.00029643
H        -0.96408180    -0.24472398     1.89507889    -0.00076028    -0.00095435     0.00127699
H        -1.04261645    -0.11381133    -0.62465764    -0.00010449    -0.00097128    -0.00042815
     6
  Step:    40            Position(A)                                  Velocity(au)
C        -0.03797737     0.05928512    -0.14913362    -0.00001215     0.00013383    -0.00026858
N        -0.04146772    -0.03504189     1.44671689     0.00012145     0.00012879     0.00021177
H         0.97291821    -0.19544736    -0.57279854     0.00039136    -0.00048377    -0.00085887
H         0.85398383    -0.32465031     1.86277795    -0.00124587    -0.00101198     0.00030863
H        -0.96807957    -0.25005133     1.90200497    -0.00066235    -0.00095158     0.00120295
H        -1.04297825    -0.11912100    -0.62695574    -0.00002610    -0.00093714    -0.00039506
     6
  Step:    41            Position(A)                                  Velocity(au)
C        -0.03804483     0.06001576    -0.15060058    -0.00001152     0.00012842    -0.00025868
N        -0.04082198    -0.03432139     1.44787038     0.00010889     0.00012992     0.00020294
H         0.97485022    -0.19811053    -0.57748074     0.00029924    -0.00046938    -0.00082115
H         0.84719397    -0.33029708     1.86453690    -0.00118312    -0.00102072     0.00032492
H        -0.97146228    -0.25532738     1.90848323    -0.00054244    -0.00093779     0.00111797
H        -1.04290730    -0.12425377    -0.62905976     0.00005046    -0.00090780    -0.00035946
     6
  Step:    42            Position(A)                                  Velocity(au)
C        -0.03810569     0.06071559    -0.15201496    -0.00000989     0.00012291    -0.00024980
N        -0.04025486    -0.03359477     1.44897738     0.00009363     0.00013112     0.00019515
H         0.97625134    -0.20067568    -0.58194517     0.00020198    -0.00044970    -0.00078168
H         0.84080535    -0.33601988     1.86639720    -0.00110421    -0.00103939     0.00034500
H        -0.97412167    -0.26049711     1.91445781    -0.00040547    -0.00091515     0.00102405
H        -1.04241618    -0.12923279    -0.63095967     0.00012448    -0.00088236    -0.00032255
     6
  Step:    43            Position(A)                                  Velocity(au)
C        -0.03815497     0.06138417    -0.15338183    -0.00000744     0.00011735    -0.00024177
N        -0.03977957    -0.03286160     1.45004310     0.00007629     0.00013241     0.00018824
H         0.97709900    -0.20311735    -0.58618368     0.00010147    -0.00042598    -0.00074107
H         0.83490009    -0.34186936     1.86837804    -0.00101218    -0.00106657     0.00036808
H        -0.97597669    -0.26551636     1.91988462    -0.00025611    -0.00088541     0.00092322
H        -1.04152133    -0.13407771    -0.63265093     0.00019532    -0.00086031    -0.00028517
     6
  Step:    44            Position(A)                                  Velocity(au)
C        -0.03818853     0.06202139    -0.15470534    -0.00000431     0.00011178    -0.00023442
N        -0.03940590    -0.03212136     1.45107210     0.00005747     0.00013380     0.00018211
H         0.97738047    -0.20541591    -0.59019169    -0.00000065    -0.00039912    -0.00069993
H         0.82954201    -0.34788848     1.87049312    -0.00091037    -0.00110085     0.00039302
H        -0.97697164    -0.27034984     1.92473124    -0.00009867    -0.00085001     0.00081748
H        -1.04024272    -0.13880624    -0.63413302     0.00026236    -0.00084137    -0.00024795
     6