 Fermi distribution function

Calculation with static geometry


********************************************************************************
 iSCC Total electronic   Diff electronic      SCC error    
   11   -0.53437012E+01   -0.19755753E-10    0.75491967E-07
********************************************************************************

 Total charge:     1.00000000

 Atomic gross charges (e)
 Atom           Charge
    1       0.24910925
    2      -0.13708162
    3       0.18052898
    4       0.26484897
    5       0.26424664
    6       0.17834779

Nr. of electrons (up):     12.00000000
Atom populations (up)
 Atom       Population
    1       3.75089075
    2       5.13708162
    3       0.81947102
    4       0.73515103
    5       0.73575336
    6       0.82165221

l-shell populations (up)
 Atom Sh.   l       Population
    1   1   0       1.36045679
    1   2   1       2.39043396
    2   1   0       1.49186487
    2   2   1       3.64521675
    3   1   0       0.81947102
    4   1   0       0.73515103
    5   1   0       0.73575336
    6   1   0       0.82165221

Orbital populations (up)
 Atom Sh.   l   m       Population  Label
    1   1   0   0       1.36045679  s
    1   2   1  -1       0.48874501  p_y
    1   2   1   0       0.89068866  p_z
    1   2   1   1       1.01100028  p_x
    2   1   0   0       1.49186487  s
    2   2   1  -1       1.34414744  p_y
    2   2   1   0       1.14534557  p_z
    2   2   1   1       1.15572373  p_x
    3   1   0   0       0.81947102  s
    4   1   0   0       0.73515103  s
    5   1   0   0       0.73575336  s
    6   1   0   0       0.82165221  s

Fermi level:                        -0.5277095702 H          -14.3597 eV
Band energy:                        -8.8698828217 H         -241.3618 eV
TS:                                  0.0000000000 H            0.0000 eV
Band free energy (E-TS):            -8.8698828217 H         -241.3618 eV
Extrapolated E(0K):                 -8.8698828217 H         -241.3618 eV
Input / Output electrons (q):     12.0000000000     12.0000000000

Energy H0:                          -5.4821231055 H         -149.1762 eV
Energy SCC:                          0.1384218576 H            3.7667 eV
Total Electronic energy:            -5.3437012479 H         -145.4095 eV
Repulsive energy:                    0.1705696661 H            4.6414 eV
Total energy:                       -5.1731315817 H         -140.7681 eV
Extrapolated to 0:                  -5.1731315817 H         -140.7681 eV
Total Mermin free energy:           -5.1731315817 H         -140.7681 eV
Force related energy:               -5.1731315817 H         -140.7681 eV

SCC converged

Excitation Energy:                   0.1522730975 H            4.1436 eV

Total Forces
    1      0.021825948641     -0.033590624897      0.096661185459
    2     -0.015377827021      0.007608389301     -0.080585914204
    3      0.021006407289      0.004753296271     -0.033673107764
    4     -0.001625316851      0.007457743529     -0.000129776867
    5     -0.009470424812     -0.008559355739      0.024602825328
    6     -0.016358787246      0.022330551537     -0.006875211952

Maximal derivative component:        0.966612E-01 au


