|===============================================================================
|
|  DFTB+ release 20.1
|
|  Copyright (C) 2006 - 2020  DFTB+ developers group
|
|===============================================================================
|
|  When publishing results obtained with DFTB+, please cite the following
|  reference:
|
|  * DFTB+, a software package for efficient approximate density functional
|    theory based atomistic simulations, J. Chem. Phys. 152, 124101 (2020).
|    [doi: 10.1063/1.5143190]
|
|  You should also cite additional publications crediting the parametrization
|  data you use. Please consult the documentation of the SK-files for the
|  references.
|
|===============================================================================

Reading input file 'dftb_in.hsd'
Parser version: 8

--------------------------------------------------------------------------------
Reading SK-files:
Done.


Processed input in HSD format written to 'dftb_pin.hsd'

Starting initialization...
--------------------------------------------------------------------------------
OpenMP threads:              1
Chosen random seed:          500978994
Mode:                        Static calculation
Self consistent charges:     Yes
SCC-tolerance:                 0.100000E-05
Max. scc iterations:                   1000
Shell resolved Hubbard:      No
Spin polarisation:           No
Nr. of up electrons:            16.000000
Nr. of down electrons:          16.000000
Periodic boundaries:         No
Electronic solver:           Relatively robust
Maximal SCC-cycles:                    1000
Initial charges:             Set automatically (system chrg:   0.100E+01)
Included shells:             C:  s, p
                             H:  s
                             N:  s, p
Spin coupling constants:     C   1(s)-1(s):  -0.455900E-01
                             C   1(s)-2(p):  -0.293000E-01
                             C   2(p)-1(s):  -0.293000E-01
                             C   2(p)-2(p):  -0.275500E-01
                             H   1(s)-1(s):  -0.792500E-01
                             N   1(s)-1(s):  -0.468700E-01
                             N   1(s)-2(p):  -0.317000E-01
                             N   2(p)-1(s):  -0.317000E-01
                             N   2(p)-2(p):  -0.307200E-01
Range separated hybrid:      Yes
  Screening parameter omega:   0.300000E+00
  Range separated algorithm:   MatrixBased
Extra options:
                             Mulliken analysis
                             Force calculation
Force type                   original
                             Eigenvector printing


REKS Calcuation:             Yes
SSR(2,2) Calcuation:         Yes
Energy Functional:           (PPS+OSS)/2
Number of Core Orbitals:                 15
Number of Active Orbitals:                2
Number of Basis:                         32
Number of States:                         2
State-Averaging Weight:          0.500000
                                 0.500000
State of Interest:                        1
Initial Guess:               Diagonalize H0 matrix
Newton-Raphson for FON opt:  Yes
NR max. Iterations:                      50
Level Shifting:              Yes
Shift Value:                     0.300000
W Scale Factor:              C  =    3.200000
                             H  =    3.200000
                             N  =    3.200000
Transition Dipole:           No
Gradient of Microstate:      No
CP-REKS Solver:              Preconditioned Conjugate-Gradient
CG max. Iterations:                     100
CG Tolerance:                  0.100000E-07
Memory for A and Hxc:        Direct Updating Without Saving
Non-Adiabatic Coupling:      Yes

--------------------------------------------------------------------------------

***  Geometry step: 0

  iSCC       reks energy        Diff energy         x_a       SCC error   
    1      -16.3697006106       0.0000000000     0.999495    1.20827561
    2      -16.3903668192      -0.0206662086     0.999941    0.07494420
    3      -16.3955554412      -0.0051886220     0.999986    0.02933156
    4      -16.3974721668      -0.0019167256     0.999995    0.01285504
    5      -16.3983847684      -0.0009126017     0.999997    0.00793653
    6      -16.3989156498      -0.0005308814     0.999998    0.00660142
    7      -16.3992731411      -0.0003574912     0.999999    0.00559702
    8      -16.3995386438      -0.0002655027     0.999999    0.00480384
    9      -16.3997486212      -0.0002099775     0.999999    0.00415875
   10      -16.3999214520      -0.0001728307     0.999999    0.00423461
   11      -16.4000674039      -0.0001459519     1.000000    0.00418306
   12      -16.4001927607      -0.0001253568     1.000000    0.00406074
   13      -16.4003016825      -0.0001089218     1.000000    0.00390089
   14      -16.4003971072      -0.0000954247     1.000000    0.00372283
   15      -16.4004812170      -0.0000841098     1.000000    0.00353796
   16      -16.4005556956      -0.0000744786     1.000000    0.00335306
   17      -16.4006218798      -0.0000661842     1.000000    0.00317216
   18      -16.4006808549      -0.0000589751     1.000000    0.00299755
   19      -16.4007335175      -0.0000526626     1.000000    0.00283048
   20      -16.4007806192      -0.0000471017     1.000000    0.00267153
   21      -16.4008227978      -0.0000421786     1.000000    0.00252085
   22      -16.4008606006      -0.0000378028     1.000000    0.00237836
   23      -16.4008945014      -0.0000339008     1.000000    0.00224381
   24      -16.4009249140      -0.0000304126     1.000000    0.00211688
   25      -16.4009522021      -0.0000272881     1.000000    0.00199720
   26      -16.4009766873      -0.0000244852     1.000000    0.00188439
   27      -16.4009986556      -0.0000219683     1.000000    0.00177806
   28      -16.4010183622      -0.0000197066     1.000000    0.00167785
   29      -16.4010360355      -0.0000176733     1.000000    0.00158339
   30      -16.4010518807      -0.0000158451     1.000000    0.00149436
   31      -16.4010660820      -0.0000142014     1.000000    0.00141043
   32      -16.4010788057      -0.0000127237     1.000000    0.00133130
   33      -16.4010902014      -0.0000113957     1.000000    0.00125671
   34      -16.4011004041      -0.0000102027     1.000000    0.00118638
   35      -16.4011095356      -0.0000091315     1.000000    0.00112008
   36      -16.4011177058      -0.0000081702     1.000000    0.00105758
   37      -16.4011250137      -0.0000073080     1.000000    0.00099865
   38      -16.4011315488      -0.0000065351     1.000000    0.00094311
   39      -16.4011373916      -0.0000058428     1.000000    0.00089077
   40      -16.4011426146      -0.0000052230     1.000000    0.00084143
   41      -16.4011472831      -0.0000046686     1.000000    0.00079495
   42      -16.4011514560      -0.0000041729     1.000000    0.00075116
   43      -16.4011551862      -0.0000037302     1.000000    0.00070992
   44      -16.4011585211      -0.0000033349     1.000000    0.00067108
   45      -16.4011615035      -0.0000029824     1.000000    0.00063451
   46      -16.4011641716      -0.0000026682     1.000000    0.00060009
   47      -16.4011665600      -0.0000023884     1.000000    0.00056770
   48      -16.4011686994      -0.0000021394     1.000000    0.00053723
   49      -16.4011706175      -0.0000019181     1.000000    0.00050858
   50      -16.4011723392      -0.0000017216     1.000000    0.00048164
   51      -16.4011738865      -0.0000015474     1.000000    0.00045632
   52      -16.4011752795      -0.0000013930     1.000000    0.00043253
   53      -16.4011765359      -0.0000012564     1.000000    0.00041020
   54      -16.4011776717      -0.0000011358     1.000000    0.00038923
   55      -16.4011787013      -0.0000010295     1.000000    0.00036956
   56      -16.4011796373      -0.0000009360     1.000000    0.00035111
   57      -16.4011804914      -0.0000008540     1.000000    0.00033381
   58      -16.4011812737      -0.0000007823     1.000000    0.00031761
   59      -16.4011819934      -0.0000007198     1.000000    0.00030244
   60      -16.4011826590      -0.0000006655     1.000000    0.00028826
   61      -16.4011832777      -0.0000006187     1.000000    0.00027499
   62      -16.4011838564      -0.0000005786     1.000000    0.00026260
   63      -16.4011844009      -0.0000005446     1.000000    0.00025104
   64      -16.4011849168      -0.0000005159     1.000000    0.00024026
   65      -16.4011854090      -0.0000004922     1.000000    0.00023022
   66      -16.4011858819      -0.0000004729     1.000000    0.00022088
   67      -16.4011863396      -0.0000004577     1.000000    0.00021221
   68      -16.4011867858      -0.0000004462     1.000000    0.00020416
   69      -16.4011872238      -0.0000004380     1.000000    0.00019671
   70      -16.4011876568      -0.0000004330     1.000000    0.00018983
   71      -16.4011880877      -0.0000004309     1.000000    0.00018348
   72      -16.4011885191      -0.0000004314     1.000000    0.00017764
   73      -16.4011889534      -0.0000004344     1.000000    0.00017228
   74      -16.4011893931      -0.0000004397     1.000000    0.00016739
   75      -16.4011898404      -0.0000004473     1.000000    0.00016292
   76      -16.4011902973      -0.0000004569     1.000000    0.00015888
   77      -16.4011907658      -0.0000004685     1.000000    0.00015523
   78      -16.4011912480      -0.0000004821     1.000000    0.00015195
   79      -16.4011917456      -0.0000004976     1.000000    0.00014904
   80      -16.4011922604      -0.0000005149     1.000000    0.00014646
   81      -16.4011927944      -0.0000005340     1.000000    0.00014422
   82      -16.4011933493      -0.0000005549     1.000000    0.00014229
   83      -16.4011939269      -0.0000005775     1.000000    0.00014066
   84      -16.4011945289      -0.0000006020     1.000000    0.00014009
   85      -16.4011951571      -0.0000006282     1.000000    0.00014362
   86      -16.4011958134      -0.0000006563     1.000000    0.00014725
   87      -16.4011964995      -0.0000006862     1.000000    0.00015097
   88      -16.4011972174      -0.0000007179     1.000000    0.00015480
   89      -16.4011979690      -0.0000007516     1.000000    0.00015874
   90      -16.4011987562      -0.0000007872     1.000000    0.00016277
   91      -16.4011995811      -0.0000008248     1.000000    0.00016692
   92      -16.4012004456      -0.0000008645     1.000000    0.00017117
   93      -16.4012013520      -0.0000009064     1.000000    0.00017553
   94      -16.4012023024      -0.0000009504     1.000000    0.00018001
   95      -16.4012032992      -0.0000009968     1.000000    0.00018460
   96      -16.4012043447      -0.0000010455     1.000000    0.00018931
   97      -16.4012054413      -0.0000010966     1.000000    0.00019413
   98      -16.4012065916      -0.0000011503     1.000000    0.00019907
   99      -16.4012077982      -0.0000012066     1.000000    0.00020414
  100      -16.4012090638      -0.0000012656     1.000000    0.00020933
  101      -16.4012103912      -0.0000013275     1.000000    0.00021464
  102      -16.4012117835      -0.0000013922     1.000000    0.00022008
  103      -16.4012132435      -0.0000014601     1.000000    0.00022565
  104      -16.4012147745      -0.0000015310     1.000000    0.00023134
  105      -16.4012163798      -0.0000016052     1.000000    0.00023717
  106      -16.4012180626      -0.0000016828     1.000000    0.00024314
  107      -16.4012198266      -0.0000017639     1.000000    0.00024923
  108      -16.4012216752      -0.0000018487     1.000000    0.00025546
  109      -16.4012236124      -0.0000019371     1.000000    0.00026183
  110      -16.4012256418      -0.0000020295     1.000000    0.00026833
  111      -16.4012277676      -0.0000021258     1.000000    0.00027497
  112      -16.4012299939      -0.0000022262     1.000000    0.00028175
  113      -16.4012323248      -0.0000023309     1.000000    0.00028867
  114      -16.4012347648      -0.0000024400     1.000000    0.00029572
  115      -16.4012373184      -0.0000025536     1.000000    0.00030291
  116      -16.4012399902      -0.0000026718     1.000000    0.00031025
  117      -16.4012427848      -0.0000027947     1.000000    0.00031771
  118      -16.4012457073      -0.0000029225     1.000000    0.00032532
  119      -16.4012487625      -0.0000030552     1.000000    0.00033306
  120      -16.4012519556      -0.0000031931     1.000000    0.00034093
  121      -16.4012552917      -0.0000033361     1.000000    0.00034893
  122      -16.4012587761      -0.0000034844     1.000000    0.00035706
  123      -16.4012624142      -0.0000036381     1.000000    0.00036579
  124      -16.4012662114      -0.0000037972     1.000000    0.00037524
  125      -16.4012701733      -0.0000039619     1.000000    0.00038487
  126      -16.4012743054      -0.0000041321     1.000000    0.00039469
  127      -16.4012786133      -0.0000043079     1.000000    0.00040469
  128      -16.4012831028      -0.0000044894     1.000000    0.00041487
  129      -16.4012877793      -0.0000046766     1.000000    0.00042522
  130      -16.4012926487      -0.0000048694     1.000000    0.00043574
  131      -16.4012977166      -0.0000050678     1.000000    0.00044642
  132      -16.4013029884      -0.0000052719     1.000000    0.00045726
  133      -16.4013084698      -0.0000054814     1.000000    0.00046826
  134      -16.4013141662      -0.0000056964     1.000000    0.00047940
  135      -16.4013200830      -0.0000059167     1.000000    0.00049068
  136      -16.4013262252      -0.0000061422     1.000000    0.00050208
  137      -16.4013325979      -0.0000063727     1.000000    0.00051360
  138      -16.4013392059      -0.0000066080     1.000000    0.00052523
  139      -16.4013460539      -0.0000068479     1.000000    0.00053695
  140      -16.4013531460      -0.0000070921     1.000000    0.00054875
  141      -16.4013604864      -0.0000073404     1.000000    0.00056063
  142      -16.4013680787      -0.0000075923     1.000000    0.00057255
  143      -16.4013759263      -0.0000078476     1.000000    0.00058452
  144      -16.4013840321      -0.0000081058     1.000000    0.00059650
  145      -16.4013923985      -0.0000083665     1.000000    0.00060849
  146      -16.4014010277      -0.0000086292     1.000000    0.00062046
  147      -16.4014099211      -0.0000088934     1.000000    0.00063241
  148      -16.4014190797      -0.0000091586     1.000000    0.00064429
  149      -16.4014285040      -0.0000094243     1.000000    0.00065610
  150      -16.4014381937      -0.0000096897     1.000000    0.00066782
  151      -16.4014481481      -0.0000099544     1.000000    0.00067941
  152      -16.4014583657      -0.0000102176     1.000000    0.00069087
  153      -16.4014688442      -0.0000104786     1.000000    0.00070215
  154      -16.4014795810      -0.0000107367     1.000000    0.00071325
  155      -16.4014905723      -0.0000109913     1.000000    0.00072413
  156      -16.4015018139      -0.0000112416     1.000000    0.00073478
  157      -16.4015133008      -0.0000114868     1.000000    0.00074516
  158      -16.4015250271      -0.0000117263     1.000000    0.00075526
  159      -16.4015369862      -0.0000119591     1.000000    0.00076504
  160      -16.4015491709      -0.0000121847     1.000000    0.00077449
  161      -16.4015615732      -0.0000124023     1.000000    0.00078357
  162      -16.4015741842      -0.0000126110     1.000000    0.00079228
  163      -16.4015869946      -0.0000128104     1.000000    0.00080058
  164      -16.4015999942      -0.0000129996     1.000000    0.00080846
  165      -16.4016131721      -0.0000131780     1.000000    0.00081588
  166      -16.4016265171      -0.0000133450     1.000000    0.00082285
  167      -16.4016400172      -0.0000135001     1.000000    0.00082932
  168      -16.4016536598      -0.0000136426     1.000000    0.00083530
  169      -16.4016674321      -0.0000137723     1.000000    0.00084076
  170      -16.4016813206      -0.0000138885     1.000000    0.00084570
  171      -16.4016953117      -0.0000139910     1.000000    0.00085009
  172      -16.4017093912      -0.0000140795     1.000000    0.00085393
  173      -16.4017235449      -0.0000141537     1.000000    0.00085721
  174      -16.4017377583      -0.0000142134     1.000000    0.00085992
  175      -16.4017520168      -0.0000142586     1.000000    0.00086207
  176      -16.4017663059      -0.0000142891     1.000000    0.00086364
  177      -16.4017806109      -0.0000143050     1.000000    0.00086464
  178      -16.4017949172      -0.0000143063     1.000000    0.00086506
  179      -16.4018092105      -0.0000142933     1.000000    0.00086492
  180      -16.4018234766      -0.0000142661     1.000000    0.00086421
  181      -16.4018377016      -0.0000142250     1.000000    0.00086295
  182      -16.4018518719      -0.0000141702     1.000000    0.00086113
  183      -16.4018659741      -0.0000141023     1.000000    0.00085878
  184      -16.4018799956      -0.0000140215     1.000000    0.00085591
  185      -16.4018939239      -0.0000139283     1.000000    0.00085252
  186      -16.4019077471      -0.0000138233     1.000000    0.00084863
  187      -16.4019214540      -0.0000137069     1.000000    0.00084426
  188      -16.4019350338      -0.0000135798     1.000000    0.00083942
  189      -16.4019484763      -0.0000134425     1.000000    0.00083414
  190      -16.4019617720      -0.0000132957     1.000000    0.00082842
  191      -16.4019749119      -0.0000131399     1.000000    0.00082230
  192      -16.4019878877      -0.0000129758     1.000000    0.00081579
  193      -16.4020006918      -0.0000128041     1.000000    0.00080892
  194      -16.4020133172      -0.0000126254     1.000000    0.00080169
  195      -16.4020257575      -0.0000124403     1.000000    0.00079414
  196      -16.4020380070      -0.0000122495     1.000000    0.00078629
  197      -16.4020500606      -0.0000120536     1.000000    0.00077815
  198      -16.4020619139      -0.0000118533     1.000000    0.00076976
  199      -16.4020735629      -0.0000116491     1.000000    0.00076112
  200      -16.4020850045      -0.0000114416     1.000000    0.00075227
  201      -16.4020962359      -0.0000112314     1.000000    0.00074322
  202      -16.4021072550      -0.0000110191     1.000000    0.00073399
  203      -16.4021180601      -0.0000108051     1.000000    0.00072461
  204      -16.4021286501      -0.0000105900     1.000000    0.00071508
  205      -16.4021390243      -0.0000103742     1.000000    0.00070544
  206      -16.4021491826      -0.0000101582     1.000000    0.00069570
  207      -16.4021591250      -0.0000099425     1.000000    0.00068587
  208      -16.4021688523      -0.0000097273     1.000000    0.00067598
  209      -16.4021783654      -0.0000095131     1.000000    0.00066603
  210      -16.4021876655      -0.0000093002     1.000000    0.00065605
  211      -16.4021967544      -0.0000090889     1.000000    0.00064605
  212      -16.4022056339      -0.0000088795     1.000000    0.00063604
  213      -16.4022143062      -0.0000086723     1.000000    0.00062604
  214      -16.4022227736      -0.0000084675     1.000000    0.00061605
  215      -16.4022310390      -0.0000082653     1.000000    0.00060610
  216      -16.4022391049      -0.0000080659     1.000000    0.00059618
  217      -16.4022469745      -0.0000078696     1.000000    0.00058632
  218      -16.4022546508      -0.0000076763     1.000000    0.00057651
  219      -16.4022621372      -0.0000074864     1.000000    0.00056677
  220      -16.4022694370      -0.0000072998     1.000000    0.00055711
  221      -16.4022765536      -0.0000071167     1.000000    0.00054754
  222      -16.4022834907      -0.0000069371     1.000000    0.00053805
  223      -16.4022902518      -0.0000067611     1.000000    0.00052866
  224      -16.4022968406      -0.0000065888     1.000000    0.00051937
  225      -16.4023032608      -0.0000064202     1.000000    0.00051019
  226      -16.4023095162      -0.0000062553     1.000000    0.00050112
  227      -16.4023156103      -0.0000060942     1.000000    0.00049217
  228      -16.4023215471      -0.0000059367     1.000000    0.00048333
  229      -16.4023273301      -0.0000057830     1.000000    0.00047462
  230      -16.4023329631      -0.0000056330     1.000000    0.00046603
  231      -16.4023384498      -0.0000054867     1.000000    0.00045757
  232      -16.4023437939      -0.0000053441     1.000000    0.00044924
  233      -16.4023489989      -0.0000052050     1.000000    0.00044103
  234      -16.4023540684      -0.0000050695     1.000000    0.00043296
  235      -16.4023590060      -0.0000049376     1.000000    0.00042502
  236      -16.4023638151      -0.0000048091     1.000000    0.00041722
  237      -16.4023684991      -0.0000046840     1.000000    0.00040955
  238      -16.4023730615      -0.0000045623     1.000000    0.00040201
  239      -16.4023775054      -0.0000044439     1.000000    0.00039460
  240      -16.4023818342      -0.0000043288     1.000000    0.00038733
  241      -16.4023860510      -0.0000042168     1.000000    0.00038018
  242      -16.4023901588      -0.0000041079     1.000000    0.00037317
  243      -16.4023941609      -0.0000040020     1.000000    0.00036629
  244      -16.4023980600      -0.0000038991     1.000000    0.00035954
  245      -16.4024018591      -0.0000037991     1.000000    0.00035292
  246      -16.4024055611      -0.0000037020     1.000000    0.00034643
  247      -16.4024091687      -0.0000036076     1.000000    0.00034006
  248      -16.4024126846      -0.0000035159     1.000000    0.00033381
  249      -16.4024161113      -0.0000034268     1.000000    0.00032769
  250      -16.4024194515      -0.0000033402     1.000000    0.00032169
  251      -16.4024227077      -0.0000032562     1.000000    0.00031581
  252      -16.4024258822      -0.0000031745     1.000000    0.00031005
  253      -16.4024289774      -0.0000030952     1.000000    0.00030440
  254      -16.4024319956      -0.0000030182     1.000000    0.00029887
  255      -16.4024349391      -0.0000029434     1.000000    0.00029345
  256      -16.4024378098      -0.0000028708     1.000000    0.00028814
  257      -16.4024406101      -0.0000028003     1.000000    0.00028294
  258      -16.4024433419      -0.0000027318     1.000000    0.00027784
  259      -16.4024460071      -0.0000026652     1.000000    0.00027285
  260      -16.4024486077      -0.0000026006     1.000000    0.00026797
  261      -16.4024511456      -0.0000025379     1.000000    0.00026318
  262      -16.4024536226      -0.0000024769     1.000000    0.00025849
  263      -16.4024560403      -0.0000024178     1.000000    0.00025391
  264      -16.4024584006      -0.0000023603     1.000000    0.00024941
  265      -16.4024607050      -0.0000023044     1.000000    0.00024501
  266      -16.4024629551      -0.0000022502     1.000000    0.00024070
  267      -16.4024651526      -0.0000021975     1.000000    0.00023648
  268      -16.4024672989      -0.0000021463     1.000000    0.00023235
  269      -16.4024693954      -0.0000020965     1.000000    0.00022830
  270      -16.4024714436      -0.0000020482     1.000000    0.00022434
  271      -16.4024734448      -0.0000020012     1.000000    0.00022046
  272      -16.4024754004      -0.0000019556     1.000000    0.00021666
  273      -16.4024773116      -0.0000019112     1.000000    0.00021294
  274      -16.4024791797      -0.0000018681     1.000000    0.00020929
  275      -16.4024810059      -0.0000018262     1.000000    0.00020573
  276      -16.4024827913      -0.0000017854     1.000000    0.00020223
  277      -16.4024845371      -0.0000017458     1.000000    0.00019881
  278      -16.4024862444      -0.0000017073     1.000000    0.00019546
  279      -16.4024879143      -0.0000016698     1.000000    0.00019217
  280      -16.4024895477      -0.0000016334     1.000000    0.00018896
  281      -16.4024911457      -0.0000015980     1.000000    0.00018581
  282      -16.4024927092      -0.0000015635     1.000000    0.00018272
  283      -16.4024942392      -0.0000015300     1.000000    0.00017970
  284      -16.4024957366      -0.0000014974     1.000000    0.00017674
  285      -16.4024972023      -0.0000014657     1.000000    0.00017384
  286      -16.4024986371      -0.0000014348     1.000000    0.00017100
  287      -16.4025000418      -0.0000014047     1.000000    0.00016822
  288      -16.4025014173      -0.0000013755     1.000000    0.00016549
  289      -16.4025027643      -0.0000013470     1.000000    0.00016281
  290      -16.4025040835      -0.0000013193     1.000000    0.00016019
  291      -16.4025053758      -0.0000012923     1.000000    0.00015763
  292      -16.4025066418      -0.0000012660     1.000000    0.00015609
  293      -16.4025078822      -0.0000012404     1.000000    0.00015465
  294      -16.4025090976      -0.0000012155     1.000000    0.00015323
  295      -16.4025102888      -0.0000011912     1.000000    0.00015182
  296      -16.4025114563      -0.0000011675     1.000000    0.00015044
  297      -16.4025126007      -0.0000011444     1.000000    0.00014907
  298      -16.4025137227      -0.0000011220     1.000000    0.00014772
  299      -16.4025148228      -0.0000011001     1.000000    0.00014639
  300      -16.4025159016      -0.0000010787     1.000000    0.00014507
  301      -16.4025169595      -0.0000010579     1.000000    0.00014377
  302      -16.4025179972      -0.0000010377     1.000000    0.00014249
  303      -16.4025190151      -0.0000010179     1.000000    0.00014123
  304      -16.4025200137      -0.0000009986     1.000000    0.00013998
  305      -16.4025209935      -0.0000009798     1.000000    0.00013875
  306      -16.4025219549      -0.0000009615     1.000000    0.00013753
  307      -16.4025228985      -0.0000009436     1.000000    0.00013633
  308      -16.4025238246      -0.0000009261     1.000000    0.00013515
  309      -16.4025247337      -0.0000009091     1.000000    0.00013398
  310      -16.4025256261      -0.0000008925     1.000000    0.00013283
  311      -16.4025265024      -0.0000008762     1.000000    0.00013169
  312      -16.4025273628      -0.0000008604     1.000000    0.00013056
  313      -16.4025282077      -0.0000008450     1.000000    0.00012945
  314      -16.4025290376      -0.0000008299     1.000000    0.00012836
  315      -16.4025298528      -0.0000008151     1.000000    0.00012728
  316      -16.4025306535      -0.0000008008     1.000000    0.00012621
  317      -16.4025314402      -0.0000007867     1.000000    0.00012516
  318      -16.4025322132      -0.0000007730     1.000000    0.00012412
  319      -16.4025329728      -0.0000007596     1.000000    0.00012309
  320      -16.4025337193      -0.0000007465     1.000000    0.00012208
  321      -16.4025344530      -0.0000007337     1.000000    0.00012107
  322      -16.4025351741      -0.0000007212     1.000000    0.00012009
  323      -16.4025358831      -0.0000007090     1.000000    0.00011911
  324      -16.4025365802      -0.0000006970     1.000000    0.00011815
  325      -16.4025372655      -0.0000006854     1.000000    0.00011720
  326      -16.4025379395      -0.0000006739     1.000000    0.00011626
  327      -16.4025386023      -0.0000006628     1.000000    0.00011533
  328      -16.4025392541      -0.0000006519     1.000000    0.00011441
  329      -16.4025398953      -0.0000006412     1.000000    0.00011351
  330      -16.4025405261      -0.0000006308     1.000000    0.00011262
  331      -16.4025411467      -0.0000006206     1.000000    0.00011177
  332      -16.4025417573      -0.0000006106     1.000000    0.00011100
  333      -16.4025423581      -0.0000006008     1.000000    0.00011024
  334      -16.4025429494      -0.0000005913     1.000000    0.00010948
  335      -16.4025435313      -0.0000005819     1.000000    0.00010874
  336      -16.4025441041      -0.0000005728     1.000000    0.00010801
  337      -16.4025446679      -0.0000005638     1.000000    0.00010728
  338      -16.4025452229      -0.0000005550     1.000000    0.00010656
  339      -16.4025457694      -0.0000005465     1.000000    0.00010585
  340      -16.4025463074      -0.0000005381     1.000000    0.00010514
  341      -16.4025468373      -0.0000005298     1.000000    0.00010444
  342      -16.4025473590      -0.0000005218     1.000000    0.00010376
  343      -16.4025478729      -0.0000005139     1.000000    0.00010307
  344      -16.4025483790      -0.0000005061     1.000000    0.00010240
  345      -16.4025488776      -0.0000004986     1.000000    0.00010173
  346      -16.4025493688      -0.0000004912     1.000000    0.00010107
  347      -16.4025498527      -0.0000004839     1.000000    0.00010042
  348      -16.4025503295      -0.0000004768     1.000000    0.00009977
  349      -16.4025507992      -0.0000004698     1.000000    0.00009913
  350      -16.4025512622      -0.0000004630     1.000000    0.00009850
  351      -16.4025517185      -0.0000004563     1.000000    0.00009787
  352      -16.4025521682      -0.0000004497     1.000000    0.00009725
  353      -16.4025526114      -0.0000004433     1.000000    0.00009664
  354      -16.4025530483      -0.0000004369     1.000000    0.00009603
  355      -16.4025534791      -0.0000004307     1.000000    0.00009543
  356      -16.4025539038      -0.0000004247     1.000000    0.00009484
  357      -16.4025543225      -0.0000004187     1.000000    0.00009425
  358      -16.4025547354      -0.0000004129     1.000000    0.00009367
  359      -16.4025551425      -0.0000004072     1.000000    0.00009309
  360      -16.4025555441      -0.0000004015     1.000000    0.00009252
  361      -16.4025559401      -0.0000003960     1.000000    0.00009196
  362      -16.4025563308      -0.0000003906     1.000000    0.00009140
  363      -16.4025567161      -0.0000003853     1.000000    0.00009085
  364      -16.4025570962      -0.0000003801     1.000000    0.00009030
  365      -16.4025574712      -0.0000003750     1.000000    0.00008976
  366      -16.4025578412      -0.0000003700     1.000000    0.00008922
  367      -16.4025582063      -0.0000003651     1.000000    0.00008869
  368      -16.4025585665      -0.0000003602     1.000000    0.00008817
  369      -16.4025589220      -0.0000003555     1.000000    0.00008765
  370      -16.4025592729      -0.0000003509     1.000000    0.00008713
  371      -16.4025596192      -0.0000003463     1.000000    0.00008662
  372      -16.4025599610      -0.0000003418     1.000000    0.00008612
  373      -16.4025602984      -0.0000003374     1.000000    0.00008562
  374      -16.4025606314      -0.0000003331     1.000000    0.00008512
  375      -16.4025609602      -0.0000003288     1.000000    0.00008463
  376      -16.4025612848      -0.0000003246     1.000000    0.00008415
  377      -16.4025616054      -0.0000003205     1.000000    0.00008367
  378      -16.4025619219      -0.0000003165     1.000000    0.00008319
  379      -16.4025622344      -0.0000003125     1.000000    0.00008272
  380      -16.4025625431      -0.0000003086     1.000000    0.00008225
  381      -16.4025628479      -0.0000003048     1.000000    0.00008179
  382      -16.4025631489      -0.0000003011     1.000000    0.00008134
  383      -16.4025634463      -0.0000002974     1.000000    0.00008088
  384      -16.4025637401      -0.0000002937     1.000000    0.00008043
  385      -16.4025640302      -0.0000002902     1.000000    0.00007999
  386      -16.4025643169      -0.0000002867     1.000000    0.00007955
  387      -16.4025646001      -0.0000002832     1.000000    0.00007911
  388      -16.4025648800      -0.0000002798     1.000000    0.00007868
  389      -16.4025651564      -0.0000002765     1.000000    0.00007825
  390      -16.4025654297      -0.0000002732     1.000000    0.00007783
  391      -16.4025656997      -0.0000002700     1.000000    0.00007741
  392      -16.4025659665      -0.0000002668     1.000000    0.00007699
  393      -16.4025662302      -0.0000002637     1.000000    0.00007658
  394      -16.4025664909      -0.0000002606     1.000000    0.00007617
  395      -16.4025667485      -0.0000002576     1.000000    0.00007577
  396      -16.4025670031      -0.0000002547     1.000000    0.00007537
  397      -16.4025672549      -0.0000002517     1.000000    0.00007497
  398      -16.4025675038      -0.0000002489     1.000000    0.00007458
  399      -16.4025677498      -0.0000002460     1.000000    0.00007419
  400      -16.4025679931      -0.0000002433     1.000000    0.00007380
  401      -16.4025682336      -0.0000002405     1.000000    0.00007342
  402      -16.4025684714      -0.0000002378     1.000000    0.00007304
  403      -16.4025687066      -0.0000002352     1.000000    0.00007267
  404      -16.4025689392      -0.0000002326     1.000000    0.00007230
  405      -16.4025691692      -0.0000002300     1.000000    0.00007193
  406      -16.4025693967      -0.0000002275     1.000000    0.00007156
  407      -16.4025696216      -0.0000002250     1.000000    0.00007120
  408      -16.4025698442      -0.0000002225     1.000000    0.00007084
  409      -16.4025700643      -0.0000002201     1.000000    0.00007048
  410      -16.4025702821      -0.0000002177     1.000000    0.00007013
  411      -16.4025704975      -0.0000002154     1.000000    0.00006978
  412      -16.4025707106      -0.0000002131     1.000000    0.00006944
  413      -16.4025709214      -0.0000002108     1.000000    0.00006909
  414      -16.4025711300      -0.0000002086     1.000000    0.00006875
  415      -16.4025713364      -0.0000002064     1.000000    0.00006842
  416      -16.4025715407      -0.0000002042     1.000000    0.00006808
  417      -16.4025717427      -0.0000002021     1.000000    0.00006775
  418      -16.4025719427      -0.0000002000     1.000000    0.00006742
  419      -16.4025721407      -0.0000001979     1.000000    0.00006709
  420      -16.4025723365      -0.0000001959     1.000000    0.00006677
  421      -16.4025725304      -0.0000001939     1.000000    0.00006645
  422      -16.4025727223      -0.0000001919     1.000000    0.00006613
  423      -16.4025729122      -0.0000001899     1.000000    0.00006582
  424      -16.4025731002      -0.0000001880     1.000000    0.00006551
  425      -16.4025732863      -0.0000001861     1.000000    0.00006520
  426      -16.4025734706      -0.0000001842     1.000000    0.00006489
  427      -16.4025736530      -0.0000001824     1.000000    0.00006459
  428      -16.4025738335      -0.0000001806     1.000000    0.00006428
  429      -16.4025740123      -0.0000001788     1.000000    0.00006399
  430      -16.4025741893      -0.0000001770     1.000000    0.00006369
  431      -16.4025743646      -0.0000001753     1.000000    0.00006339
  432      -16.4025745382      -0.0000001736     1.000000    0.00006310
  433      -16.4025747100      -0.0000001719     1.000000    0.00006281
  434      -16.4025748802      -0.0000001702     1.000000    0.00006253
  435      -16.4025750488      -0.0000001685     1.000000    0.00006224
  436      -16.4025752157      -0.0000001669     1.000000    0.00006196
  437      -16.4025753810      -0.0000001653     1.000000    0.00006168
  438      -16.4025755448      -0.0000001637     1.000000    0.00006140
  439      -16.4025757069      -0.0000001622     1.000000    0.00006113
  440      -16.4025758676      -0.0000001607     1.000000    0.00006085
  441      -16.4025760267      -0.0000001591     1.000000    0.00006058
  442      -16.4025761844      -0.0000001576     1.000000    0.00006031
  443      -16.4025763405      -0.0000001562     1.000000    0.00006005
  444      -16.4025764952      -0.0000001547     1.000000    0.00005978
  445      -16.4025766485      -0.0000001533     1.000000    0.00005952
  446      -16.4025768004      -0.0000001519     1.000000    0.00005926
  447      -16.4025769508      -0.0000001505     1.000000    0.00005900
  448      -16.4025770999      -0.0000001491     1.000000    0.00005874
  449      -16.4025772476      -0.0000001477     1.000000    0.00005849
  450      -16.4025773940      -0.0000001464     1.000000    0.00005824
  451      -16.4025775391      -0.0000001451     1.000000    0.00005799
  452      -16.4025776828      -0.0000001437     1.000000    0.00005774
  453      -16.4025778253      -0.0000001425     1.000000    0.00005749
  454      -16.4025779665      -0.0000001412     1.000000    0.00005725
  455      -16.4025781064      -0.0000001399     1.000000    0.00005700
  456      -16.4025782451      -0.0000001387     1.000000    0.00005676
  457      -16.4025783825      -0.0000001375     1.000000    0.00005653
  458      -16.4025785187      -0.0000001362     1.000000    0.00005629
  459      -16.4025786538      -0.0000001350     1.000000    0.00005605
  460      -16.4025787877      -0.0000001339     1.000000    0.00005582
  461      -16.4025789204      -0.0000001327     1.000000    0.00005559
  462      -16.4025790519      -0.0000001316     1.000000    0.00005536
  463      -16.4025791823      -0.0000001304     1.000000    0.00005513
  464      -16.4025793116      -0.0000001293     1.000000    0.00005490
  465      -16.4025794398      -0.0000001282     1.000000    0.00005468
  466      -16.4025795669      -0.0000001271     1.000000    0.00005445
  467      -16.4025796929      -0.0000001260     1.000000    0.00005423
  468      -16.4025798179      -0.0000001249     1.000000    0.00005401
  469      -16.4025799418      -0.0000001239     1.000000    0.00005380
  470      -16.4025800646      -0.0000001228     1.000000    0.00005358
  471      -16.4025801864      -0.0000001218     1.000000    0.00005336
  472      -16.4025803072      -0.0000001208     1.000000    0.00005315
  473      -16.4025804270      -0.0000001198     1.000000    0.00005294
  474      -16.4025805458      -0.0000001188     1.000000    0.00005273
  475      -16.4025806637      -0.0000001178     1.000000    0.00005252
  476      -16.4025807805      -0.0000001169     1.000000    0.00005231
  477      -16.4025808964      -0.0000001159     1.000000    0.00005211
  478      -16.4025810114      -0.0000001150     1.000000    0.00005190
  479      -16.4025811254      -0.0000001140     1.000000    0.00005170
  480      -16.4025812385      -0.0000001131     1.000000    0.00005150
  481      -16.4025813507      -0.0000001122     1.000000    0.00005130
  482      -16.4025814620      -0.0000001113     1.000000    0.00005110
  483      -16.4025815724      -0.0000001104     1.000000    0.00005090
  484      -16.4025816819      -0.0000001095     1.000000    0.00005071
  485      -16.4025817906      -0.0000001086     1.000000    0.00005051
  486      -16.4025818984      -0.0000001078     1.000000    0.00005032
  487      -16.4025820053      -0.0000001069     1.000000    0.00005013
  488      -16.4025821114      -0.0000001061     1.000000    0.00004994
  489      -16.4025822167      -0.0000001053     1.000000    0.00004975
  490      -16.4025823211      -0.0000001044     1.000000    0.00004956
  491      -16.4025824247      -0.0000001036     1.000000    0.00004938
  492      -16.4025825276      -0.0000001028     1.000000    0.00004919
  493      -16.4025826296      -0.0000001020     1.000000    0.00004901
  494      -16.4025827308      -0.0000001012     1.000000    0.00004883
  495      -16.4025828313      -0.0000001005     1.000000    0.00004864
  496      -16.4025829310      -0.0000000997     1.000000    0.00004846
  497      -16.4025830300      -0.0000000989     1.000000    0.00004829
  498      -16.4025831282      -0.0000000982     1.000000    0.00004811
  499      -16.4025832256      -0.0000000975     1.000000    0.00004793
  500      -16.4025833223      -0.0000000967     1.000000    0.00004776
  501      -16.4025834183      -0.0000000960     1.000000    0.00004758
  502      -16.4025835136      -0.0000000953     1.000000    0.00004741
  503      -16.4025836082      -0.0000000946     1.000000    0.00004724
  504      -16.4025837020      -0.0000000939     1.000000    0.00004707
  505      -16.4025837952      -0.0000000932     1.000000    0.00004690
  506      -16.4025838877      -0.0000000925     1.000000    0.00004673
  507      -16.4025839795      -0.0000000918     1.000000    0.00004656
  508      -16.4025840706      -0.0000000911     1.000000    0.00004640
  509      -16.4025841611      -0.0000000905     1.000000    0.00004623
  510      -16.4025842509      -0.0000000898     1.000000    0.00004607
  511      -16.4025843401      -0.0000000892     1.000000    0.00004591
  512      -16.4025844286      -0.0000000885     1.000000    0.00004575
  513      -16.4025845164      -0.0000000879     1.000000    0.00004558
  514      -16.4025846037      -0.0000000872     1.000000    0.00004543
  515      -16.4025846903      -0.0000000866     1.000000    0.00004527
  516      -16.4025847763      -0.0000000860     1.000000    0.00004511
  517      -16.4025848617      -0.0000000854     1.000000    0.00004495
  518      -16.4025849465      -0.0000000848     1.000000    0.00004480
  519      -16.4025850307      -0.0000000842     1.000000    0.00004464
  520      -16.4025851143      -0.0000000836     1.000000    0.00004449
  521      -16.4025851973      -0.0000000830     1.000000    0.00004434
  522      -16.4025852797      -0.0000000824     1.000000    0.00004419
  523      -16.4025853616      -0.0000000819     1.000000    0.00004404
  524      -16.4025854428      -0.0000000813     1.000000    0.00004389
  525      -16.4025855236      -0.0000000807     1.000000    0.00004374
  526      -16.4025856037      -0.0000000802     1.000000    0.00004359
  527      -16.4025856834      -0.0000000796     1.000000    0.00004344
  528      -16.4025857624      -0.0000000791     1.000000    0.00004330
  529      -16.4025858410      -0.0000000785     1.000000    0.00004315
  530      -16.4025859190      -0.0000000780     1.000000    0.00004301
  531      -16.4025859964      -0.0000000775     1.000000    0.00004287
  532      -16.4025860734      -0.0000000769     1.000000    0.00004272
  533      -16.4025861498      -0.0000000764     1.000000    0.00004258
  534      -16.4025862257      -0.0000000759     1.000000    0.00004244
  535      -16.4025863011      -0.0000000754     1.000000    0.00004230
  536      -16.4025863760      -0.0000000749     1.000000    0.00004216
  537      -16.4025864504      -0.0000000744     1.000000    0.00004203
  538      -16.4025865243      -0.0000000739     1.000000    0.00004189
  539      -16.4025865978      -0.0000000734     1.000000    0.00004175
  540      -16.4025866707      -0.0000000729     1.000000    0.00004162
  541      -16.4025867431      -0.0000000725     1.000000    0.00004148
  542      -16.4025868151      -0.0000000720     1.000000    0.00004135
  543      -16.4025868866      -0.0000000715     1.000000    0.00004122
  544      -16.4025869577      -0.0000000710     1.000000    0.00004108
  545      -16.4025870283      -0.0000000706     1.000000    0.00004095
  546      -16.4025870984      -0.0000000701     1.000000    0.00004082
  547      -16.4025871681      -0.0000000697     1.000000    0.00004069
  548      -16.4025872373      -0.0000000692     1.000000    0.00004056
  549      -16.4025873061      -0.0000000688     1.000000    0.00004044
  550      -16.4025873744      -0.0000000683     1.000000    0.00004031
  551      -16.4025874423      -0.0000000679     1.000000    0.00004018
  552      -16.4025875098      -0.0000000675     1.000000    0.00004006
  553      -16.4025875769      -0.0000000671     1.000000    0.00003993
  554      -16.4025876435      -0.0000000666     1.000000    0.00003981
  555      -16.4025877097      -0.0000000662     1.000000    0.00003968
  556      -16.4025877755      -0.0000000658     1.000000    0.00003956
  557      -16.4025878409      -0.0000000654     1.000000    0.00003944
  558      -16.4025879059      -0.0000000650     1.000000    0.00003932
  559      -16.4025879704      -0.0000000646     1.000000    0.00003919
  560      -16.4025880346      -0.0000000642     1.000000    0.00003907
  561      -16.4025880984      -0.0000000638     1.000000    0.00003895
  562      -16.4025881618      -0.0000000634     1.000000    0.00003884
  563      -16.4025882248      -0.0000000630     1.000000    0.00003872
  564      -16.4025882874      -0.0000000626     1.000000    0.00003860
  565      -16.4025883496      -0.0000000622     1.000000    0.00003848
  566      -16.4025884114      -0.0000000618     1.000000    0.00003837
  567      -16.4025884729      -0.0000000615     1.000000    0.00003825
  568      -16.4025885340      -0.0000000611     1.000000    0.00003814
  569      -16.4025885947      -0.0000000607     1.000000    0.00003802
  570      -16.4025886551      -0.0000000604     1.000000    0.00003791
  571      -16.4025887151      -0.0000000600     1.000000    0.00003780
  572      -16.4025887747      -0.0000000596     1.000000    0.00003768
  573      -16.4025888340      -0.0000000593     1.000000    0.00003757
  574      -16.4025888929      -0.0000000589     1.000000    0.00003746
  575      -16.4025889515      -0.0000000586     1.000000    0.00003735
  576      -16.4025890098      -0.0000000582     1.000000    0.00003724
  577      -16.4025890677      -0.0000000579     1.000000    0.00003713
  578      -16.4025891252      -0.0000000576     1.000000    0.00003702
  579      -16.4025891824      -0.0000000572     1.000000    0.00003692
  580      -16.4025892393      -0.0000000569     1.000000    0.00003681
  581      -16.4025892959      -0.0000000566     1.000000    0.00003670
  582      -16.4025893521      -0.0000000562     1.000000    0.00003660
  583      -16.4025894080      -0.0000000559     1.000000    0.00003649
  584      -16.4025894636      -0.0000000556     1.000000    0.00003638
  585      -16.4025895188      -0.0000000553     1.000000    0.00003628
  586      -16.4025895737      -0.0000000549     1.000000    0.00003618
  587      -16.4025896284      -0.0000000546     1.000000    0.00003607
  588      -16.4025896827      -0.0000000543     1.000000    0.00003597
  589      -16.4025897367      -0.0000000540     1.000000    0.00003587
  590      -16.4025897904      -0.0000000537     1.000000    0.00003577
  591      -16.4025898438      -0.0000000534     1.000000    0.00003566
  592      -16.4025898968      -0.0000000531     1.000000    0.00003556
  593      -16.4025899496      -0.0000000528     1.000000    0.00003546
  594      -16.4025900021      -0.0000000525     1.000000    0.00003536
  595      -16.4025900543      -0.0000000522     1.000000    0.00003527
  596      -16.4025901062      -0.0000000519     1.000000    0.00003517
  597      -16.4025901578      -0.0000000516     1.000000    0.00003507
  598      -16.4025902092      -0.0000000513     1.000000    0.00003497
  599      -16.4025902602      -0.0000000510     1.000000    0.00003487
  600      -16.4025903110      -0.0000000508     1.000000    0.00003478
  601      -16.4025903614      -0.0000000505     1.000000    0.00003468
  602      -16.4025904117      -0.0000000502     1.000000    0.00003459
  603      -16.4025904616      -0.0000000499     1.000000    0.00003449
  604      -16.4025905112      -0.0000000497     1.000000    0.00003440
  605      -16.4025905606      -0.0000000494     1.000000    0.00003430
  606      -16.4025906097      -0.0000000491     1.000000    0.00003421
  607      -16.4025906586      -0.0000000488     1.000000    0.00003412
  608      -16.4025907072      -0.0000000486     1.000000    0.00003402
  609      -16.4025907555      -0.0000000483     1.000000    0.00003393
  610      -16.4025908036      -0.0000000481     1.000000    0.00003384
  611      -16.4025908514      -0.0000000478     1.000000    0.00003375
  612      -16.4025908989      -0.0000000475     1.000000    0.00003366
  613      -16.4025909462      -0.0000000473     1.000000    0.00003357
  614      -16.4025909932      -0.0000000470     1.000000    0.00003348
  615      -16.4025910400      -0.0000000468     1.000000    0.00003339
  616      -16.4025910866      -0.0000000465     1.000000    0.00003330
  617      -16.4025911329      -0.0000000463     1.000000    0.00003321
  618      -16.4025911789      -0.0000000461     1.000000    0.00003312
  619      -16.4025912248      -0.0000000458     1.000000    0.00003304
  620      -16.4025912703      -0.0000000456     1.000000    0.00003295
  621      -16.4025913157      -0.0000000453     1.000000    0.00003286
  622      -16.4025913608      -0.0000000451     1.000000    0.00003278
  623      -16.4025914056      -0.0000000449     1.000000    0.00003269
  624      -16.4025914503      -0.0000000446     1.000000    0.00003261
  625      -16.4025914947      -0.0000000444     1.000000    0.00003252
  626      -16.4025915388      -0.0000000442     1.000000    0.00003244
  627      -16.4025915828      -0.0000000439     1.000000    0.00003235
  628      -16.4025916265      -0.0000000437     1.000000    0.00003227
  629      -16.4025916700      -0.0000000435     1.000000    0.00003218
  630      -16.4025917133      -0.0000000433     1.000000    0.00003210
  631      -16.4025917563      -0.0000000431     1.000000    0.00003202
  632      -16.4025917991      -0.0000000428     1.000000    0.00003194
  633      -16.4025918418      -0.0000000426     1.000000    0.00003186
  634      -16.4025918842      -0.0000000424     1.000000    0.00003177
  635      -16.4025919263      -0.0000000422     1.000000    0.00003169
  636      -16.4025919683      -0.0000000420     1.000000    0.00003161
  637      -16.4025920101      -0.0000000418     1.000000    0.00003153
  638      -16.4025920516      -0.0000000416     1.000000    0.00003145
  639      -16.4025920930      -0.0000000413     1.000000    0.00003137
  640      -16.4025921341      -0.0000000411     1.000000    0.00003129
  641      -16.4025921751      -0.0000000409     1.000000    0.00003122
  642      -16.4025922158      -0.0000000407     1.000000    0.00003114
  643      -16.4025922563      -0.0000000405     1.000000    0.00003106
  644      -16.4025922967      -0.0000000403     1.000000    0.00003098
  645      -16.4025923368      -0.0000000401     1.000000    0.00003091
  646      -16.4025923767      -0.0000000399     1.000000    0.00003083
  647      -16.4025924165      -0.0000000397     1.000000    0.00003075
  648      -16.4025924560      -0.0000000395     1.000000    0.00003068
  649      -16.4025924954      -0.0000000394     1.000000    0.00003060
  650      -16.4025925345      -0.0000000392     1.000000    0.00003053
  651      -16.4025925735      -0.0000000390     1.000000    0.00003045
  652      -16.4025926123      -0.0000000388     1.000000    0.00003038
  653      -16.4025926509      -0.0000000386     1.000000    0.00003030
  654      -16.4025926893      -0.0000000384     1.000000    0.00003023
  655      -16.4025927275      -0.0000000382     1.000000    0.00003015
  656      -16.4025927656      -0.0000000380     1.000000    0.00003008
  657      -16.4025928034      -0.0000000379     1.000000    0.00003001
  658      -16.4025928411      -0.0000000377     1.000000    0.00002993
  659      -16.4025928786      -0.0000000375     1.000000    0.00002986
  660      -16.4025929159      -0.0000000373     1.000000    0.00002979
  661      -16.4025929531      -0.0000000371     1.000000    0.00002972
  662      -16.4025929900      -0.0000000370     1.000000    0.00002965
  663      -16.4025930268      -0.0000000368     1.000000    0.00002958
  664      -16.4025930635      -0.0000000366     1.000000    0.00002951
  665      -16.4025930999      -0.0000000365     1.000000    0.00002944
  666      -16.4025931362      -0.0000000363     1.000000    0.00002937
  667      -16.4025931723      -0.0000000361     1.000000    0.00002930
  668      -16.4025932082      -0.0000000359     1.000000    0.00002923
  669      -16.4025932440      -0.0000000358     1.000000    0.00002916
  670      -16.4025932796      -0.0000000356     1.000000    0.00002909
  671      -16.4025933151      -0.0000000354     1.000000    0.00002902
  672      -16.4025933504      -0.0000000353     1.000000    0.00002895
  673      -16.4025933855      -0.0000000351     1.000000    0.00002888
  674      -16.4025934204      -0.0000000350     1.000000    0.00002882
  675      -16.4025934552      -0.0000000348     1.000000    0.00002875
  676      -16.4025934899      -0.0000000346     1.000000    0.00002868
  677      -16.4025935243      -0.0000000345     1.000000    0.00002862
  678      -16.4025935587      -0.0000000343     1.000000    0.00002855
  679      -16.4025935928      -0.0000000342     1.000000    0.00002848
  680      -16.4025936268      -0.0000000340     1.000000    0.00002842
  681      -16.4025936607      -0.0000000339     1.000000    0.00002835
  682      -16.4025936944      -0.0000000337     1.000000    0.00002829
  683      -16.4025937280      -0.0000000336     1.000000    0.00002822
  684      -16.4025937614      -0.0000000334     1.000000    0.00002816
  685      -16.4025937946      -0.0000000333     1.000000    0.00002809
  686      -16.4025938277      -0.0000000331     1.000000    0.00002803
  687      -16.4025938607      -0.0000000330     1.000000    0.00002796
  688      -16.4025938935      -0.0000000328     1.000000    0.00002790
  689      -16.4025939262      -0.0000000327     1.000000    0.00002784
  690      -16.4025939587      -0.0000000325     1.000000    0.00002777
  691      -16.4025939911      -0.0000000324     1.000000    0.00002771
  692      -16.4025940233      -0.0000000322     1.000000    0.00002765
  693      -16.4025940554      -0.0000000321     1.000000    0.00002759
  694      -16.4025940873      -0.0000000320     1.000000    0.00002753
  695      -16.4025941191      -0.0000000318     1.000000    0.00002746
  696      -16.4025941508      -0.0000000317     1.000000    0.00002740
  697      -16.4025941823      -0.0000000315     1.000000    0.00002734
  698      -16.4025942137      -0.0000000314     1.000000    0.00002728
  699      -16.4025942450      -0.0000000313     1.000000    0.00002722
  700      -16.4025942761      -0.0000000311     1.000000    0.00002716
  701      -16.4025943071      -0.0000000310     1.000000    0.00002710
  702      -16.4025943380      -0.0000000309     1.000000    0.00002704
  703      -16.4025943687      -0.0000000307     1.000000    0.00002698
  704      -16.4025943993      -0.0000000306     1.000000    0.00002692
  705      -16.4025944297      -0.0000000305     1.000000    0.00002686
  706      -16.4025944601      -0.0000000303     1.000000    0.00002680
  707      -16.4025944903      -0.0000000302     1.000000    0.00002674
  708      -16.4025945203      -0.0000000301     1.000000    0.00002668
  709      -16.4025945503      -0.0000000299     1.000000    0.00002663
  710      -16.4025945801      -0.0000000298     1.000000    0.00002657
  711      -16.4025946098      -0.0000000297     1.000000    0.00002651
  712      -16.4025946394      -0.0000000296     1.000000    0.00002645
  713      -16.4025946688      -0.0000000294     1.000000    0.00002640
  714      -16.4025946981      -0.0000000293     1.000000    0.00002634
  715      -16.4025947273      -0.0000000292     1.000000    0.00002628
  716      -16.4025947564      -0.0000000291     1.000000    0.00002623
  717      -16.4025947853      -0.0000000289     1.000000    0.00002617
  718      -16.4025948141      -0.0000000288     1.000000    0.00002611
  719      -16.4025948428      -0.0000000287     1.000000    0.00002606
  720      -16.4025948714      -0.0000000286     1.000000    0.00002600
  721      -16.4025948999      -0.0000000285     1.000000    0.00002595
  722      -16.4025949283      -0.0000000284     1.000000    0.00002589
  723      -16.4025949565      -0.0000000282     1.000000    0.00002584
  724      -16.4025949846      -0.0000000281     1.000000    0.00002578
  725      -16.4025950126      -0.0000000280     1.000000    0.00002573
  726      -16.4025950405      -0.0000000279     1.000000    0.00002567
  727      -16.4025950683      -0.0000000278     1.000000    0.00002562
  728      -16.4025950959      -0.0000000277     1.000000    0.00002556
  729      -16.4025951235      -0.0000000275     1.000000    0.00002551
  730      -16.4025951509      -0.0000000274     1.000000    0.00002546
  731      -16.4025951782      -0.0000000273     1.000000    0.00002540
  732      -16.4025952055      -0.0000000272     1.000000    0.00002535
  733      -16.4025952326      -0.0000000271     1.000000    0.00002530
  734      -16.4025952595      -0.0000000270     1.000000    0.00002525
  735      -16.4025952864      -0.0000000269     1.000000    0.00002519
  736      -16.4025953132      -0.0000000268     1.000000    0.00002514
  737      -16.4025953399      -0.0000000267     1.000000    0.00002509
  738      -16.4025953664      -0.0000000266     1.000000    0.00002504
  739      -16.4025953929      -0.0000000265     1.000000    0.00002498
  740      -16.4025954192      -0.0000000263     1.000000    0.00002493
  741      -16.4025954455      -0.0000000262     1.000000    0.00002488
  742      -16.4025954716      -0.0000000261     1.000000    0.00002483
  743      -16.4025954977      -0.0000000260     1.000000    0.00002478
  744      -16.4025955236      -0.0000000259     1.000000    0.00002473
  745      -16.4025955494      -0.0000000258     1.000000    0.00002468
  746      -16.4025955752      -0.0000000257     1.000000    0.00002463
  747      -16.4025956008      -0.0000000256     1.000000    0.00002458
  748      -16.4025956263      -0.0000000255     1.000000    0.00002453
  749      -16.4025956517      -0.0000000254     1.000000    0.00002448
  750      -16.4025956771      -0.0000000253     1.000000    0.00002443
  751      -16.4025957023      -0.0000000252     1.000000    0.00002438
  752      -16.4025957274      -0.0000000251     1.000000    0.00002433
  753      -16.4025957525      -0.0000000250     1.000000    0.00002428
  754      -16.4025957774      -0.0000000249     1.000000    0.00002423
  755      -16.4025958022      -0.0000000248     1.000000    0.00002419
  756      -16.4025958270      -0.0000000247     1.000000    0.00002414
  757      -16.4025958516      -0.0000000246     1.000000    0.00002409
  758      -16.4025958762      -0.0000000246     1.000000    0.00002404
  759      -16.4025959006      -0.0000000245     1.000000    0.00002399
  760      -16.4025959250      -0.0000000244     1.000000    0.00002394
  761      -16.4025959493      -0.0000000243     1.000000    0.00002390
  762      -16.4025959734      -0.0000000242     1.000000    0.00002385
  763      -16.4025959975      -0.0000000241     1.000000    0.00002380
  764      -16.4025960215      -0.0000000240     1.000000    0.00002376
  765      -16.4025960454      -0.0000000239     1.000000    0.00002371
  766      -16.4025960692      -0.0000000238     1.000000    0.00002366
  767      -16.4025960930      -0.0000000237     1.000000    0.00002362
  768      -16.4025961166      -0.0000000236     1.000000    0.00002357
  769      -16.4025961401      -0.0000000235     1.000000    0.00002352
  770      -16.4025961636      -0.0000000235     1.000000    0.00002348
  771      -16.4025961870      -0.0000000234     1.000000    0.00002343
  772      -16.4025962102      -0.0000000233     1.000000    0.00002339
  773      -16.4025962334      -0.0000000232     1.000000    0.00002334
  774      -16.4025962565      -0.0000000231     1.000000    0.00002330
  775      -16.4025962796      -0.0000000230     1.000000    0.00002325
  776      -16.4025963025      -0.0000000229     1.000000    0.00002321
  777      -16.4025963253      -0.0000000228     1.000000    0.00002316
  778      -16.4025963481      -0.0000000228     1.000000    0.00002312
  779      -16.4025963708      -0.0000000227     1.000000    0.00002307
  780      -16.4025963934      -0.0000000226     1.000000    0.00002303
  781      -16.4025964159      -0.0000000225     1.000000    0.00002298
  782      -16.4025964383      -0.0000000224     1.000000    0.00002294
  783      -16.4025964607      -0.0000000223     1.000000    0.00002290
  784      -16.4025964829      -0.0000000223     1.000000    0.00002285
  785      -16.4025965051      -0.0000000222     1.000000    0.00002281
  786      -16.4025965272      -0.0000000221     1.000000    0.00002276
  787      -16.4025965492      -0.0000000220     1.000000    0.00002272
  788      -16.4025965712      -0.0000000219     1.000000    0.00002268
  789      -16.4025965930      -0.0000000219     1.000000    0.00002264
  790      -16.4025966148      -0.0000000218     1.000000    0.00002259
  791      -16.4025966365      -0.0000000217     1.000000    0.00002255
  792      -16.4025966581      -0.0000000216     1.000000    0.00002251
  793      -16.4025966797      -0.0000000215     1.000000    0.00002246
  794      -16.4025967011      -0.0000000215     1.000000    0.00002242
  795      -16.4025967225      -0.0000000214     1.000000    0.00002238
  796      -16.4025967438      -0.0000000213     1.000000    0.00002234
  797      -16.4025967651      -0.0000000212     1.000000    0.00002230
  798      -16.4025967862      -0.0000000212     1.000000    0.00002226
  799      -16.4025968073      -0.0000000211     1.000000    0.00002221
  800      -16.4025968283      -0.0000000210     1.000000    0.00002217
  801      -16.4025968493      -0.0000000209     1.000000    0.00002213
  802      -16.4025968701      -0.0000000209     1.000000    0.00002209
  803      -16.4025968909      -0.0000000208     1.000000    0.00002205
  804      -16.4025969116      -0.0000000207     1.000000    0.00002201
  805      -16.4025969323      -0.0000000206     1.000000    0.00002197
  806      -16.4025969528      -0.0000000206     1.000000    0.00002193
  807      -16.4025969733      -0.0000000205     1.000000    0.00002189
  808      -16.4025969938      -0.0000000204     1.000000    0.00002185
  809      -16.4025970141      -0.0000000204     1.000000    0.00002181
  810      -16.4025970344      -0.0000000203     1.000000    0.00002177
  811      -16.4025970546      -0.0000000202     1.000000    0.00002173
  812      -16.4025970747      -0.0000000201     1.000000    0.00002169
  813      -16.4025970948      -0.0000000201     1.000000    0.00002165
  814      -16.4025971148      -0.0000000200     1.000000    0.00002161
  815      -16.4025971347      -0.0000000199     1.000000    0.00002157
  816      -16.4025971546      -0.0000000199     1.000000    0.00002153
  817      -16.4025971744      -0.0000000198     1.000000    0.00002149
  818      -16.4025971941      -0.0000000197     1.000000    0.00002145
  819      -16.4025972137      -0.0000000197     1.000000    0.00002141
  820      -16.4025972333      -0.0000000196     1.000000    0.00002138
  821      -16.4025972529      -0.0000000195     1.000000    0.00002134
  822      -16.4025972723      -0.0000000195     1.000000    0.00002130
  823      -16.4025972917      -0.0000000194     1.000000    0.00002126
  824      -16.4025973110      -0.0000000193     1.000000    0.00002122
  825      -16.4025973303      -0.0000000193     1.000000    0.00002118
  826      -16.4025973494      -0.0000000192     1.000000    0.00002115
  827      -16.4025973686      -0.0000000191     1.000000    0.00002111
  828      -16.4025973876      -0.0000000191     1.000000    0.00002107
  829      -16.4025974066      -0.0000000190     1.000000    0.00002103
  830      -16.4025974255      -0.0000000189     1.000000    0.00002100
  831      -16.4025974444      -0.0000000189     1.000000    0.00002096
  832      -16.4025974632      -0.0000000188     1.000000    0.00002092
  833      -16.4025974819      -0.0000000187     1.000000    0.00002088
  834      -16.4025975006      -0.0000000187     1.000000    0.00002085
  835      -16.4025975192      -0.0000000186     1.000000    0.00002081
  836      -16.4025975378      -0.0000000185     1.000000    0.00002077
  837      -16.4025975563      -0.0000000185     1.000000    0.00002074
  838      -16.4025975747      -0.0000000184     1.000000    0.00002070
  839      -16.4025975930      -0.0000000184     1.000000    0.00002067
  840      -16.4025976113      -0.0000000183     1.000000    0.00002063
  841      -16.4025976296      -0.0000000182     1.000000    0.00002059
  842      -16.4025976478      -0.0000000182     1.000000    0.00002056
  843      -16.4025976659      -0.0000000181     1.000000    0.00002052
  844      -16.4025976839      -0.0000000181     1.000000    0.00002049
  845      -16.4025977019      -0.0000000180     1.000000    0.00002045
  846      -16.4025977199      -0.0000000179     1.000000    0.00002041
  847      -16.4025977378      -0.0000000179     1.000000    0.00002038
  848      -16.4025977556      -0.0000000178     1.000000    0.00002034
  849      -16.4025977733      -0.0000000178     1.000000    0.00002031
  850      -16.4025977911      -0.0000000177     1.000000    0.00002027
  851      -16.4025978087      -0.0000000176     1.000000    0.00002024
  852      -16.4025978263      -0.0000000176     1.000000    0.00002020
  853      -16.4025978438      -0.0000000175     1.000000    0.00002017
  854      -16.4025978613      -0.0000000175     1.000000    0.00002014
  855      -16.4025978787      -0.0000000174     1.000000    0.00002010
  856      -16.4025978961      -0.0000000174     1.000000    0.00002007
  857      -16.4025979134      -0.0000000173     1.000000    0.00002003
  858      -16.4025979306      -0.0000000172     1.000000    0.00002000
  859      -16.4025979478      -0.0000000172     1.000000    0.00001996
  860      -16.4025979650      -0.0000000171     1.000000    0.00001993
  861      -16.4025979820      -0.0000000171     1.000000    0.00001990
  862      -16.4025979991      -0.0000000170     1.000000    0.00001986
  863      -16.4025980160      -0.0000000170     1.000000    0.00001983
  864      -16.4025980330      -0.0000000169     1.000000    0.00001980
  865      -16.4025980498      -0.0000000169     1.000000    0.00001976
  866      -16.4025980666      -0.0000000168     1.000000    0.00001973
  867      -16.4025980834      -0.0000000168     1.000000    0.00001970
  868      -16.4025981001      -0.0000000167     1.000000    0.00001966
  869      -16.4025981167      -0.0000000166     1.000000    0.00001963
  870      -16.4025981333      -0.0000000166     1.000000    0.00001960
  871      -16.4025981499      -0.0000000165     1.000000    0.00001956
  872      -16.4025981664      -0.0000000165     1.000000    0.00001953
  873      -16.4025981828      -0.0000000164     1.000000    0.00001950
  874      -16.4025981992      -0.0000000164     1.000000    0.00001947
  875      -16.4025982155      -0.0000000163     1.000000    0.00001943
  876      -16.4025982318      -0.0000000163     1.000000    0.00001940
  877      -16.4025982480      -0.0000000162     1.000000    0.00001937
  878      -16.4025982642      -0.0000000162     1.000000    0.00001934
  879      -16.4025982804      -0.0000000161     1.000000    0.00001930
  880      -16.4025982964      -0.0000000161     1.000000    0.00001927
  881      -16.4025983125      -0.0000000160     1.000000    0.00001924
  882      -16.4025983284      -0.0000000160     1.000000    0.00001921
  883      -16.4025983444      -0.0000000159     1.000000    0.00001918
  884      -16.4025983603      -0.0000000159     1.000000    0.00001915
  885      -16.4025983761      -0.0000000158     1.000000    0.00001911
  886      -16.4025983919      -0.0000000158     1.000000    0.00001908
  887      -16.4025984076      -0.0000000157     1.000000    0.00001905
  888      -16.4025984233      -0.0000000157     1.000000    0.00001902
  889      -16.4025984389      -0.0000000156     1.000000    0.00001899
  890      -16.4025984545      -0.0000000156     1.000000    0.00001896
  891      -16.4025984701      -0.0000000155     1.000000    0.00001893
  892      -16.4025984855      -0.0000000155     1.000000    0.00001890
  893      -16.4025985010      -0.0000000154     1.000000    0.00001887
  894      -16.4025985164      -0.0000000154     1.000000    0.00001884
  895      -16.4025985317      -0.0000000153     1.000000    0.00001881
  896      -16.4025985470      -0.0000000153     1.000000    0.00001877
  897      -16.4025985623      -0.0000000153     1.000000    0.00001874
  898      -16.4025985775      -0.0000000152     1.000000    0.00001871
  899      -16.4025985927      -0.0000000152     1.000000    0.00001868
  900      -16.4025986078      -0.0000000151     1.000000    0.00001865
  901      -16.4025986229      -0.0000000151     1.000000    0.00001862
  902      -16.4025986379      -0.0000000150     1.000000    0.00001859
  903      -16.4025986529      -0.0000000150     1.000000    0.00001856
  904      -16.4025986678      -0.0000000149     1.000000    0.00001853
  905      -16.4025986827      -0.0000000149     1.000000    0.00001850
  906      -16.4025986975      -0.0000000148     1.000000    0.00001848
  907      -16.4025987123      -0.0000000148     1.000000    0.00001845
  908      -16.4025987271      -0.0000000148     1.000000    0.00001842
  909      -16.4025987418      -0.0000000147     1.000000    0.00001839
  910      -16.4025987565      -0.0000000147     1.000000    0.00001836
  911      -16.4025987711      -0.0000000146     1.000000    0.00001833
  912      -16.4025987857      -0.0000000146     1.000000    0.00001830
  913      -16.4025988002      -0.0000000145     1.000000    0.00001827
  914      -16.4025988147      -0.0000000145     1.000000    0.00001824
  915      -16.4025988291      -0.0000000144     1.000000    0.00001821
  916      -16.4025988435      -0.0000000144     1.000000    0.00001818
  917      -16.4025988579      -0.0000000144     1.000000    0.00001816
  918      -16.4025988722      -0.0000000143     1.000000    0.00001813
  919      -16.4025988865      -0.0000000143     1.000000    0.00001810
  920      -16.4025989007      -0.0000000142     1.000000    0.00001807
  921      -16.4025989149      -0.0000000142     1.000000    0.00001804
  922      -16.4025989291      -0.0000000142     1.000000    0.00001801
  923      -16.4025989432      -0.0000000141     1.000000    0.00001799
  924      -16.4025989573      -0.0000000141     1.000000    0.00001796
  925      -16.4025989713      -0.0000000140     1.000000    0.00001793
  926      -16.4025989853      -0.0000000140     1.000000    0.00001790
  927      -16.4025989992      -0.0000000139     1.000000    0.00001787
  928      -16.4025990131      -0.0000000139     1.000000    0.00001785
  929      -16.4025990270      -0.0000000139     1.000000    0.00001782
  930      -16.4025990408      -0.0000000138     1.000000    0.00001779
  931      -16.4025990546      -0.0000000138     1.000000    0.00001776
  932      -16.4025990683      -0.0000000137     1.000000    0.00001774
  933      -16.4025990820      -0.0000000137     1.000000    0.00001771
  934      -16.4025990957      -0.0000000137     1.000000    0.00001768
  935      -16.4025991093      -0.0000000136     1.000000    0.00001765
  936      -16.4025991229      -0.0000000136     1.000000    0.00001763
  937      -16.4025991365      -0.0000000135     1.000000    0.00001760
  938      -16.4025991500      -0.0000000135     1.000000    0.00001757
  939      -16.4025991634      -0.0000000135     1.000000    0.00001755
  940      -16.4025991769      -0.0000000134     1.000000    0.00001752
  941      -16.4025991903      -0.0000000134     1.000000    0.00001749
  942      -16.4025992036      -0.0000000134     1.000000    0.00001747
  943      -16.4025992169      -0.0000000133     1.000000    0.00001744
  944      -16.4025992302      -0.0000000133     1.000000    0.00001741
  945      -16.4025992434      -0.0000000132     1.000000    0.00001739
  946      -16.4025992566      -0.0000000132     1.000000    0.00001736
  947      -16.4025992698      -0.0000000132     1.000000    0.00001733
  948      -16.4025992829      -0.0000000131     1.000000    0.00001731
  949      -16.4025992960      -0.0000000131     1.000000    0.00001728
  950      -16.4025993091      -0.0000000131     1.000000    0.00001725
  951      -16.4025993221      -0.0000000130     1.000000    0.00001723
  952      -16.4025993350      -0.0000000130     1.000000    0.00001720
  953      -16.4025993480      -0.0000000129     1.000000    0.00001718
  954      -16.4025993609      -0.0000000129     1.000000    0.00001715
  955      -16.4025993738      -0.0000000129     1.000000    0.00001712
  956      -16.4025993866      -0.0000000128     1.000000    0.00001710
  957      -16.4025993994      -0.0000000128     1.000000    0.00001707
  958      -16.4025994121      -0.0000000128     1.000000    0.00001705
  959      -16.4025994249      -0.0000000127     1.000000    0.00001702
  960      -16.4025994375      -0.0000000127     1.000000    0.00001700
  961      -16.4025994502      -0.0000000127     1.000000    0.00001697
  962      -16.4025994628      -0.0000000126     1.000000    0.00001695
  963      -16.4025994754      -0.0000000126     1.000000    0.00001692
  964      -16.4025994879      -0.0000000125     1.000000    0.00001690
  965      -16.4025995005      -0.0000000125     1.000000    0.00001687
  966      -16.4025995129      -0.0000000125     1.000000    0.00001685
  967      -16.4025995254      -0.0000000124     1.000000    0.00001682
  968      -16.4025995378      -0.0000000124     1.000000    0.00001680
  969      -16.4025995501      -0.0000000124     1.000000    0.00001677
  970      -16.4025995625      -0.0000000123     1.000000    0.00001675
  971      -16.4025995748      -0.0000000123     1.000000    0.00001672
  972      -16.4025995871      -0.0000000123     1.000000    0.00001670
  973      -16.4025995993      -0.0000000122     1.000000    0.00001667
  974      -16.4025996115      -0.0000000122     1.000000    0.00001665
  975      -16.4025996237      -0.0000000122     1.000000    0.00001662
  976      -16.4025996358      -0.0000000121     1.000000    0.00001660
  977      -16.4025996479      -0.0000000121     1.000000    0.00001657
  978      -16.4025996600      -0.0000000121     1.000000    0.00001655
  979      -16.4025996720      -0.0000000120     1.000000    0.00001653
  980      -16.4025996840      -0.0000000120     1.000000    0.00001650
  981      -16.4025996960      -0.0000000120     1.000000    0.00001648
  982      -16.4025997079      -0.0000000119     1.000000    0.00001645
  983      -16.4025997198      -0.0000000119     1.000000    0.00001643
  984      -16.4025997317      -0.0000000119     1.000000    0.00001641
  985      -16.4025997435      -0.0000000118     1.000000    0.00001638
  986      -16.4025997553      -0.0000000118     1.000000    0.00001636
  987      -16.4025997671      -0.0000000118     1.000000    0.00001633
  988      -16.4025997789      -0.0000000117     1.000000    0.00001631
  989      -16.4025997906      -0.0000000117     1.000000    0.00001629
  990      -16.4025998023      -0.0000000117     1.000000    0.00001626
  991      -16.4025998139      -0.0000000116     1.000000    0.00001624
  992      -16.4025998255      -0.0000000116     1.000000    0.00001622
  993      -16.4025998371      -0.0000000116     1.000000    0.00001619
  994      -16.4025998487      -0.0000000116     1.000000    0.00001617
  995      -16.4025998602      -0.0000000115     1.000000    0.00001615
  996      -16.4025998717      -0.0000000115     1.000000    0.00001612
  997      -16.4025998832      -0.0000000115     1.000000    0.00001610
  998      -16.4025998946      -0.0000000114     1.000000    0.00001608
  999      -16.4025999060      -0.0000000114     1.000000    0.00001605
 1000      -16.4025999174      -0.0000000114     1.000000    0.00001603

Total Energy:                      -16.4025999174 H         -446.3375 eV
Extrapolated to 0:                 -16.3299795318 H         -444.3614 eV

----------------------------------------------------------------------------------
 Solving CP-REKS equation for  1 state vector...
----------------------------------------------------------------------------------
  CG solver: Constructing Y initial guess
  CG solver: Iteration    1    eps =    0.016621123501
  CG solver: Iteration    2    eps =    0.003228871882
  CG solver: Iteration    3    eps =    0.003097738549
  CG solver: Iteration    4    eps =    0.005358982326
  CG solver: Iteration    5    eps =    0.046914690801
  CG solver: Iteration    6    eps =    0.042968251185
  CG solver: Iteration    7    eps =    0.030300921645
  CG solver: Iteration    8    eps =    0.045309327911
  CG solver: Iteration    9    eps =    0.008395449595
  CG solver: Iteration   10    eps =    0.004285971619
  CG solver: Iteration   11    eps =    0.000760625327
  CG solver: Iteration   12    eps =    0.000043637518
  CG solver: Iteration   13    eps =    0.000003085950
  CG solver: Iteration   14    eps =    0.000000598860
  CG solver: Iteration   15    eps =    0.000000061145
  CG solver: Iteration   16    eps =    0.000000009793
  Convergence reached in CG solver after   16 iterations
  CG solver: Calculating converged R, Z, Q2 matrix
----------------------------------------------------------------------------------

----------------------------------------------------------------------------------
 Solving CP-REKS equation for SI between  1 and  2 state vectors...
----------------------------------------------------------------------------------
  CG solver: Constructing Y initial guess
  CG solver: Iteration    1    eps =    0.000809053168
  CG solver: Iteration    2    eps =    0.000686436613
  CG solver: Iteration    3    eps =    0.000470147948
  CG solver: Iteration    4    eps =    0.000174143385
  CG solver: Iteration    5    eps =    0.001259358711
  CG solver: Iteration    6    eps =    0.006505233167
  CG solver: Iteration    7    eps =    0.006238029914
  CG solver: Iteration    8    eps =    0.002697757732
  CG solver: Iteration    9    eps =    0.001680365367
  CG solver: Iteration   10    eps =    0.000296907132
  CG solver: Iteration   11    eps =    0.000027841507
  CG solver: Iteration   12    eps =    0.000005976424
  CG solver: Iteration   13    eps =    0.000001447841
  CG solver: Iteration   14    eps =    0.000000215230
  CG solver: Iteration   15    eps =    0.000000023279
  CG solver: Iteration   16    eps =    0.000000001852
  Convergence reached in CG solver after   16 iterations
  CG solver: Calculating converged R, Z, Q2 matrix
----------------------------------------------------------------------------------

--------------------------------------------------
 Gradient Information
--------------------------------------------------
           1 st state (SSR)
     0.00000000     0.00000000     0.00000000
     0.00000000     0.00000000     0.00000000
     0.00000000     0.00000000     0.00000000
     0.00000000     0.00000000     0.00000000
     0.00000000     0.00000000     0.00000000
     0.00000000     0.00000000     0.00000000
     0.00000000     0.00000000     0.00000000
     0.00000000     0.00000000     0.00000000
     0.00000000     0.00000000     0.00000000
     0.00000000     0.00000000     0.00000000
     0.00000000     0.00000000     0.00000000
     0.00000000     0.00000000     0.00000000
     0.00000000     0.00000000     0.00000000
     0.00000000     0.00000000     0.00000000

           2 st state (SSR)
     0.00000000     0.00000000     0.00000000
     0.00000000     0.00000000     0.00000000
     0.00000000     0.00000000     0.00000000
     0.00000000     0.00000000     0.00000000
     0.00000000     0.00000000     0.00000000
     0.00000000     0.00000000     0.00000000
     0.00000000     0.00000000     0.00000000
     0.00000000     0.00000000     0.00000000
     0.00000000     0.00000000     0.00000000
     0.00000000     0.00000000     0.00000000
     0.00000000     0.00000000     0.00000000
     0.00000000     0.00000000     0.00000000
     0.00000000     0.00000000     0.00000000
     0.00000000     0.00000000     0.00000000
--------------------------------------------------
 Coupling Information
--------------------------------------------------
 between  1 and  2 states
--------------------------------------------------
 g vector - difference gradient
     0.18646025     1.47277354    -0.94425785
    -1.19165037    -1.96853714     0.82048196
     0.43848448    -0.07963150     0.32695256
    -0.27238244    -0.07266524    -0.18469667
     0.54838902     0.03493892     0.26391096
     1.06592887     0.51591141    -0.93069040
    -1.18696164    -0.33484329     0.31294342
    -0.08647960    -0.02426183     0.04814069
     0.04269887    -0.08786517    -0.18652377
    -0.06823858     0.30725411     0.58253132
     0.23757801     0.16856898    -0.08889652
     0.27686873     0.05984190    -0.10377302
    -0.00328497     0.02090779     0.02986014
     0.01258937    -0.01239248     0.05401716

 h vector - derivative coupling
    -0.09948931    -0.49814916     0.30632067
     0.37053010     0.70722398    -0.32659316
    -0.11660926     0.00948539    -0.09409277
     0.07424618     0.01677426     0.06109275
    -0.20171567    -0.01846398    -0.09928593
    -0.24949334    -0.11806137     0.34215916
     0.38805684    -0.03180064    -0.15034380
     0.01978325     0.02135666    -0.01372726
    -0.01883705     0.03880434     0.05348628
     0.03247859    -0.05329716    -0.11783208
    -0.08674292    -0.02744307     0.02531606
    -0.11840644    -0.04024015     0.03921274
     0.01165099     0.00117045    -0.00092722
    -0.00545195    -0.00735955    -0.02478542

 G vector - GDV
     0.00000000     0.00000000     0.00000000
     0.00000000     0.00000000     0.00000000
     0.00000000     0.00000000     0.00000000
     0.00000000     0.00000000     0.00000000
     0.00000000     0.00000000     0.00000000
     0.00000000     0.00000000     0.00000000
     0.00000000     0.00000000     0.00000000
     0.00000000     0.00000000     0.00000000
     0.00000000     0.00000000     0.00000000
     0.00000000     0.00000000     0.00000000
     0.00000000     0.00000000     0.00000000
     0.00000000     0.00000000     0.00000000
     0.00000000     0.00000000     0.00000000
     0.00000000     0.00000000     0.00000000

 H vector - DCV - non-adiabatic coupling
     0.00000000     0.00000000     0.00000000
     0.00000000     0.00000000     0.00000000
     0.00000000     0.00000000     0.00000000
     0.00000000     0.00000000     0.00000000
     0.00000000     0.00000000     0.00000000
     0.00000000     0.00000000     0.00000000
     0.00000000     0.00000000     0.00000000
     0.00000000     0.00000000     0.00000000
     0.00000000     0.00000000     0.00000000
     0.00000000     0.00000000     0.00000000
     0.00000000     0.00000000     0.00000000
     0.00000000     0.00000000     0.00000000
     0.00000000     0.00000000     0.00000000
     0.00000000     0.00000000     0.00000000
--------------------------------------------------

WARNING!
-> SCC is NOT converged, maximal SCC iterations exceeded

--------------------------------------------------------------------------------
DFTB+ running times                          cpu [s]             wall clock [s]
--------------------------------------------------------------------------------
SCC                                    +     1.45  ( 77.4%)      1.46  ( 77.3%)
      Sparse to dense                        0.08  (  4.1%)      0.09  (  4.8%)
      Dense to sparse                        0.27  ( 14.3%)      0.28  ( 14.8%)
      Range separated Hamiltonian            0.13  (  6.8%)      0.13  (  6.8%)
  Density matrix creation                    0.16  (  8.6%)      0.17  (  9.0%)
  Force calculation                          0.42  ( 22.5%)      0.42  ( 22.3%)
--------------------------------------------------------------------------------
Missing                                +     0.42  ( 22.6%)      0.43  ( 22.7%)
Total                                  =     1.88  (100.0%)      1.89  (100.0%)
--------------------------------------------------------------------------------
