|===============================================================================
|
|  DFTB+ release 20.1
|
|  Copyright (C) 2006 - 2020  DFTB+ developers group
|
|===============================================================================
|
|  When publishing results obtained with DFTB+, please cite the following
|  reference:
|
|  * DFTB+, a software package for efficient approximate density functional
|    theory based atomistic simulations, J. Chem. Phys. 152, 124101 (2020).
|    [doi: 10.1063/1.5143190]
|
|  You should also cite additional publications crediting the parametrization
|  data you use. Please consult the documentation of the SK-files for the
|  references.
|
|===============================================================================

Reading input file 'dftb_in.hsd'
Parser version: 8

--------------------------------------------------------------------------------
Reading SK-files:
Done.


Processed input in HSD format written to 'dftb_pin.hsd'

Starting initialization...
--------------------------------------------------------------------------------
WARNING!
-> Excited state forces are not implemented yet for fractional occupations, kT=  0.3158E-02K
OpenMP threads:              1
Chosen random seed:          505975669
Mode:                        Static calculation
Self consistent charges:     Yes
SCC-tolerance:                 0.100000E-05
Max. scc iterations:                    100
Shell resolved Hubbard:      No
Spin polarisation:           No
Nr. of up electrons:             6.000000
Nr. of down electrons:           6.000000
Periodic boundaries:         No
Electronic solver:           Relatively robust
Mixer:                       Broyden mixer
Mixing parameter:                  0.200000
Maximal SCC-cycles:                     100
Nr. of chrg. vec. in memory:              0
Electronic temperature:        0.100000E-07 H      0.272114E-06 eV
Initial charges:             Set automatically (system chrg:   0.100E+01)
Included shells:             C:  s, p
                             N:  s, p
                             H:  s
Extra options:
                             Mulliken analysis
                             Force calculation
Force type                   original
                             Eigenvector printing

--------------------------------------------------------------------------------

***  Geometry step: 0

 iSCC Total electronic   Diff electronic      SCC error    
    1   -0.53904607E+01    0.00000000E+00    0.71600262E+00
    2   -0.53951875E+01   -0.47267411E-02    0.48222155E+00
    3   -0.53981944E+01   -0.30069675E-02    0.90348490E-01
    4   -0.53985112E+01   -0.31674851E-03    0.39954876E-01
    5   -0.53985682E+01   -0.57069680E-04    0.75136140E-02
    6   -0.53985687E+01   -0.43372502E-06    0.14753772E-02
    7   -0.53985687E+01   -0.42762431E-07    0.52586365E-04
    8   -0.53985687E+01   -0.68048678E-10    0.39509645E-04
    9   -0.53985687E+01   -0.66108896E-10    0.20156526E-05
   10   -0.53985687E+01   -0.44764192E-12    0.35514278E-06
>> Charges saved for restart in charges.bin

Total Energy:                       -5.0892390143 H         -138.4852 eV
Extrapolated to 0:                  -5.2139170235 H         -141.8779 eV
Total Mermin free energy:           -5.0892390143 H         -138.4852 eV
Force related energy:               -5.2139170235 H         -141.8779 eV

--------------------------------------------------------------------------------
DFTB+ running times                          cpu [s]             wall clock [s]
--------------------------------------------------------------------------------
SCC                                    +     0.01  ( 62.9%)      0.39  ( 95.8%)
Post-SCC processing                    +     0.00  ( 29.2%)      0.01  (  3.0%)
--------------------------------------------------------------------------------
Missing                                +     0.00  (  7.9%)      0.00  (  1.2%)
Total                                  =     0.01  (100.0%)      0.40  (100.0%)
--------------------------------------------------------------------------------
