     6
  Step:     0            Position(A)                                  Velocity(au)
C        -0.04535877     0.01575678     0.03754855    -0.00005668    -0.00009323     0.00028836
N        -0.04588967    -0.04025017     1.28721391    -0.00006967     0.00002258    -0.00029283
H         0.95120620    -0.02932797    -0.53088941     0.00044242     0.00026189    -0.00000736
H         0.86492233    -0.23839561     1.84713474     0.00048874     0.00005902     0.00033399
H        -0.88275415    -0.08027600     1.78349496     0.00045511     0.00000002     0.00061397
H        -0.96811501     0.04979267    -0.54270699     0.00025729     0.00047628    -0.00030743
     6
  Step:     1            Position(A)                                  Velocity(au)
C        -0.04562276     0.01528818     0.03869082    -0.00003964    -0.00007830     0.00012830
N        -0.04618576    -0.04012725     1.28595992    -0.00003850     0.00002225    -0.00016460
H         0.95348958    -0.02800455    -0.53074249     0.00039119     0.00022289     0.00006252
H         0.86718882    -0.23813260     1.84865627     0.00033642     0.00003847     0.00021908
H        -0.88112135    -0.08043648     1.78732479     0.00014406    -0.00005797     0.00078477
H        -0.96703731     0.05224274    -0.54439065     0.00013570     0.00042051    -0.00030783
     6
  Step:     2            Position(A)                                  Velocity(au)
C        -0.04579226     0.01490052     0.03895151    -0.00002229    -0.00006369    -0.00003340
N        -0.04631066    -0.04000685     1.28541398    -0.00000751     0.00002176    -0.00003439
H         0.95548392    -0.02689059    -0.53020574     0.00033728     0.00018520     0.00013474
H         0.86860117    -0.23797488     1.84953048     0.00017829     0.00001994     0.00009880
H        -0.88117886    -0.08090991     1.79207666    -0.00015861    -0.00011472     0.00094968
H        -0.96663114     0.05439108    -0.54607323     0.00001299     0.00036615    -0.00030728
     6
  Step:     3            Position(A)                                  Velocity(au)
C        -0.04586633     0.01459216     0.03832582    -0.00000486    -0.00004931    -0.00019560
N        -0.04626786    -0.03988944     1.28558407     0.00002249     0.00002126     0.00009705
H         0.95717553    -0.02598058    -0.52927004     0.00028087     0.00014809     0.00020814
H         0.86913729    -0.23791464     1.84973598     0.00001744     0.00000219    -0.00002426
H        -0.88285469    -0.08169020     1.79770322    -0.00044447    -0.00017066     0.00110373
H        -0.96689531     0.05624422    -0.54774877    -0.00010849     0.00031258    -0.00030551
     6
  Step:     4            Position(A)                                  Velocity(au)
C        -0.04584531     0.01436192     0.03681523     0.00001240    -0.00003508    -0.00035700
N        -0.04606503    -0.03977461     1.28647395     0.00005076     0.00002091     0.00022885
H         0.95855151    -0.02527317    -0.52793250     0.00022196     0.00011076     0.00028146
H         0.86879165    -0.23795099     1.84926554    -0.00014306    -0.00001604    -0.00014741
H        -0.88603334    -0.08277386     1.80413140    -0.00070582    -0.00022618     0.00124204
H        -0.96781603     0.05780497    -0.54940992    -0.00022633     0.00025898    -0.00030218
     6
  Step:     5            Position(A)                                  Velocity(au)
C        -0.04573090     0.01420917     0.03442819     0.00002923    -0.00002090    -0.00051597
N        -0.04571364    -0.03966117     1.28808255     0.00007659     0.00002082     0.00035980
H         0.95959889    -0.02477134    -0.52619714     0.00016054     0.00007248     0.00035317
H         0.86757543    -0.23808982     1.84812658    -0.00029980    -0.00003592    -0.00026766
H        -0.89056067    -0.08415954     1.81126354    -0.00093555    -0.00028144     0.00135991
H        -0.96936637     0.05907175    -0.55104791    -0.00033784     0.00020462    -0.00029703
     6
  Step:     6            Position(A)                                  Velocity(au)
C        -0.04552621     0.01413372     0.03118179     0.00004529    -0.00000674    -0.00067038
N        -0.04522876    -0.03954726     1.29040233     0.00009928     0.00002111     0.00048828
H         0.96030430    -0.02448181    -0.52407653     0.00009660     0.00003276     0.00042134
H         0.86551835    -0.23834315     1.84634317    -0.00044884    -0.00005837    -0.00038146
H        -0.89624790    -0.08584673     1.81897925    -0.00112718    -0.00033627     0.00145301
H        -0.97150461     0.06003911    -0.55265299    -0.00043987     0.00014900    -0.00028990
     6
  Step:     7            Position(A)                                  Velocity(au)
C        -0.04523614     0.01413549     0.02710422     0.00006020     0.00000733    -0.00081754
N        -0.04462897    -0.03943059     1.29341705     0.00011814     0.00002179     0.00061211
H         0.96065427    -0.02441343    -0.52159397     0.00003042    -0.00000846     0.00048360
H         0.86267176    -0.23872754     1.84395912    -0.00058551    -0.00008393    -0.00048462
H        -0.90287525    -0.08783335     1.82713785    -0.00127501    -0.00038989     0.00151760
H        -0.97417204     0.06069961    -0.55421511    -0.00052897     0.00009216    -0.00028079
     6
  Step:     8            Position(A)                                  Velocity(au)
C        -0.04486761     0.01421392     0.02223802     0.00007354     0.00002113    -0.00095408
N        -0.04393633    -0.03930886     1.29709871     0.00013250     0.00002283     0.00072849
H         0.96063709    -0.02457439    -0.51878603    -0.00003715    -0.00005063     0.00053716
H         0.85911288    -0.23926134     1.84104144    -0.00070431    -0.00011251    -0.00057243
H        -0.91019640    -0.09011214     1.83558160    -0.00137442    -0.00044079     0.00155070
H        -0.97729149     0.06104732    -0.55572485    -0.00060164     0.00003491    -0.00026988
     6
  Step:     9            Position(A)                                  Velocity(au)
C        -0.04442986     0.01436714     0.01664378     0.00008484     0.00003431    -0.00107605
N        -0.04317631    -0.03918024     1.30140410     0.00014173     0.00002411     0.00083405
H         0.96024694    -0.02496853    -0.51570457    -0.00010423    -0.00009253     0.00057906
H         0.85494975    -0.23996106     1.83768312    -0.00079901    -0.00014340    -0.00063991
H        -0.91794422    -0.09266612     1.84413956    -0.00142231    -0.00048672     0.00155036
H        -0.98076833     0.06108239    -0.55717400    -0.00065501    -0.00002111    -0.00025741
     6
  Step:    10            Position(A)                                  Velocity(au)
C        -0.04393455     0.01459122     0.01040392     0.00009367     0.00004643    -0.00117914
N        -0.04237760    -0.03904372     1.30627130     0.00014535     0.00002546     0.00092503
H         0.95949075    -0.02559204    -0.51241772    -0.00016768    -0.00013256     0.00060644
H         0.85032559    -0.24083842     1.83400387    -0.00086318    -0.00017555    -0.00068255
H        -0.92583854    -0.09546494     1.85263199    -0.00141775    -0.00052510     0.00151587
H        -0.98449511     0.06081513    -0.55855574    -0.00068747    -0.00007381    -0.00024362
     6
  Step:    11            Position(A)                                  Velocity(au)
C        -0.04339562     0.01487983     0.00362452     0.00009967     0.00005709    -0.00125935
N        -0.04157142    -0.03889916     1.31161767     0.00014310     0.00002675     0.00099787
H         0.95839553    -0.02643213    -0.50900867    -0.00022338    -0.00016912     0.00061709
H         0.84541915    -0.24189936     1.83014685    -0.00089123    -0.00020797    -0.00069705
H        -0.93359811    -0.09846395     1.86087678    -0.00136264    -0.00055368     0.00144825
H        -0.98835888     0.06026744    -0.55986387    -0.00069895    -0.00012116    -0.00022863
     6
  Step:    12            Position(A)                                  Velocity(au)
C        -0.04282885     0.01522451    -0.00356674     0.00010264     0.00006596    -0.00131395
N        -0.04079015    -0.03874696     1.31734127     0.00013506     0.00002794     0.00105001
H         0.95701267    -0.02746823    -0.50557198    -0.00026710    -0.00020112     0.00060990
H         0.84043860    -0.24314551     1.82627104    -0.00087977    -0.00024008    -0.00068212
H        -0.94095507    -0.10160723     1.86869830    -0.00126206    -0.00057117     0.00135074
H        -0.99224898     0.05947098    -0.56109206    -0.00069103    -0.00016176    -0.00021271
     6
  Step:    13            Position(A)                                  Velocity(au)
C        -0.04225104     0.01561535    -0.01102801     0.00010259     0.00007293    -0.00134252
N        -0.04006524    -0.03858762     1.32332686     0.00012180     0.00002904     0.00108076
H         0.95541692    -0.02867488    -0.50220738    -0.00029550    -0.00022811     0.00058522
H         0.83560835    -0.24457657     1.82254015    -0.00082858    -0.00027183    -0.00063888
H        -0.94767197    -0.10483336     1.87593955    -0.00112433    -0.00057768     0.00122906
H        -0.99606494     0.05846358    -0.56223596    -0.00066675    -0.00019501    -0.00019651
     6
  Step:    14            Position(A)                                  Velocity(au)
C        -0.04167879     0.01604205    -0.01861609     0.00009981     0.00007813    -0.00134764
N        -0.03942476    -0.03842138     1.32945637     0.00010426     0.00003016     0.00109196
H         0.95370018    -0.03002528    -0.49901174    -0.00030683    -0.00025044     0.00054500
H         0.83115044    -0.24619263     1.81910930    -0.00074100    -0.00030367    -0.00057088
H        -0.95355856    -0.10808289     1.88247582    -0.00096019    -0.00057479     0.00109112
H        -0.99972312     0.05728501    -0.56329491    -0.00063026    -0.00022120    -0.00018091
     6
  Step:    15            Position(A)                                  Velocity(au)
C        -0.04112708     0.01649509    -0.02620309     0.00009480     0.00008187    -0.00133471
N        -0.03889120    -0.03824795     1.33562283     0.00008362     0.00003143     0.00108782
H         0.95196187    -0.03149497    -0.49607045    -0.00030114    -0.00026915     0.00049233
H         0.82726433    -0.24799599     1.81611179    -0.00062329    -0.00033643    -0.00048339
H        -0.95848413    -0.11130580     1.88822610    -0.00078104    -0.00056527     0.00094570
H        -1.00316198     0.05597281    -0.56427312    -0.00058627    -0.00024139    -0.00016691
     6
  Step:    16            Position(A)                                  Velocity(au)
C        -0.04060801     0.01696678    -0.03369161     0.00008815     0.00008463    -0.00131057
N        -0.03848022    -0.03806643     1.34174329     0.00006105     0.00003296     0.00107389
H         0.95029882    -0.03306532    -0.49345092    -0.00027977    -0.00028573     0.00043064
H         0.82411035    -0.24999261     1.81364946    -0.00048295    -0.00037118    -0.00038217
H        -0.96238034    -0.11446758     1.89315743    -0.00059685    -0.00055238     0.00080070
H        -1.00634505     0.05455855    -0.56518014    -0.00053927    -0.00025712    -0.00015542
     6
  Step:    17            Position(A)                                  Velocity(au)
C        -0.04013035     0.01745198    -0.04102210     0.00012558     0.00013569    -0.00200201
N        -0.03820083    -0.03787525     1.34776555     0.00005857     0.00005449     0.00164869
H         0.94879843    -0.03472580    -0.49120104    -0.00038199    -0.00047138     0.00056669
H         0.82180352    -0.25219306     1.81179049    -0.00051074    -0.00063873    -0.00042528
H        -0.96523289    -0.11755167     1.89727984    -0.00064783    -0.00084211     0.00103377
H        -1.00925970     0.05306543    -0.56603048    -0.00076974    -0.00042182    -0.00022983
     6
  Step:    18            Position(A)                                  Velocity(au)
C        -0.03945999     0.01819201    -0.05185343     0.00006688     0.00007611    -0.00110248
N        -0.03794000    -0.03756834     1.35672812     0.00002000     0.00003285     0.00091664
H         0.94707085    -0.03729797    -0.48854358    -0.00013341    -0.00026530     0.00022470
H         0.81944631    -0.25582900     1.80980304    -0.00018945    -0.00039272    -0.00016514
H        -0.96837188    -0.12211502     1.90272772    -0.00028026    -0.00046613     0.00054034
H        -1.01364868     0.05075398    -0.56762874    -0.00047177    -0.00023925    -0.00020060
     6
  Step:    19            Position(A)                                  Velocity(au)
C        -0.03911016     0.01862768    -0.05798971     0.00005689     0.00007825    -0.00107247
N        -0.03789876    -0.03737483     1.36184297    -0.00000508     0.00003586     0.00089611
H         0.94648137    -0.03884918    -0.48749093    -0.00007168    -0.00028476     0.00014752
H         0.81889404    -0.25817555     1.80922197    -0.00000609    -0.00043952    -0.00004118
H        -0.96944648    -0.12471659     1.90541139    -0.00010536    -0.00045680     0.00041564
H        -1.01617394     0.04937289    -0.56874158    -0.00042428    -0.00024968    -0.00019511
     6
  Step:    20            Position(A)                                  Velocity(au)
C        -0.03881851     0.01907428    -0.06394537     0.00004678     0.00008073    -0.00104807
N        -0.03799724    -0.03716400     1.36683168    -0.00002945     0.00003929     0.00088004
H         0.94626266    -0.04050862    -0.48688029    -0.00000307    -0.00030645     0.00006919
H         0.81937759    -0.26078452     1.80933876     0.00017607    -0.00048934     0.00008123
H        -0.96955979    -0.12726543     1.90741401     0.00005969    -0.00045168     0.00030220
H        -1.01843242     0.04793885    -0.56982860    -0.00038089    -0.00026045    -0.00019320
     6
  Step:    21            Position(A)                                  Velocity(au)
C        -0.03858509     0.01953373    -0.06975278     0.00003649     0.00008336    -0.00102616
N        -0.03822932    -0.03693385     1.37172021    -0.00005265     0.00004296     0.00086595
H         0.94644695    -0.04228868    -0.48671432     0.00007116    -0.00032976    -0.00001035
H         0.82087014    -0.26366771     1.81013367     0.00035224    -0.00053966     0.00019990
H        -0.96877659    -0.12978607     1.90880319     0.00021389    -0.00044972     0.00019898
H        -1.02044887     0.04644967    -0.57090999    -0.00034043    -0.00027104    -0.00019433
     6
  Step:    22            Position(A)                                  Velocity(au)
C        -0.03841021     0.02000696    -0.07542705     0.00002608     0.00008597    -0.00100428
N        -0.03858638    -0.03668337     1.37652079    -0.00007406     0.00004667     0.00085186
H         0.94705888    -0.04419832    -0.48699609     0.00014907    -0.00035401    -0.00009053
H         0.82331883    -0.26682281     1.81157547     0.00051657    -0.00058778     0.00031198
H        -0.96716659    -0.13229737     1.90964039     0.00035501    -0.00045016     0.00010598
H        -1.02224153     0.04490616    -0.57200297    -0.00030226    -0.00028091    -0.00019808
     6
  Step:    23            Position(A)                                  Velocity(au)
C        -0.03829383     0.02049389    -0.08096973     0.00001570     0.00008842    -0.00098086
N        -0.03905649    -0.03641259     1.38123472    -0.00009299     0.00005027     0.00083648
H         0.94811199    -0.04624271    -0.48772542     0.00022824    -0.00037861    -0.00017026
H         0.82663983    -0.27023278     1.81361819     0.00066300    -0.00063119     0.00041443
H        -0.96481144    -0.13481404     1.90998688     0.00048010    -0.00045262     0.00002396
H        -1.02382483     0.04331210    -0.57312241    -0.00026616    -0.00028964    -0.00020417
     6
  Step:    24            Position(A)                                  Velocity(au)
C        -0.03823504     0.02099371    -0.08637369     0.00000556     0.00009062    -0.00095507
N        -0.03962416    -0.03612240     1.38585612    -0.00010881     0.00005361     0.00081912
H         0.94960614    -0.04842371    -0.48889619     0.00030598    -0.00040307    -0.00024820
H         0.83071803    -0.27386705     1.81620057     0.00078605    -0.00066773     0.00050452
H        -0.96180855    -0.13734876     1.90990776     0.00058605    -0.00045702    -0.00004598
H        -1.02521194     0.04167369    -0.57428151    -0.00023225    -0.00029692    -0.00021238
     6
  Step:    25            Position(A)                                  Velocity(au)
C        -0.03823180     0.02150506    -0.09162716    -0.00000410     0.00009250    -0.00092662
N        -0.04027068    -0.03581439     1.39037505    -0.00012100     0.00005660     0.00079947
H         0.95152636    -0.05074043    -0.49049501     0.00037957    -0.00042699    -0.00032296
H         0.83541120    -0.27768381     1.81924798     0.00088147    -0.00069573     0.00058013
H        -0.95827187    -0.13991382     1.90947379     0.00066997    -0.00046349    -0.00010270
H        -1.02641640     0.03999889    -0.57549228    -0.00020077    -0.00030253    -0.00022256
     6
  Step:    26            Position(A)                                  Velocity(au)
C        -0.03828078     0.02202624    -0.09671667    -0.00001304     0.00009405    -0.00089559
N        -0.04097473    -0.03549066     1.39477985    -0.00012918     0.00005917     0.00077754
H         0.95384299    -0.05318986    -0.49250105     0.00044652    -0.00045013    -0.00039323
H         0.84055704    -0.28163286     1.82267604     0.00094652    -0.00071408     0.00063996
H        -0.95433030    -0.14252229     1.90876141     0.00072955    -0.00047233    -0.00014526
H        -1.02745295     0.03829684    -0.57676578    -0.00017204    -0.00030637    -0.00023460
     6
  Step:    27            Position(A)                                  Velocity(au)
C        -0.03837747     0.02255539    -0.10162919    -0.00002108     0.00009524    -0.00086235
N        -0.04171335    -0.03515356     1.39905873    -0.00013317     0.00006131     0.00075355
H         0.95651309    -0.05576755    -0.49488662     0.00050467    -0.00047233    -0.00045792
H         0.84598198    -0.28565869     1.82639509     0.00098015    -0.00072220     0.00068355
H        -0.95012420    -0.14518886     1.90785147     0.00076327    -0.00048392    -0.00017311
H        -1.02833780     0.03657735    -0.57811232    -0.00014635    -0.00030838    -0.00024838
     6
  Step:    28            Position(A)                                  Velocity(au)
C        -0.03851635     0.02309058    -0.10635354    -0.00002805     0.00009610    -0.00082740
N        -0.04246291    -0.03480553     1.40320093    -0.00013296     0.00006302     0.00072784
H         0.95948277    -0.05846828    -0.49761841     0.00055240    -0.00049358    -0.00051623
H         0.85151036    -0.28970362     1.83031486     0.00098287    -0.00072007     0.00071127
H        -0.94580057    -0.14793023     1.90682690     0.00077056    -0.00049870    -0.00018614
H        -1.02908845     0.03485058    -0.57954152    -0.00012391    -0.00030859    -0.00026383
     6
  Step:    29            Position(A)                                  Velocity(au)
C        -0.03869116     0.02363000    -0.11088127    -0.00003387     0.00009666    -0.00079135
N        -0.04320011    -0.03444883     1.40719748    -0.00012871     0.00006436     0.00070082
H         0.96269011    -0.06128678    -0.50065915     0.00058864    -0.00051397    -0.00056767
H         0.85697254    -0.29371056     1.83434858     0.00095652    -0.00070805     0.00072414
H        -0.94150770    -0.15076539     1.90577003     0.00075179    -0.00051711    -0.00018477
H        -1.02972332     0.03312671    -0.58106247    -0.00010482    -0.00030701    -0.00028087
     6
  Step:    30            Position(A)                                  Velocity(au)
C        -0.03889523     0.02417197    -0.11520697    -0.00003848     0.00009695    -0.00075476
N        -0.04390287    -0.03408548     1.41104160    -0.00012071     0.00006538     0.00067294
H         0.96606836    -0.06421846    -0.50396935     0.00061286    -0.00053372    -0.00061204
H         0.86221167    -0.29762516     1.83841640     0.00090390    -0.00068683     0.00072369
H        -0.93738972    -0.15371557     1.90475975     0.00070820    -0.00053958    -0.00016987
H        -1.03026111     0.03141587    -0.58268380    -0.00008908    -0.00030366    -0.00029945
     6
  Step:    31            Position(A)                                  Velocity(au)
C        -0.03912179     0.02471503    -0.11932832    -0.00004191     0.00009702    -0.00071815
N        -0.04455103    -0.03371709     1.41472883    -0.00010935     0.00006616     0.00064459
H         0.96954911    -0.06726009    -0.50750893     0.00062506    -0.00055318    -0.00064942
H         0.86708883    -0.30139740     1.84244799     0.00082854    -0.00065726     0.00071180
H        -0.93358172    -0.15680427     1.90386889     0.00064186    -0.00056652    -0.00014277
H        -1.03072025     0.02972817    -0.58441388    -0.00007657    -0.00029855    -0.00031958
     6
  Step:    32            Position(A)                                  Velocity(au)
C        -0.03936430     0.02525798    -0.12324569    -0.00004422     0.00009692    -0.00068195
N        -0.04512687    -0.03334488     1.41825694    -0.00009510     0.00006678     0.00061615
H         0.97306502    -0.07041051    -0.51123871     0.00062566    -0.00057278    -0.00068010
H         0.87148602    -0.30498231     1.84638405     0.00073424    -0.00062023     0.00069051
H        -0.93020498    -0.16005697     1.90316161     0.00055558    -0.00059828    -0.00010522
H        -1.03111825     0.02807403    -0.58626103    -0.00006709    -0.00029155    -0.00034128
     6
  Step:    33            Position(A)                                  Velocity(au)
C        -0.03961673     0.02579985    -0.12696152    -0.00004553     0.00009668    -0.00064638
N        -0.04561546    -0.03296962     1.42162553    -0.00007846     0.00006730     0.00058785
H         0.97655232    -0.07367134    -0.51512150     0.00061551    -0.00059311    -0.00070454
H         0.87530738    -0.30833981     1.85017704     0.00062491    -0.00057650     0.00066191
H        -0.92736299    -0.16350102     1.90269108     0.00045274    -0.00063523    -0.00005934
H        -1.03147126     0.02646475    -0.58823388    -0.00006035    -0.00028242    -0.00036466
     6
  Step:    34            Position(A)                                  Velocity(au)
C        -0.03987384     0.02633986    -0.13047930    -0.00004602     0.00009632    -0.00061149
N        -0.04600486    -0.03259169     1.42483550    -0.00005994     0.00006780     0.00055980
H         0.97995309    -0.07704798    -0.51912309     0.00059583    -0.00061499    -0.00072332
H         0.87847937    -0.31143383     1.85379138     0.00050443    -0.00052656     0.00062812
H        -0.92513843    -0.16716572     1.90249757     0.00033717    -0.00067776    -0.00000752
H        -1.03179366     0.02491352    -0.59034195    -0.00005602    -0.00027063    -0.00039002
     6
  Step:    35            Position(A)                                  Velocity(au)
C        -0.04013156     0.02687738    -0.13380207    -0.00004593     0.00009587    -0.00057694
N        -0.04628604    -0.03221115     1.42788792    -0.00004006     0.00006832     0.00053188
H         0.98321768    -0.08055107    -0.52321307     0.00056840    -0.00063959    -0.00073723
H         0.88095034    -0.31423032     1.85720367     0.00037656    -0.00047040     0.00059133
H        -0.92359118    -0.17108300     1.90260695     0.00021294    -0.00072654     0.00004755
H        -1.03209798     0.02343724    -0.59259689    -0.00005382    -0.00025522    -0.00041795
     6
  Step:    36            Position(A)                                  Velocity(au)
C        -0.04038745     0.02741178    -0.13693024    -0.00004565     0.00009529    -0.00054182
N        -0.04645281    -0.03182777     1.43078257    -0.00001926     0.00006891     0.00050351
H         0.98630854    -0.08419939    -0.52736631     0.00053611    -0.00066888    -0.00074756
H         0.88268980    -0.31669355     1.86040318     0.00024503    -0.00040700     0.00055396
H        -0.92275744    -0.17528942     1.90302924     0.00008419    -0.00078283     0.00010294
H        -1.03239545     0.02205985    -0.59501518    -0.00005376    -0.00023427    -0.00045000
     6
  Step:    37            Position(A)                                  Velocity(au)
C        -0.04064171     0.02794218    -0.13985682    -0.00004583     0.00009447    -0.00050337
N        -0.04650122    -0.03144112     1.43351461     0.00000215     0.00006959     0.00047288
H         0.98920866    -0.08802569    -0.53156692     0.00050501    -0.00070636    -0.00075736
H         0.88368849    -0.31877852     1.86339411     0.00011389    -0.00033331     0.00051927
H        -0.92265041    -0.17983097     1.90375725    -0.00004539    -0.00084903     0.00015556
H        -1.03269877     0.02081929    -0.59762553    -0.00005735    -0.00020396    -0.00049050
     6
  Step:    38            Position(A)                                  Velocity(au)
C        -0.04089923     0.02846676    -0.14255181    -0.00004729     0.00009298    -0.00045228
N        -0.04642876    -0.03105066     1.43606355     0.00002383     0.00007033     0.00043348
H         0.99194833    -0.09208780    -0.53582432     0.00049071    -0.00075439    -0.00077759
H         0.88396167    -0.32041592     1.86620222    -0.00001131    -0.00024605     0.00049157
H        -0.92326437    -0.18477118     1.90476645    -0.00017319    -0.00092489     0.00020438
H        -1.03303595     0.01978208    -0.60049301    -0.00007389    -0.00015994    -0.00055280
     6
  Step:    39            Position(A)                                  Velocity(au)
C        -0.04116942     0.02897990    -0.14490437    -0.00004837     0.00009029    -0.00037727
N        -0.04623528    -0.03065626     1.43835236     0.00004415     0.00007095     0.00037740
H         0.99468508    -0.09644491    -0.54024496     0.00050567    -0.00079433    -0.00082540
H         0.88356226    -0.32152450     1.86888019    -0.00012588    -0.00016301     0.00046848
H        -0.92458329    -0.19015297     1.90603820    -0.00029511    -0.00098687     0.00025673
H        -1.03352343     0.01903430    -0.60379491    -0.00012177    -0.00011760    -0.00064868
     6
  Step:    40            Position(A)                                  Velocity(au)
C        -0.04143870     0.02947368    -0.14675925    -0.00005193     0.00009730    -0.00032121
N        -0.04593641    -0.03025942     1.44027240     0.00006876     0.00008000     0.00034804
H         0.99758765    -0.10094633    -0.54502943     0.00059643    -0.00090299    -0.00100444
H         0.88255787    -0.32223385     1.87142689    -0.00025928    -0.00012110     0.00049550
H        -0.92655550    -0.19577700     1.90762960    -0.00045289    -0.00113593     0.00035471
H        -1.03439397     0.01847058    -0.60772722    -0.00022109    -0.00011123    -0.00085478
     6
  Step:    41            Position(A)                                  Velocity(au)
C        -0.04169769     0.03001416    -0.14850238    -0.00004210     0.00009674    -0.00030561
N        -0.04551692    -0.02981292     1.44216897     0.00008138     0.00008034     0.00033368
H         1.00061666    -0.10588777    -0.55057606     0.00048892    -0.00088038    -0.00098193
H         0.88077292    -0.32290604     1.87402462    -0.00037637    -0.00011160     0.00044178
H        -0.92930553    -0.20209371     1.90974423    -0.00052515    -0.00114104     0.00039505
H        -1.03563118     0.01775580    -0.61247713    -0.00021666    -0.00013613    -0.00085018
     6
  Step:    42            Position(A)                                  Velocity(au)
C        -0.04190764     0.03055127    -0.15016364    -0.00003390     0.00009615    -0.00029125
N        -0.04502988    -0.02936445     1.44398947     0.00009270     0.00008076     0.00032044
H         1.00303403    -0.11075336    -0.55596773     0.00037826    -0.00087203    -0.00095199
H         0.87836533    -0.32347704     1.87634818    -0.00048222    -0.00008980     0.00039662
H        -0.93240545    -0.20848765     1.91203027    -0.00057815    -0.00115928     0.00041827
H        -1.03680745     0.01695416    -0.61719781    -0.00020202    -0.00014680    -0.00084532
     6
  Step:    43            Position(A)                                  Velocity(au)
C        -0.04207519     0.03108469    -0.15174518    -0.00002669     0.00009550    -0.00027717
N        -0.04448483    -0.02891377     1.44573679     0.00010208     0.00008120     0.00030762
H         1.00482833    -0.11559712    -0.56117571     0.00026577    -0.00087116    -0.00091763
H         0.87540374    -0.32390586     1.87844065    -0.00057503    -0.00006318     0.00035882
H        -0.93574276    -0.21500135     1.91440137    -0.00061053    -0.00118245     0.00042674
H        -1.03788048     0.01612135    -0.62188911    -0.00018068    -0.00014959    -0.00084001
     6
  Step:    44            Position(A)                                  Velocity(au)
C        -0.04220470     0.03161411    -0.15324830    -0.00002016     0.00009480    -0.00026334
N        -0.04389381    -0.02846074     1.44741307     0.00010918     0.00008167     0.00029518
H         1.00599189    -0.12044873    -0.56618025     0.00015220    -0.00087453    -0.00088011
H         0.87196563    -0.32418022     1.88034154    -0.00065329    -0.00003577     0.00032805
H        -0.93920016    -0.22164737     1.91677954    -0.00062183    -0.00120647     0.00042168
H        -1.03881833     0.01528933    -0.62654646    -0.00015404    -0.00014773    -0.00083353
     6