 Fermi distribution function

Calculation with static geometry


********************************************************************************
 iSCC Total electronic   Diff electronic      SCC error    
    9   -0.53964269E+01   -0.24247271E-12    0.16454670E-06
********************************************************************************

 Total charge:     1.00000000

 Atomic gross charges (e)
 Atom           Charge
    1       0.13298375
    2      -0.02355392
    3       0.18588058
    4       0.27253131
    5       0.27264872
    6       0.15950954

Nr. of electrons (up):     12.00000000
Atom populations (up)
 Atom       Population
    1       3.86701625
    2       5.02355392
    3       0.81411942
    4       0.72746869
    5       0.72735128
    6       0.84049046

l-shell populations (up)
 Atom Sh.   l       Population
    1   1   0       1.32981392
    1   2   1       2.53720233
    2   1   0       1.43201468
    2   2   1       3.59153924
    3   1   0       0.81411942
    4   1   0       0.72746869
    5   1   0       0.72735128
    6   1   0       0.84049046

Orbital populations (up)
 Atom Sh.   l   m       Population  Label
    1   1   0   0       1.32981392  s
    1   2   1  -1       0.61233486  p_y
    1   2   1   0       0.86741947  p_z
    1   2   1   1       1.05744800  p_x
    2   1   0   0       1.43201468  s
    2   2   1  -1       1.32357300  p_y
    2   2   1   0       1.10851312  p_z
    2   2   1   1       1.15945312  p_x
    3   1   0   0       0.81411942  s
    4   1   0   0       0.72746869  s
    5   1   0   0       0.72735128  s
    6   1   0   0       0.84049046  s

Fermi level:                        -0.5022564422 H          -13.6671 eV
Band energy:                        -8.9287226638 H         -242.9629 eV
TS:                                  0.0000000000 H            0.0000 eV
Band free energy (E-TS):            -8.9287226638 H         -242.9629 eV
Extrapolated E(0K):                 -8.9287226638 H         -242.9629 eV
Input / Output electrons (q):     12.0000000000     12.0000000000

Energy H0:                          -5.5305381567 H         -150.4936 eV
Energy SCC:                          0.1341112719 H            3.6494 eV
Total Electronic energy:            -5.3964268848 H         -146.8442 eV
Repulsive energy:                    0.1798885899 H            4.8950 eV
Total energy:                       -5.2165382949 H         -141.9492 eV
Extrapolated to 0:                  -5.2165382949 H         -141.9492 eV
Total Mermin free energy:           -5.2165382949 H         -141.9492 eV
Force related energy:               -5.2165382949 H         -141.9492 eV

SCC converged

Excitation Energy:                   0.1417353298 H            3.8568 eV

Total Forces
    1      0.000733878938      0.007667062525      0.041349254063
    2     -0.013122584059      0.006031004652     -0.050007120167
    3     -0.005919808239      0.000476147107     -0.000082574481
    4     -0.000556813911     -0.007207658595      0.007836917777
    5      0.013671637059     -0.000851153027     -0.000950386966
    6      0.005193690211     -0.006115402664      0.001853909775

Maximal derivative component:        0.500071E-01 au


