 Fermi distribution function

Calculation with static geometry


********************************************************************************
 iSCC Total electronic   Diff electronic      SCC error    
   12   -0.53398263E+01   -0.23643825E-08    0.85295915E-06
********************************************************************************

 Total charge:     1.00000000

 Atomic gross charges (e)
 Atom           Charge
    1       0.34629021
    2      -0.23698408
    3       0.15696789
    4       0.26746861
    5       0.29822640
    6       0.16803097

Nr. of electrons (up):     12.00000000
Atom populations (up)
 Atom       Population
    1       3.65370979
    2       5.23698408
    3       0.84303211
    4       0.73253139
    5       0.70177360
    6       0.83196903

l-shell populations (up)
 Atom Sh.   l       Population
    1   1   0       1.34482238
    1   2   1       2.30888742
    2   1   0       1.45982966
    2   2   1       3.77715442
    3   1   0       0.84303211
    4   1   0       0.73253139
    5   1   0       0.70177360
    6   1   0       0.83196903

Orbital populations (up)
 Atom Sh.   l   m       Population  Label
    1   1   0   0       1.34482238  s
    1   2   1  -1       0.49636634  p_y
    1   2   1   0       0.88840535  p_z
    1   2   1   1       0.92411573  p_x
    2   1   0   0       1.45982966  s
    2   2   1  -1       1.34613898  p_y
    2   2   1   0       1.08447503  p_z
    2   2   1   1       1.34654041  p_x
    3   1   0   0       0.84303211  s
    4   1   0   0       0.73253139  s
    5   1   0   0       0.70177360  s
    6   1   0   0       0.83196903  s

Fermi level:                        -0.4960742780 H          -13.4989 eV
Band energy:                        -8.7512892429 H         -238.1347 eV
TS:                                  0.0000000000 H            0.0000 eV
Band free energy (E-TS):            -8.7512892429 H         -238.1347 eV
Extrapolated E(0K):                 -8.7512892429 H         -238.1347 eV
Input / Output electrons (q):     12.0000000000     12.0000000000

Energy H0:                          -5.4744525718 H         -148.9674 eV
Energy SCC:                          0.1346262843 H            3.6634 eV
Total Electronic energy:            -5.3398262875 H         -145.3041 eV
Repulsive energy:                    0.1602141437 H            4.3596 eV
Total energy:                       -5.1796121438 H         -140.9444 eV
Extrapolated to 0:                  -5.1796121438 H         -140.9444 eV
Total Mermin free energy:           -5.1796121438 H         -140.9444 eV
Force related energy:               -5.1796121438 H         -140.9444 eV

SCC converged

Excitation Energy:                   0.0914568699 H            2.4887 eV

Total Forces
    1      0.003288320435     -0.001005367630      0.068441504135
    2     -0.004642477543     -0.008960959166     -0.069469187407
    3     -0.010265741436     -0.014426772019      0.000814854099
    4     -0.011112588681      0.017971148792     -0.002750362161
    5      0.014404662538     -0.008545838137     -0.002733602020
    6      0.008327824686      0.014967788159      0.005696793355

Maximal derivative component:        0.694692E-01 au


