|===============================================================================
|
|  DFTB+ release 20.1
|
|  Copyright (C) 2006 - 2020  DFTB+ developers group
|
|===============================================================================
|
|  When publishing results obtained with DFTB+, please cite the following
|  reference:
|
|  * DFTB+, a software package for efficient approximate density functional
|    theory based atomistic simulations, J. Chem. Phys. 152, 124101 (2020).
|    [doi: 10.1063/1.5143190]
|
|  You should also cite additional publications crediting the parametrization
|  data you use. Please consult the documentation of the SK-files for the
|  references.
|
|===============================================================================

Reading input file 'dftb_in.hsd'
Parser version: 8

--------------------------------------------------------------------------------
Reading SK-files:
Done.


Processed input in HSD format written to 'dftb_pin.hsd'

Starting initialization...
--------------------------------------------------------------------------------
WARNING!
-> Excited state forces are not implemented yet for fractional occupations, kT=  0.3158E-02K
OpenMP threads:              1
Chosen random seed:          505837338
Mode:                        Static calculation
Self consistent charges:     Yes
SCC-tolerance:                 0.100000E-05
Max. scc iterations:                    100
Shell resolved Hubbard:      No
Spin polarisation:           No
Nr. of up electrons:             6.000000
Nr. of down electrons:           6.000000
Periodic boundaries:         No
Electronic solver:           Relatively robust
Mixer:                       Broyden mixer
Mixing parameter:                  0.200000
Maximal SCC-cycles:                     100
Nr. of chrg. vec. in memory:              0
Electronic temperature:        0.100000E-07 H      0.272114E-06 eV
Initial charges:             Set automatically (system chrg:   0.100E+01)
Included shells:             C:  s, p
                             N:  s, p
                             H:  s
Extra options:
                             Mulliken analysis
                             Force calculation
Force type                   original
                             Eigenvector printing

--------------------------------------------------------------------------------

***  Geometry step: 0

 iSCC Total electronic   Diff electronic      SCC error    
    1   -0.53173393E+01    0.00000000E+00    0.10254015E+01
    2   -0.53301030E+01   -0.12763684E-01    0.68983273E+00
    3   -0.53378803E+01   -0.77773132E-02    0.18988402E+00
    4   -0.53015455E+01    0.36334750E-01    0.68772206E+00
    5   -0.53398095E+01   -0.38263931E-01    0.13106237E-01
    6   -0.53398044E+01    0.50352651E-05    0.20235814E-01
    7   -0.53398153E+01   -0.10872787E-04    0.13645786E-01
    8   -0.53398248E+01   -0.95233240E-05    0.49419939E-02
    9   -0.53398255E+01   -0.67086901E-06    0.36292840E-02
   10   -0.53398263E+01   -0.77518072E-06    0.35480220E-03
   11   -0.53398263E+01   -0.54307332E-08    0.19399061E-03
   12   -0.53398263E+01   -0.23643825E-08    0.85295915E-06
>> Charges saved for restart in charges.bin

Total Energy:                       -5.0881552740 H         -138.4557 eV
Extrapolated to 0:                  -5.1796121438 H         -140.9444 eV
Total Mermin free energy:           -5.0881552740 H         -138.4557 eV
Force related energy:               -5.1796121438 H         -140.9444 eV

--------------------------------------------------------------------------------
DFTB+ running times                          cpu [s]             wall clock [s]
--------------------------------------------------------------------------------
SCC                                    +     0.01  ( 47.3%)      0.06  ( 59.6%)
Post-SCC processing                    +     0.01  ( 46.2%)      0.04  ( 35.4%)
--------------------------------------------------------------------------------
Missing                                +     0.00  (  6.4%)      0.00  (  5.1%)
Total                                  =     0.02  (100.0%)      0.10  (100.0%)
--------------------------------------------------------------------------------
