     6
  Step:     0            Position(A)                                  Velocity(au)
C        -0.03040148     0.01243093     0.02513416    -0.00000084    -0.00008388    -0.00030369
N        -0.05107412    -0.05137335     1.29402998    -0.00013320     0.00005038     0.00025425
H         0.88901456     0.03028797    -0.52151731     0.00035079     0.00028623    -0.00038003
H         0.85173460    -0.14235840     1.81463936     0.00094994    -0.00016248     0.00081356
H        -0.89471458    -0.06321311     1.83108989     0.00072868    -0.00027078    -0.00067028
H        -0.98696234     0.07127995    -0.51396671    -0.00016837     0.00044653     0.00032236
     6
  Step:     1            Position(A)                                  Velocity(au)
C        -0.03043388     0.01200515     0.02305564    -0.00001050    -0.00007248    -0.00045474
N        -0.05175946    -0.05110664     1.29577255    -0.00011547     0.00004677     0.00038118
H         0.89124090     0.03178442    -0.52374710     0.00045707     0.00026435    -0.00043232
H         0.85681669    -0.14330473     1.81910541     0.00089589    -0.00017951     0.00081290
H        -0.89117698    -0.06477791     1.82769158     0.00055055    -0.00029857    -0.00056190
H        -0.98789842     0.07366246    -0.51225239    -0.00017367     0.00042753     0.00030298
     6
  Step:     2            Position(A)                                  Velocity(au)
C        -0.03051636     0.01163803     0.02015947    -0.00001910    -0.00006233    -0.00060114
N        -0.05233736    -0.05086168     1.29819996    -0.00009407     0.00004252     0.00050342
H         0.89401469     0.03317989    -0.52624670     0.00055076     0.00024845    -0.00047817
H         0.86153532    -0.14432222     1.82353217     0.00081802    -0.00018895     0.00079928
H        -0.88869177    -0.06647938     1.82494291     0.00034535    -0.00032108    -0.00043391
H        -0.98886226     0.07595695    -0.51065225    -0.00017920     0.00041356     0.00028033
     6
  Step:     3            Position(A)                                  Velocity(au)
C        -0.03064296     0.01132299     0.01647660    -0.00002656    -0.00005326    -0.00074010
N        -0.05278899    -0.05064133     1.30128208    -0.00006950     0.00003785     0.00061873
H         0.89726849     0.03450347    -0.52898032     0.00063165     0.00023685    -0.00051706
H         0.86576925    -0.14537264     1.82785294     0.00071921    -0.00019199     0.00077369
H        -0.88739735    -0.06829187     1.82294273     0.00011765    -0.00033931    -0.00028978
H        -0.98985964     0.07818859    -0.50918442    -0.00018626     0.00040324     0.00025410
     6
  Step:     4            Position(A)                                  Velocity(au)
C        -0.03080726     0.01105458     0.01205246    -0.00003275    -0.00004510    -0.00086864
N        -0.05309864    -0.05044707     1.30497749    -0.00004247     0.00003300     0.00072481
H         0.90093371     0.03577430    -0.53191059     0.00069917     0.00022787    -0.00054867
H         0.86941357    -0.14642522     1.83200715     0.00060279    -0.00018986     0.00073734
H        -0.88740303    -0.07019616     1.82176869    -0.00012578    -0.00035417    -0.00013414
H        -0.99090254     0.08037400    -0.50786888    -0.00019573     0.00039504     0.00022397
     6
  Step:     5            Position(A)                                  Velocity(au)
C        -0.03100225     0.01082823     0.00694769    -0.00003758    -0.00003771    -0.00098368
N        -0.05325485    -0.05027928     1.30923319    -0.00001390     0.00002815     0.00081932
H         0.90493831     0.03700317    -0.53499923     0.00075243     0.00022017    -0.00057275
H         0.87238177    -0.14745541     1.83594149     0.00047257    -0.00018359     0.00069172
H        -0.88877717    -0.07217707     1.82147127    -0.00037596    -0.00036608     0.00002726
H        -0.99200674     0.08252217    -0.50672746    -0.00020807     0.00038768     0.00018971
     6
  Step:     6            Position(A)                                  Velocity(au)
C        -0.03122038     0.01064006     0.00123884    -0.00004094    -0.00003100    -0.00108217
N        -0.05325141    -0.05013758     1.31398433     0.00001511     0.00002343     0.00089999
H         0.90920514     0.03819461    -0.53820686     0.00079036     0.00021276    -0.00058897
H         0.87460854    -0.14844344     1.83961127     0.00033306    -0.00017399     0.00063866
H        -0.89153600    -0.07422049     1.82206830    -0.00062210    -0.00037502     0.00018771
H        -0.99318988     0.08463580    -0.50578336    -0.00022343     0.00038013     0.00015125
     6
  Step:     7            Position(A)                                  Velocity(au)
C        -0.03145354     0.01048653    -0.00498185    -0.00004275    -0.00002493    -0.00116136
N        -0.05308830    -0.05002102     1.31915438     0.00004333     0.00001893     0.00096475
H         0.91365103     0.03934856    -0.54149186     0.00081197     0.00020494    -0.00059682
H         0.87605330    -0.14937346     1.84298187     0.00018944    -0.00016181     0.00058032
H        -0.89563496    -0.07631112     1.82354055    -0.00085239    -0.00038066     0.00034007
H        -0.99446973     0.08671256    -0.50506018    -0.00024163     0.00037160     0.00010874
     6
  Step:     8            Position(A)                                  Velocity(au)
C        -0.03169330     0.01036433    -0.01160785    -0.00004302    -0.00001947    -0.00121919
N        -0.05277214    -0.04992821     1.32465615     0.00006951     0.00001473     0.00101211
H         0.91818695     0.04046158    -0.54480873     0.00081675     0.00019626    -0.00059597
H         0.87670403    -0.15023333     1.84603059     0.00004743    -0.00014778     0.00051923
H        -0.90096494    -0.07843125     1.82583009    -0.00105530    -0.00038262     0.00047738
H        -0.99586268     0.08874628    -0.50458048    -0.00026227     0.00036158     0.00006267
     6
  Step:     9            Position(A)                                  Velocity(au)
C        -0.03193127     0.01027024    -0.01852221    -0.00004179    -0.00001464    -0.00125486
N        -0.05231628    -0.04985742     1.33039487     0.00009252     0.00001090     0.00104156
H         0.92272183     0.04152821    -0.54811067     0.00080519     0.00018655    -0.00058675
H         0.87658009    -0.15101470     1.84874848    -0.00008709    -0.00013270     0.00045826
H        -0.90735510    -0.08056051     1.82884234    -0.00122099    -0.00038064     0.00059375
H        -0.99738246     0.09072823    -0.50436417    -0.00028477     0.00034987     0.00001379
     6
  Step:    10            Position(A)                                  Velocity(au)
C        -0.03215948     0.01020105    -0.02560442    -0.00003925    -0.00001042    -0.00126930
N        -0.05174016    -0.04980666     1.33627360     0.00011147     0.00000747     0.00105398
H         0.92716798     0.04254229    -0.55135329     0.00077897     0.00017589    -0.00057026
H         0.87573260    -0.15171346     1.85114197    -0.00020878    -0.00011742     0.00040041
H        -0.91458377    -0.08267687     1.83245278    -0.00134297    -0.00037480     0.00068528
H        -0.99903898     0.09264875    -0.50442672    -0.00030849     0.00033666    -0.00003694
     6
  Step:    11            Position(A)                                  Velocity(au)
C        -0.03237096     0.01015357    -0.03273972    -0.00003564    -0.00000679    -0.00126539
N        -0.05106768    -0.04977370     1.34220060     0.00012589     0.00000449     0.00105178
H         0.93144712     0.04349832    -0.55449824     0.00074088     0.00016460    -0.00054829
H         0.87424150    -0.15232999     1.85323352    -0.00031346    -0.00010282     0.00034863
H        -0.92239777    -0.08475866     1.83651825    -0.00141915    -0.00036563     0.00075066
H        -1.00083789     0.09449913    -0.50477792    -0.00033288     0.00032245    -0.00008848
     6
  Step:    12            Position(A)                                  Velocity(au)
C        -0.03256017     0.01012468    -0.03982945    -0.00004908    -0.00000587    -0.00195849
N        -0.05032499    -0.04975617     1.34809731     0.00021308     0.00000307     0.00163040
H         0.93549665     0.04439267    -0.55751691     0.00109020     0.00024043    -0.00082111
H         0.87220880    -0.15286927     1.85506114    -0.00062577    -0.00014075     0.00047954
H        -0.93053733    -0.08678709     1.84089142    -0.00227926    -0.00055577     0.00124209
H        -1.00278108     0.09627362    -0.50542139    -0.00056136     0.00048358    -0.00021972
     6
  Step:    13            Position(A)                                  Velocity(au)
C        -0.03281383     0.01007921    -0.05041967    -0.00002461    -0.00000626    -0.00108384
N        -0.04911840    -0.04973582     1.35695339     0.00012797     0.00000261     0.00091072
H         0.94168330     0.04575770    -0.56236080     0.00066302     0.00014693    -0.00053806
H         0.86855948    -0.15363174     1.85765627    -0.00039545    -0.00007917     0.00027085
H        -0.94330934    -0.08985120     1.84795130    -0.00134219    -0.00032015     0.00075192
H        -1.00629089     0.09899471    -0.50710631    -0.00041035     0.00029079    -0.00022535
     6
  Step:    14            Position(A)                                  Velocity(au)
C        -0.03293786     0.01005083    -0.05646477    -0.00001920    -0.00000396    -0.00105166
N        -0.04838945    -0.04972657     1.36203927     0.00012808     0.00000083     0.00088598
H         0.94525865     0.04655495    -0.56531088     0.00059997     0.00013525    -0.00050506
H         0.86618564    -0.15405295     1.85912195    -0.00043461    -0.00007090     0.00025238
H        -0.95078358    -0.09162110     1.85220219    -0.00128687    -0.00030535     0.00074343
H        -1.00866993     0.10059836    -0.50851444    -0.00042948     0.00027659    -0.00027109
     6
  Step:    15            Position(A)                                  Velocity(au)
C        -0.03303107     0.01003445    -0.06231895    -0.00001392    -0.00000201    -0.00102532
N        -0.04766924    -0.04972638     1.36697809     0.00012608    -0.00000062     0.00086624
H         0.94847182     0.04728806    -0.56807542     0.00054010     0.00012529    -0.00047670
H         0.86364193    -0.15443401     1.86051187    -0.00045948    -0.00006553     0.00024599
H        -0.95786996    -0.09330618     1.85636301    -0.00121718    -0.00029264     0.00072732
H        -1.01115036     0.10212424    -0.51017361    -0.00044955     0.00026543    -0.00031655
     6
  Step:    16            Position(A)                                  Velocity(au)
C        -0.03309469     0.01002822    -0.06801574    -0.00000883    -0.00000033    -0.00100380
N        -0.04696909    -0.04973352     1.37179818     0.00012204    -0.00000179     0.00085056
H         0.95134332     0.04796638    -0.57068130     0.00048291     0.00011669    -0.00045241
H         0.86100921    -0.15479123     1.86189321    -0.00047005    -0.00006291     0.00025107
H        -0.96449608    -0.09491793     1.86039597    -0.00113403    -0.00028152     0.00070452
H        -1.01373444     0.10358860    -0.51208059    -0.00046950     0.00025664    -0.00036165
     6
  Step:    17            Position(A)                                  Velocity(au)
C        -0.03313019     0.01003073    -0.07358290    -0.00000399     0.00000114    -0.00098514
N        -0.04629977    -0.04974649     1.37652257     0.00011592    -0.00000272     0.00083721
H         0.95389068     0.04859745    -0.57315207     0.00042756     0.00010908    -0.00043125
H         0.85836733    -0.15513992     1.86332916    -0.00046582    -0.00006284     0.00026676
H        -0.97059533    -0.09646522     1.86426872    -0.00103725    -0.00027130     0.00067517
H        -1.01641879     0.10500405    -0.51423184    -0.00048780     0.00024938    -0.00040581
     6
  Step:    18            Position(A)                                  Velocity(au)
C        -0.03313934     0.01004093    -0.07903732     0.00000053     0.00000244    -0.00096748
N        -0.04567219    -0.04976396     1.38116468     0.00010770    -0.00000342     0.00082451
H         0.95612677     0.04918672    -0.57550608     0.00037353     0.00010214    -0.00041244
H         0.85579770    -0.15549427     1.86487766    -0.00044645    -0.00006514     0.00029210
H        -0.97610068    -0.09795316     1.86794964    -0.00092709    -0.00026138     0.00063940
H        -1.01919187     0.10637865    -0.51662076    -0.00050288     0.00024291    -0.00044821
     6
  Step:    19            Position(A)                                  Velocity(au)
C        -0.03312429     0.01005799    -0.08438551     0.00000463     0.00000362    -0.00094944
N        -0.04509725    -0.04978473     1.38572880     0.00009746    -0.00000392     0.00081124
H         0.95806139     0.04973795    -0.57775726     0.00032071     0.00009567    -0.00039546
H         0.85338235    -0.15586725     1.86659065    -0.00041220    -0.00006960     0.00032597
H        -0.98094693    -0.09938367     1.87140804    -0.00080474    -0.00025135     0.00059775
H        -1.02203375     0.10771636    -0.51923638    -0.00051337     0.00023665    -0.00048800
     6
  Step:    20            Position(A)                                  Velocity(au)
C        -0.03308766     0.01008128    -0.08962634     0.00000823     0.00000469    -0.00093016
N        -0.04458518    -0.04980767     1.39021238     0.00008543    -0.00000422     0.00079662
H         0.95970361     0.05025375    -0.57991662     0.00026934     0.00008954    -0.00038005
H         0.85120048    -0.15627051     1.86851323    -0.00036404    -0.00007599     0.00036710
H        -0.98507590    -0.10075650     1.87461629    -0.00067233    -0.00024102     0.00055118
H        -1.02491745     0.10901803    -0.52206337    -0.00051826     0.00023019    -0.00052448
     6
  Step:    21            Position(A)                                  Velocity(au)
C        -0.03303254     0.01011028    -0.09475395     0.00001123     0.00000568    -0.00090924
N        -0.04414492    -0.04983172     1.39460864     0.00007193    -0.00000433     0.00078026
H         0.96106373     0.05073603    -0.58199370     0.00021989     0.00008368    -0.00036615
H         0.84932436    -0.15671425     1.87068265    -0.00030373    -0.00008402     0.00041399
H        -0.98844138    -0.10207032     1.87755203    -0.00053267    -0.00023032     0.00050098
H        -1.02781074     0.11028232    -0.52508272    -0.00051686     0.00022327    -0.00055712
     6
  Step:    22            Position(A)                                  Velocity(au)
C        -0.03296244     0.01014457    -0.09976015     0.00001358     0.00000659    -0.00088657
N        -0.04378354    -0.04985597     1.39890871     0.00005733    -0.00000429     0.00076208
H         0.96215442     0.05118637    -0.58399753     0.00017292     0.00007807    -0.00035379
H         0.84781525    -0.15720699     1.87312732    -0.00023363    -0.00009340     0.00046502
H        -0.99101267    -0.10332347     1.88019992    -0.00038892    -0.00021928     0.00044861
H        -1.03067812     0.11150645    -0.52827269    -0.00050885     0.00021571    -0.00058558
     6
  Step:    23            Position(A)                                  Velocity(au)
C        -0.03288121     0.01018379    -0.10463614     0.00001521     0.00000745    -0.00086227
N        -0.04350586    -0.04987957     1.40310320     0.00004210    -0.00000411     0.00074218
H         0.96299120     0.05160624    -0.58593723     0.00012899     0.00007272    -0.00034306
H         0.84672019    -0.15775537     1.87586605    -0.00015657    -0.00010377     0.00051845
H        -0.99277651    -0.10451457     1.88255250    -0.00024442    -0.00020803     0.00039561
H        -1.03348267     0.11268678    -0.53160992    -0.00049417     0.00020744    -0.00060971
     6
  Step:    24            Position(A)                                  Velocity(au)
C        -0.03279291     0.01022768    -0.10937370     0.00001610     0.00000827    -0.00083658
N        -0.04331420    -0.04990183     1.40718333     0.00002668    -0.00000382     0.00072079
H         0.96359251     0.05199715    -0.58782233     0.00008861     0.00006766    -0.00033407
H         0.84606964    -0.15836397     1.87890758    -0.00007568    -0.00011477     0.00057249
H        -0.99373778    -0.10564283     1.88461066    -0.00010246    -0.00019671     0.00034352
H        -1.03618769     0.11381926    -0.53507043    -0.00047303     0.00019843    -0.00062953
     6
  Step:    25            Position(A)                                  Velocity(au)
C        -0.03270168     0.01027601    -0.11396582     0.00001625     0.00000905    -0.00080981
N        -0.04320833    -0.04992219     1.41114153     0.00001154    -0.00000344     0.00069821
H         0.96397943     0.05236078    -0.58966281     0.00005223     0.00006292    -0.00032692
H         0.84587622    -0.15903535     1.88225055     0.00000582    -0.00012604     0.00062539
H        -0.99391918    -0.10670829     1.88638349     0.00003384    -0.00018548     0.00029378
H        -1.03875801     0.11489969    -0.53863051    -0.00044585     0.00018867    -0.00064518
     6
  Step:    26            Position(A)                                  Velocity(au)
C        -0.03261166     0.01032859    -0.11840714     0.00001567     0.00000979    -0.00078229
N        -0.04318548    -0.04994023     1.41497192    -0.00000288    -0.00000300     0.00067479
H         0.96417513     0.05269901    -0.59146910     0.00002016     0.00005855    -0.00032168
H         0.84613454    -0.15977000     1.88588387     0.00008477    -0.00013724     0.00067551
H        -0.99336024    -0.10771188     1.88788783     0.00016163    -0.00017451     0.00024774
H        -1.04116116     0.11592394    -0.54226744    -0.00041319     0.00017821    -0.00065692
     6
  Step:    27            Position(A)                                  Velocity(au)
C        -0.03252684     0.01038529    -0.12269409     0.00001440     0.00001052    -0.00075435
N        -0.04324051    -0.04995566     1.41867041    -0.00001619    -0.00000252     0.00065084
H         0.96420432     0.05301400    -0.59325194    -0.00000740     0.00005460    -0.00031840
H         0.84682202    -0.16056658     1.88978747     0.00015825    -0.00014806     0.00072135
H        -0.99211580    -0.10865536     1.88914761     0.00027833    -0.00016394     0.00020659
H        -1.04336815     0.11688801    -0.54596006    -0.00037574     0.00016705    -0.00066510
     6
  Step:    28            Position(A)                                  Velocity(au)
C        -0.03245097     0.01044600    -0.12682484     0.00001248     0.00001123    -0.00072628
N        -0.04336618    -0.04996832     1.42223467    -0.00002804    -0.00000201     0.00062668
H         0.96409256     0.05330825    -0.59502212    -0.00003035     0.00005114    -0.00031707
H         0.84790050    -0.16142219     1.89393332     0.00022372    -0.00015827     0.00076162
H        -0.99025433    -0.10954124     1.89019312     0.00038172    -0.00015387     0.00017137
H        -1.04535401     0.11778803    -0.54968922    -0.00033424     0.00015522    -0.00067009
     6
  Step:    29            Position(A)                                  Velocity(au)
C        -0.03238752     0.01051061    -0.13079910     0.00000998     0.00001192    -0.00069832
N        -0.04355338    -0.04997815     1.42566390    -0.00003812    -0.00000151     0.00060252
H         0.96386568     0.05358471    -0.59679028    -0.00004870     0.00004828    -0.00031764
H         0.84931866    -0.16233281     1.89828686     0.00027907    -0.00016773     0.00079532
H        -0.98785601    -0.11037253     1.89106007     0.00046990    -0.00014438     0.00014298
H        -1.04709815     0.11862018    -0.55343794    -0.00028949     0.00014270    -0.00067231
     6
  Step:    30            Position(A)                                  Velocity(au)
C        -0.03233957     0.01057905    -0.13461760     0.00000697     0.00001260    -0.00067062
N        -0.04379157    -0.04998513     1.42895838    -0.00004622    -0.00000100     0.00057854
H         0.96354910     0.05384701    -0.59856675    -0.00006258     0.00004617    -0.00032004
H         0.85101471    -0.16329389     1.90280850     0.00032270    -0.00017642     0.00082167
H        -0.98501058    -0.11115241     1.89178868     0.00054139    -0.00013542     0.00012212
H        -1.04858451     0.11938043    -0.55719166    -0.00024230     0.00012941    -0.00067219
     6
  Step:    31            Position(A)                                  Velocity(au)
C        -0.03230977     0.01065123    -0.13828188     0.00000352     0.00001327    -0.00064332
N        -0.04406906    -0.04998930     1.43211923    -0.00005216    -0.00000050     0.00055487
H         0.96316738     0.05409987    -0.60036131    -0.00007219     0.00004509    -0.00032416
H         0.85291931    -0.16430125     1.90745508     0.00035351    -0.00018453     0.00084016
H        -0.98181517    -0.11188356     1.89242270     0.00059507    -0.00012680     0.00010934
H        -1.04980175     0.12006409    -0.56093829    -0.00019351     0.00011513    -0.00067019
     6
  Step:    32            Position(A)                                  Velocity(au)
C        -0.03230027     0.01072706    -0.14179441    -0.00000026     0.00001392    -0.00061660
N        -0.04437347    -0.04999071     1.43514846    -0.00005586    -0.00000001     0.00053169
H         0.96274373     0.05435002    -0.60218303    -0.00007780     0.00004562    -0.00032985
H         0.85495847    -0.16535250     1.91218127     0.00037092    -0.00019268     0.00085050
H        -0.97837196    -0.11256701     1.89300843     0.00063026    -0.00011797     0.00010502
H        -1.05074332     0.12066481    -0.56466832    -0.00014403     0.00009934    -0.00066681
     6
  Step:    33            Position(A)                                  Velocity(au)
C        -0.03231267     0.01080647    -0.14515887    -0.00000425     0.00001455    -0.00059055
N        -0.04469206    -0.04998942     1.43804922    -0.00005728     0.00000048     0.00050911
H         0.96229969     0.05460871    -0.60404020    -0.00007966     0.00004938    -0.00033707
H         0.85705621    -0.16645022     1.91694078     0.00037474    -0.00020269     0.00085255
H        -0.97478588    -0.11319930     1.89359396     0.00064663    -0.00010727     0.00010949
H        -1.05140809     0.12117207    -0.56837529    -0.00009505     0.00008053    -0.00066277
     6
  Step:    34            Position(A)                                  Velocity(au)
C        -0.03234767     0.01088926    -0.14837867    -0.00000810     0.00001496    -0.00056341
N        -0.04501211    -0.04998532     1.44082474    -0.00005645     0.00000113     0.00048596
H         0.96185560     0.05490062    -0.60594116    -0.00007646     0.00006505    -0.00034767
H         0.85913658    -0.16761243     1.92168670     0.00036493    -0.00022414     0.00084574
H        -0.97116242    -0.11376297     1.89422920     0.00064393    -0.00008596     0.00012400
H        -1.05180308     0.12156264    -0.57205784    -0.00005136     0.00005108    -0.00066153
     6
  Step:    35            Position(A)                                  Velocity(au)
C        -0.03240296     0.01097325    -0.15143815    -0.00001093     0.00001202    -0.00052614
N        -0.04532124    -0.04997684     1.44346532    -0.00005683     0.00000361     0.00046093
H         0.96144756     0.05533375    -0.60791507    -0.00002902     0.00010689    -0.00043295
H         0.86112344    -0.16894830     1.92636664     0.00036761    -0.00026912     0.00087867
H        -0.96760917    -0.11415736     1.89497598     0.00065075    -0.00006305     0.00016221
H        -1.05198055     0.12174136    -0.57574818    -0.00006930     0.00003186    -0.00074369
     6
  Step:    36            Position(A)                                  Velocity(au)
C        -0.03247814     0.01104111    -0.15429471    -0.00001592     0.00001257    -0.00050222
N        -0.04562692    -0.04995612     1.44596931    -0.00005188     0.00000381     0.00044011
H         0.96131553     0.05583742    -0.61036900    -0.00002074     0.00008263    -0.00044498
H         0.86310403    -0.17034123     1.93122427     0.00033664    -0.00024106     0.00086096
H        -0.96406628    -0.11460396     1.89593514     0.00061335    -0.00008770     0.00018671
H        -1.05222829     0.12198069    -0.57986854    -0.00001852     0.00004351    -0.00073418
     6
  Step:    37            Position(A)                                  Velocity(au)
C        -0.03258028     0.01111318    -0.15703038    -0.00002069     0.00001335    -0.00048150
N        -0.04589895    -0.04993446     1.44836598    -0.00004497     0.00000398     0.00042163
H         0.96121665     0.05625384    -0.61286995    -0.00001490     0.00006914    -0.00045316
H         0.86487196    -0.17163252     1.93595355     0.00029333    -0.00022483     0.00083496
H        -0.96077950    -0.11513390     1.89705500     0.00056023    -0.00010091     0.00021913
H        -1.05218671     0.12222587    -0.58392336     0.00003282     0.00004226    -0.00072252
     6
  Step:    38            Position(A)                                  Velocity(au)
C        -0.03270841     0.01118971    -0.15965350    -0.00002527     0.00001417    -0.00046212
N        -0.04612741    -0.04991187     1.45066181    -0.00003642     0.00000414     0.00040421
H         0.96114970     0.05660696    -0.61541242    -0.00000924     0.00005874    -0.00046058
H         0.86636858    -0.17284348     1.94051691     0.00024044    -0.00021108     0.00080285
H        -0.95783119    -0.11572708     1.89837391     0.00049341    -0.00011185     0.00025782
H        -1.05186308     0.12245102    -0.58790972     0.00008258     0.00003776    -0.00071055
     6
  Step:    39            Position(A)                                  Velocity(au)
C        -0.03286136     0.01127080    -0.16217068    -0.00002961     0.00001500    -0.00044386
N        -0.04630403    -0.04988836     1.45286217    -0.00002653     0.00000431     0.00038771
H         0.96111391     0.05690720    -0.61799316    -0.00000381     0.00004976    -0.00046744
H         0.86754643    -0.17398050     1.94488391     0.00017992    -0.00019810     0.00076578
H        -0.95529106    -0.11637802     1.89992282     0.00041530    -0.00012220     0.00030146
H        -1.05126820     0.12264588    -0.59182705     0.00013017     0.00003190    -0.00069862
     6
  Step:    40            Position(A)                                  Velocity(au)
C        -0.03303764     0.01135648    -0.16458789    -0.00003366     0.00001583    -0.00042661
N        -0.04642235    -0.04986394     1.45497207    -0.00001564     0.00000448     0.00037209
H         0.96110730     0.05716018    -0.62060896     0.00000113     0.00004159    -0.00047369
H         0.86836875    -0.17504578     1.94903018     0.00011367    -0.00018539     0.00072482
H        -0.95321426    -0.11708560     1.90172528     0.00032861    -0.00013249     0.00034869
H        -1.05041595     0.12280565    -0.59567638     0.00017507     0.00002541    -0.00068701
     6
  Step:    41            Position(A)                                  Velocity(au)
C        -0.03323540     0.01144673    -0.16691065    -0.00003736     0.00001667    -0.00041031
N        -0.04647779    -0.04983861     1.45699637    -0.00000409     0.00000465     0.00035732
H         0.96112643     0.05736923    -0.62325612     0.00000533     0.00003388    -0.00047924
H         0.86880942    -0.17604029     1.95293716     0.00004361    -0.00017284     0.00068100
H        -0.95163996    -0.11785006     1.90379694     0.00023630    -0.00014284     0.00039803
H        -1.04932305     0.12292816    -0.59946016     0.00021678     0.00001865    -0.00067594
     6
  Step:    42            Position(A)                                  Velocity(au)
C        -0.03345248     0.01154155    -0.16914405    -0.00004064     0.00001750    -0.00039487
N        -0.04646776    -0.04981234     1.45893979     0.00000776     0.00000482     0.00034337
H         0.96116648     0.05753634    -0.62593045     0.00000856     0.00002644    -0.00048399
H         0.86885297    -0.17696503     1.95659203    -0.00002839    -0.00016051     0.00063530
H        -0.95059037    -0.11867175     1.90614509     0.00014144    -0.00015323     0.00044798
H        -1.04800884     0.12301272    -0.60318209     0.00025483     0.00001184    -0.00066562
     6
  Step:    43            Position(A)                                  Velocity(au)
C        -0.03368639     0.01164089    -0.17129279    -0.00004345     0.00001832    -0.00038022
N        -0.04639168    -0.04978511     1.46080699     0.00001955     0.00000500     0.00033024
H         0.96122140     0.05766265    -0.62862718     0.00001061     0.00001915    -0.00048783
H         0.86849438    -0.17782154     1.95998750    -0.00010046    -0.00014851     0.00058873
H        -0.95007036    -0.11955051     1.90876846     0.00004713    -0.00016352     0.00049699
H        -1.04649500     0.12305960    -0.60684694     0.00028883     0.00000514    -0.00065623
     6
  Step:    44            Position(A)                                  Velocity(au)
C        -0.03393441     0.01174471    -0.17336117    -0.00004576     0.00001913    -0.00036630
N        -0.04625093    -0.04975687     1.46260251     0.00003094     0.00000519     0.00031790
H         0.96128414     0.05774873    -0.63134107     0.00001132     0.00001191    -0.00049069
H         0.86773878    -0.17861221     1.96312166    -0.00017081    -0.00013702     0.00054221
H        -0.95006768    -0.12048536     1.91165727    -0.00004362    -0.00017356     0.00054355
H        -1.04480533     0.12306971    -0.61046043     0.00031842    -0.00000137    -0.00064792
     6