 Fermi distribution function

Calculation with static geometry


********************************************************************************
 iSCC Total electronic   Diff electronic      SCC error    
   12   -0.53435251E+01   -0.63175243E-10    0.71224975E-07
********************************************************************************

 Total charge:     1.00000000

 Atomic gross charges (e)
 Atom           Charge
    1       0.33047893
    2      -0.22061439
    3       0.15630992
    4       0.26644670
    5       0.30202836
    6       0.16535049

Nr. of electrons (up):     12.00000000
Atom populations (up)
 Atom       Population
    1       3.66952107
    2       5.22061439
    3       0.84369008
    4       0.73355330
    5       0.69797164
    6       0.83464951

l-shell populations (up)
 Atom Sh.   l       Population
    1   1   0       1.33211835
    1   2   1       2.33740273
    2   1   0       1.45290710
    2   2   1       3.76770729
    3   1   0       0.84369008
    4   1   0       0.73355330
    5   1   0       0.69797164
    6   1   0       0.83464951

Orbital populations (up)
 Atom Sh.   l   m       Population  Label
    1   1   0   0       1.33211835  s
    1   2   1  -1       0.48584372  p_y
    1   2   1   0       0.88981847  p_z
    1   2   1   1       0.96174053  p_x
    2   1   0   0       1.45290710  s
    2   2   1  -1       1.30949084  p_y
    2   2   1   0       1.09563389  p_z
    2   2   1   1       1.36258256  p_x
    3   1   0   0       0.84369008  s
    4   1   0   0       0.73355330  s
    5   1   0   0       0.69797164  s
    6   1   0   0       0.83464951  s

Fermi level:                        -0.4981972747 H          -13.5566 eV
Band energy:                        -8.7989035990 H         -239.4303 eV
TS:                                  0.0000000000 H            0.0000 eV
Band free energy (E-TS):            -8.7989035990 H         -239.4303 eV
Extrapolated E(0K):                 -8.7989035990 H         -239.4303 eV
Input / Output electrons (q):     12.0000000000     12.0000000000

Energy H0:                          -5.4795549553 H         -149.1063 eV
Energy SCC:                          0.1360298280 H            3.7016 eV
Total Electronic energy:            -5.3435251273 H         -145.4047 eV
Repulsive energy:                    0.1690592603 H            4.6003 eV
Total energy:                       -5.1744658670 H         -140.8044 eV
Extrapolated to 0:                  -5.1744658670 H         -140.8044 eV
Total Mermin free energy:           -5.1744658670 H         -140.8044 eV
Force related energy:               -5.1744658670 H         -140.8044 eV

SCC converged

Excitation Energy:                   0.0859590765 H            2.3391 eV

Total Forces
    1      0.008405116025      0.004776329242      0.050780176275
    2     -0.007243011597      0.012940411953     -0.054578799747
    3     -0.008185875835      0.009826757913     -0.001942009404
    4     -0.009560257211     -0.016825665511     -0.003040485919
    5      0.011595609138      0.007654808247      0.004581486906
    6      0.004988419479     -0.018372641845      0.004199631888

Maximal derivative component:        0.545788E-01 au


