|===============================================================================
|
|  DFTB+ release 20.1
|
|  Copyright (C) 2006 - 2020  DFTB+ developers group
|
|===============================================================================
|
|  When publishing results obtained with DFTB+, please cite the following
|  reference:
|
|  * DFTB+, a software package for efficient approximate density functional
|    theory based atomistic simulations, J. Chem. Phys. 152, 124101 (2020).
|    [doi: 10.1063/1.5143190]
|
|  You should also cite additional publications crediting the parametrization
|  data you use. Please consult the documentation of the SK-files for the
|  references.
|
|===============================================================================

Reading input file 'dftb_in.hsd'
Parser version: 8

--------------------------------------------------------------------------------
Reading SK-files:
Done.


Processed input in HSD format written to 'dftb_pin.hsd'

Starting initialization...
--------------------------------------------------------------------------------
WARNING!
-> Excited state forces are not implemented yet for fractional occupations, kT=  0.3158E-02K
OpenMP threads:              1
Chosen random seed:          435835063
Mode:                        Static calculation
Self consistent charges:     Yes
SCC-tolerance:                 0.100000E-05
Max. scc iterations:                    100
Shell resolved Hubbard:      No
Spin polarisation:           No
Nr. of up electrons:             6.000000
Nr. of down electrons:           6.000000
Periodic boundaries:         No
Electronic solver:           Relatively robust
Mixer:                       Broyden mixer
Mixing parameter:                  0.200000
Maximal SCC-cycles:                     100
Nr. of chrg. vec. in memory:              0
Electronic temperature:        0.100000E-07 H      0.272114E-06 eV
Initial charges:             Set automatically (system chrg:   0.100E+01)
Included shells:             C:  s, p
                             N:  s, p
                             H:  s
Extra options:
                             Mulliken analysis
                             Force calculation
Force type                   original
                             Eigenvector printing

--------------------------------------------------------------------------------

***  Geometry step: 0

 iSCC Total electronic   Diff electronic      SCC error    
    1   -0.53238204E+01    0.00000000E+00    0.98506189E+00
    2   -0.53350147E+01   -0.11194319E-01    0.66425890E+00
    3   -0.53420565E+01   -0.70417898E-02    0.16669859E+00
    4   -0.53178589E+01    0.24197621E-01    0.57913531E+00
    5   -0.53435232E+01   -0.25664355E-01    0.11330464E-01
    6   -0.53434935E+01    0.29764086E-04    0.25337715E-01
    7   -0.53435209E+01   -0.27424235E-04    0.86142791E-02
    8   -0.53435233E+01   -0.24483308E-05    0.56243328E-02
    9   -0.53435250E+01   -0.16538103E-05    0.15699636E-02
   10   -0.53435251E+01   -0.13461825E-06    0.32137733E-03
   11   -0.53435251E+01   -0.61597598E-08    0.32235032E-04
   12   -0.53435251E+01   -0.63175243E-10    0.71224975E-07
>> Charges saved for restart in charges.bin

Total Energy:                       -5.0885067905 H         -138.4653 eV
Extrapolated to 0:                  -5.1744658670 H         -140.8044 eV
Total Mermin free energy:           -5.0885067905 H         -138.4653 eV
Force related energy:               -5.1744658670 H         -140.8044 eV

--------------------------------------------------------------------------------
DFTB+ running times                          cpu [s]             wall clock [s]
--------------------------------------------------------------------------------
SCC                                    +     0.01  ( 46.3%)      0.03  ( 60.5%)
Post-SCC processing                    +     0.01  ( 46.1%)      0.01  ( 32.6%)
--------------------------------------------------------------------------------
Missing                                +     0.00  (  7.5%)      0.00  (  7.0%)
Total                                  =     0.02  (100.0%)      0.04  (100.0%)
--------------------------------------------------------------------------------
