|===============================================================================
|
|  DFTB+ release 20.1
|
|  Copyright (C) 2006 - 2020  DFTB+ developers group
|
|===============================================================================
|
|  When publishing results obtained with DFTB+, please cite the following
|  reference:
|
|  * DFTB+, a software package for efficient approximate density functional
|    theory based atomistic simulations, J. Chem. Phys. 152, 124101 (2020).
|    [doi: 10.1063/1.5143190]
|
|  You should also cite additional publications crediting the parametrization
|  data you use. Please consult the documentation of the SK-files for the
|  references.
|
|===============================================================================

Reading input file 'dftb_in.hsd'
Parser version: 8

--------------------------------------------------------------------------------
Reading SK-files:
Done.


Processed input in HSD format written to 'dftb_pin.hsd'

Starting initialization...
--------------------------------------------------------------------------------
OpenMP threads:              1
Chosen random seed:          498210083
Mode:                        Static calculation
Self consistent charges:     Yes
SCC-tolerance:                 0.100000E-05
Max. scc iterations:                   1000
Shell resolved Hubbard:      No
Spin polarisation:           No
Nr. of up electrons:            16.000000
Nr. of down electrons:          16.000000
Periodic boundaries:         No
Electronic solver:           Relatively robust
Maximal SCC-cycles:                    1000
Initial charges:             Set automatically (system chrg:   0.100E+01)
Included shells:             C:  s, p
                             H:  s
                             N:  s, p
Spin coupling constants:     C   1(s)-1(s):  -0.455900E-01
                             C   1(s)-2(p):  -0.293000E-01
                             C   2(p)-1(s):  -0.293000E-01
                             C   2(p)-2(p):  -0.275500E-01
                             H   1(s)-1(s):  -0.792500E-01
                             N   1(s)-1(s):  -0.468700E-01
                             N   1(s)-2(p):  -0.317000E-01
                             N   2(p)-1(s):  -0.317000E-01
                             N   2(p)-2(p):  -0.307200E-01
Range separated hybrid:      Yes
  Screening parameter omega:   0.300000E+00
  Range separated algorithm:   MatrixBased
Extra options:
                             Mulliken analysis
                             Force calculation
Force type                   original
                             Eigenvector printing


REKS Calcuation:             Yes
SSR(2,2) Calcuation:         Yes
Energy Functional:           (PPS+OSS)/2
Number of Core Orbitals:                 15
Number of Active Orbitals:                2
Number of Basis:                         32
Number of States:                         2
State-Averaging Weight:          0.500000
                                 0.500000
State of Interest:                        1
Initial Guess:               Diagonalize H0 matrix
Newton-Raphson for FON opt:  Yes
NR max. Iterations:                      50
Level Shifting:              Yes
Shift Value:                     0.300000
W Scale Factor:              C  =    3.200000
                             H  =    3.200000
                             N  =    3.200000
Transition Dipole:           No
Gradient of Microstate:      No
CP-REKS Solver:              Preconditioned Conjugate-Gradient
CG max. Iterations:                     100
CG Tolerance:                  0.100000E-07
Memory for A and Hxc:        Direct Updating Without Saving
Non-Adiabatic Coupling:      Yes

--------------------------------------------------------------------------------

***  Geometry step: 0

  iSCC       reks energy        Diff energy         x_a       SCC error   
    1      -16.4121524739       0.0000000000     0.999096    1.22728727
    2      -16.4320230353      -0.0198705614     0.999886    0.05427821
    3      -16.4360348567      -0.0040118214     0.999964    0.02066969
    4      -16.4374746191      -0.0014397624     0.999983    0.00979468
    5      -16.4381184500      -0.0006438308     0.999989    0.00667661
    6      -16.4384451718      -0.0003267219     0.999992    0.00483201
    7      -16.4386299186      -0.0001847468     0.999994    0.00336572
    8      -16.4387461672      -0.0001162486     0.999995    0.00227249
    9      -16.4388272321      -0.0000810649     0.999995    0.00168741
   10      -16.4388889971      -0.0000617650     0.999996    0.00142481
   11      -16.4389393535      -0.0000503564     0.999996    0.00129708
   12      -16.4389823915      -0.0000430380     0.999996    0.00118513
   13      -16.4390203364      -0.0000379449     0.999996    0.00108741
   14      -16.4390544693      -0.0000341329     0.999996    0.00100223
   15      -16.4390855749      -0.0000311056     0.999997    0.00092794
   16      -16.4391141666      -0.0000285917     0.999997    0.00086304
   17      -16.4391406019      -0.0000264353     0.999997    0.00080616
   18      -16.4391651448      -0.0000245429     0.999997    0.00075611
   19      -16.4391879999      -0.0000228550     0.999997    0.00071186
   20      -16.4392093321      -0.0000213323     0.999997    0.00067254
   21      -16.4392292792      -0.0000199470     0.999997    0.00064079
   22      -16.4392479584      -0.0000186793     0.999997    0.00061606
   23      -16.4392654723      -0.0000175139     0.999997    0.00059291
   24      -16.4392819111      -0.0000164388     0.999997    0.00057121
   25      -16.4392973557      -0.0000154446     0.999997    0.00055082
   26      -16.4393118788      -0.0000145231     0.999997    0.00053163
   27      -16.4393255466      -0.0000136677     0.999997    0.00051352
   28      -16.4393384191      -0.0000128726     0.999997    0.00049678
   29      -16.4393505517      -0.0000121325     0.999997    0.00048484
   30      -16.4393619948      -0.0000114431     0.999997    0.00047310
   31      -16.4393727951      -0.0000108003     0.999997    0.00046157
   32      -16.4393829956      -0.0000102005     0.999997    0.00045027
   33      -16.4393926359      -0.0000096403     0.999997    0.00043924
   34      -16.4394017528      -0.0000091169     0.999997    0.00042846
   35      -16.4394103803      -0.0000086275     0.999997    0.00041795
   36      -16.4394185498      -0.0000081695     0.999997    0.00040772
   37      -16.4394262906      -0.0000077408     0.999997    0.00039776
   38      -16.4394336297      -0.0000073391     0.999997    0.00038808
   39      -16.4394405923      -0.0000069626     0.999997    0.00037867
   40      -16.4394472019      -0.0000066095     0.999997    0.00036953
   41      -16.4394534800      -0.0000062782     0.999997    0.00036065
   42      -16.4394594470      -0.0000059670     0.999997    0.00035204
   43      -16.4394651217      -0.0000056747     0.999997    0.00034368
   44      -16.4394705215      -0.0000053998     0.999997    0.00033557
   45      -16.4394756628      -0.0000051413     0.999997    0.00032770
   46      -16.4394805609      -0.0000048980     0.999997    0.00032008
   47      -16.4394852298      -0.0000046689     0.999997    0.00031268
   48      -16.4394896828      -0.0000044530     0.999997    0.00030552
   49      -16.4394939323      -0.0000042495     0.999997    0.00029857
   50      -16.4394979899      -0.0000040575     0.999997    0.00029183
   51      -16.4395018662      -0.0000038763     0.999997    0.00028530
   52      -16.4395055714      -0.0000037052     0.999997    0.00027897
   53      -16.4395091149      -0.0000035435     0.999997    0.00027284
   54      -16.4395125056      -0.0000033907     0.999997    0.00026689
   55      -16.4395157517      -0.0000032461     0.999997    0.00026112
   56      -16.4395188609      -0.0000031092     0.999997    0.00025553
   57      -16.4395218406      -0.0000029797     0.999997    0.00025011
   58      -16.4395246975      -0.0000028569     0.999997    0.00024485
   59      -16.4395274380      -0.0000027405     0.999997    0.00023975
   60      -16.4395300681      -0.0000026301     0.999997    0.00023480
   61      -16.4395325935      -0.0000025254     0.999997    0.00023000
   62      -16.4395350194      -0.0000024260     0.999997    0.00022534
   63      -16.4395373509      -0.0000023315     0.999997    0.00022082
   64      -16.4395395927      -0.0000022417     0.999997    0.00021643
   65      -16.4395417491      -0.0000021564     0.999997    0.00021217
   66      -16.4395438243      -0.0000020752     0.999997    0.00020803
   67      -16.4395458222      -0.0000019979     0.999997    0.00020402
   68      -16.4395477465      -0.0000019243     0.999997    0.00020012
   69      -16.4395496008      -0.0000018542     0.999997    0.00019633
   70      -16.4395513882      -0.0000017874     0.999997    0.00019264
   71      -16.4395531119      -0.0000017237     0.999997    0.00018907
   72      -16.4395547749      -0.0000016630     0.999997    0.00018559
   73      -16.4395563799      -0.0000016050     0.999997    0.00018221
   74      -16.4395579295      -0.0000015496     0.999997    0.00017892
   75      -16.4395594262      -0.0000014967     0.999997    0.00017572
   76      -16.4395608724      -0.0000014462     0.999997    0.00017261
   77      -16.4395622703      -0.0000013979     0.999997    0.00016959
   78      -16.4395636219      -0.0000013517     0.999997    0.00016664
   79      -16.4395649294      -0.0000013074     0.999997    0.00016378
   80      -16.4395661945      -0.0000012651     0.999997    0.00016099
   81      -16.4395674191      -0.0000012246     0.999997    0.00015827
   82      -16.4395686049      -0.0000011858     0.999997    0.00015563
   83      -16.4395697535      -0.0000011486     0.999997    0.00015305
   84      -16.4395708664      -0.0000011129     0.999997    0.00015055
   85      -16.4395719451      -0.0000010787     0.999997    0.00014810
   86      -16.4395729911      -0.0000010459     0.999997    0.00014572
   87      -16.4395740055      -0.0000010144     0.999997    0.00014340
   88      -16.4395749897      -0.0000009842     0.999997    0.00014114
   89      -16.4395759448      -0.0000009552     0.999997    0.00013893
   90      -16.4395768721      -0.0000009273     0.999997    0.00013678
   91      -16.4395777725      -0.0000009004     0.999997    0.00013468
   92      -16.4395786472      -0.0000008747     0.999997    0.00013264
   93      -16.4395794970      -0.0000008499     0.999997    0.00013064
   94      -16.4395803231      -0.0000008260     0.999997    0.00012869
   95      -16.4395811261      -0.0000008031     0.999997    0.00012679
   96      -16.4395819071      -0.0000007810     0.999997    0.00012494
   97      -16.4395826668      -0.0000007597     0.999997    0.00012312
   98      -16.4395834060      -0.0000007392     0.999997    0.00012135
   99      -16.4395841255      -0.0000007194     0.999997    0.00011963
  100      -16.4395848259      -0.0000007004     0.999997    0.00011794
  101      -16.4395855079      -0.0000006821     0.999997    0.00011629
  102      -16.4395861723      -0.0000006644     0.999997    0.00011468
  103      -16.4395868195      -0.0000006473     0.999997    0.00011310
  104      -16.4395874503      -0.0000006308     0.999997    0.00011157
  105      -16.4395880652      -0.0000006149     0.999997    0.00011006
  106      -16.4395886647      -0.0000005995     0.999997    0.00010859
  107      -16.4395892494      -0.0000005847     0.999997    0.00010715
  108      -16.4395898198      -0.0000005704     0.999997    0.00010582
  109      -16.4395903763      -0.0000005565     0.999997    0.00010464
  110      -16.4395909194      -0.0000005431     0.999997    0.00010348
  111      -16.4395914496      -0.0000005302     0.999997    0.00010234
  112      -16.4395919672      -0.0000005176     0.999997    0.00010123
  113      -16.4395924728      -0.0000005055     0.999997    0.00010014
  114      -16.4395929666      -0.0000004938     0.999997    0.00009906
  115      -16.4395934491      -0.0000004825     0.999997    0.00009801
  116      -16.4395939206      -0.0000004715     0.999997    0.00009698
  117      -16.4395943814      -0.0000004609     0.999997    0.00009596
  118      -16.4395948320      -0.0000004506     0.999997    0.00009497
  119      -16.4395952726      -0.0000004406     0.999997    0.00009399
  120      -16.4395957035      -0.0000004309     0.999997    0.00009304
  121      -16.4395961251      -0.0000004216     0.999997    0.00009210
  122      -16.4395965376      -0.0000004125     0.999997    0.00009117
  123      -16.4395969413      -0.0000004037     0.999998    0.00009027
  124      -16.4395973364      -0.0000003951     0.999998    0.00008938
  125      -16.4395977232      -0.0000003868     0.999998    0.00008850
  126      -16.4395981020      -0.0000003788     0.999998    0.00008764
  127      -16.4395984730      -0.0000003710     0.999998    0.00008680
  128      -16.4395988365      -0.0000003634     0.999998    0.00008597
  129      -16.4395991926      -0.0000003561     0.999998    0.00008516
  130      -16.4395995415      -0.0000003489     0.999998    0.00008436
  131      -16.4395998835      -0.0000003420     0.999998    0.00008358
  132      -16.4396002188      -0.0000003353     0.999998    0.00008281
  133      -16.4396005475      -0.0000003287     0.999998    0.00008205
  134      -16.4396008698      -0.0000003224     0.999998    0.00008130
  135      -16.4396011860      -0.0000003162     0.999998    0.00008057
  136      -16.4396014962      -0.0000003102     0.999998    0.00007985
  137      -16.4396018005      -0.0000003043     0.999998    0.00007914
  138      -16.4396020991      -0.0000002986     0.999998    0.00007845
  139      -16.4396023922      -0.0000002931     0.999998    0.00007777
  140      -16.4396026799      -0.0000002877     0.999998    0.00007709
  141      -16.4396029624      -0.0000002825     0.999998    0.00007643
  142      -16.4396032397      -0.0000002774     0.999998    0.00007578
  143      -16.4396035121      -0.0000002724     0.999998    0.00007515
  144      -16.4396037797      -0.0000002676     0.999998    0.00007452
  145      -16.4396040426      -0.0000002629     0.999998    0.00007390
  146      -16.4396043009      -0.0000002583     0.999998    0.00007329
  147      -16.4396045547      -0.0000002538     0.999998    0.00007269
  148      -16.4396048042      -0.0000002495     0.999998    0.00007211
  149      -16.4396050494      -0.0000002452     0.999998    0.00007153
  150      -16.4396052905      -0.0000002411     0.999998    0.00007096
  151      -16.4396055276      -0.0000002371     0.999998    0.00007040
  152      -16.4396057607      -0.0000002332     0.999998    0.00006985
  153      -16.4396059900      -0.0000002293     0.999998    0.00006930
  154      -16.4396062156      -0.0000002256     0.999998    0.00006877
  155      -16.4396064376      -0.0000002220     0.999998    0.00006824
  156      -16.4396066560      -0.0000002184     0.999998    0.00006773
  157      -16.4396068709      -0.0000002149     0.999998    0.00006722
  158      -16.4396070825      -0.0000002116     0.999998    0.00006672
  159      -16.4396072907      -0.0000002083     0.999998    0.00006622
  160      -16.4396074958      -0.0000002050     0.999998    0.00006574
  161      -16.4396076977      -0.0000002019     0.999998    0.00006526
  162      -16.4396078965      -0.0000001988     0.999998    0.00006479
  163      -16.4396080923      -0.0000001958     0.999998    0.00006433
  164      -16.4396082852      -0.0000001929     0.999998    0.00006387
  165      -16.4396084753      -0.0000001900     0.999998    0.00006342
  166      -16.4396086625      -0.0000001873     0.999998    0.00006298
  167      -16.4396088470      -0.0000001845     0.999998    0.00006254
  168      -16.4396090289      -0.0000001819     0.999998    0.00006211
  169      -16.4396092082      -0.0000001793     0.999998    0.00006169
  170      -16.4396093849      -0.0000001767     0.999998    0.00006127
  171      -16.4396095591      -0.0000001742     0.999998    0.00006086
  172      -16.4396097309      -0.0000001718     0.999998    0.00006046
  173      -16.4396099003      -0.0000001694     0.999998    0.00006006
  174      -16.4396100674      -0.0000001671     0.999998    0.00005967
  175      -16.4396102322      -0.0000001648     0.999998    0.00005928
  176      -16.4396103948      -0.0000001626     0.999998    0.00005890
  177      -16.4396105552      -0.0000001604     0.999998    0.00005852
  178      -16.4396107135      -0.0000001583     0.999998    0.00005815
  179      -16.4396108697      -0.0000001562     0.999998    0.00005779
  180      -16.4396110239      -0.0000001542     0.999998    0.00005743
  181      -16.4396111760      -0.0000001522     0.999998    0.00005707
  182      -16.4396113263      -0.0000001502     0.999998    0.00005673
  183      -16.4396114746      -0.0000001483     0.999998    0.00005638
  184      -16.4396116210      -0.0000001464     0.999998    0.00005604
  185      -16.4396117657      -0.0000001446     0.999998    0.00005571
  186      -16.4396119085      -0.0000001428     0.999998    0.00005538
  187      -16.4396120496      -0.0000001411     0.999998    0.00005505
  188      -16.4396121889      -0.0000001394     0.999998    0.00005473
  189      -16.4396123266      -0.0000001377     0.999998    0.00005442
  190      -16.4396124626      -0.0000001360     0.999998    0.00005411
  191      -16.4396125970      -0.0000001344     0.999998    0.00005380
  192      -16.4396127299      -0.0000001328     0.999998    0.00005350
  193      -16.4396128612      -0.0000001313     0.999998    0.00005320
  194      -16.4396129909      -0.0000001298     0.999998    0.00005290
  195      -16.4396131192      -0.0000001283     0.999998    0.00005261
  196      -16.4396132460      -0.0000001268     0.999998    0.00005233
  197      -16.4396133714      -0.0000001254     0.999998    0.00005205
  198      -16.4396134954      -0.0000001240     0.999998    0.00005177
  199      -16.4396136181      -0.0000001226     0.999998    0.00005149
  200      -16.4396137393      -0.0000001213     0.999998    0.00005122
  201      -16.4396138593      -0.0000001200     0.999998    0.00005096
  202      -16.4396139780      -0.0000001187     0.999998    0.00005069
  203      -16.4396140954      -0.0000001174     0.999998    0.00005043
  204      -16.4396142115      -0.0000001162     0.999998    0.00005018
  205      -16.4396143264      -0.0000001149     0.999998    0.00004993
  206      -16.4396144402      -0.0000001137     0.999998    0.00004968
  207      -16.4396145527      -0.0000001126     0.999998    0.00004943
  208      -16.4396146642      -0.0000001114     0.999998    0.00004919
  209      -16.4396147745      -0.0000001103     0.999998    0.00004895
  210      -16.4396148836      -0.0000001092     0.999998    0.00004871
  211      -16.4396149917      -0.0000001081     0.999998    0.00004848
  212      -16.4396150988      -0.0000001070     0.999998    0.00004825
  213      -16.4396152047      -0.0000001060     0.999998    0.00004803
  214      -16.4396153097      -0.0000001050     0.999998    0.00004780
  215      -16.4396154136      -0.0000001039     0.999998    0.00004758
  216      -16.4396155166      -0.0000001030     0.999998    0.00004737
  217      -16.4396156186      -0.0000001020     0.999998    0.00004715
  218      -16.4396157196      -0.0000001010     0.999998    0.00004694
  219      -16.4396158197      -0.0000001001     0.999998    0.00004673
  220      -16.4396159189      -0.0000000992     0.999998    0.00004653
  221      -16.4396160172      -0.0000000983     0.999998    0.00004632
  222      -16.4396161146      -0.0000000974     0.999998    0.00004612
  223      -16.4396162111      -0.0000000965     0.999998    0.00004593
  224      -16.4396163068      -0.0000000957     0.999998    0.00004573
  225      -16.4396164016      -0.0000000948     0.999998    0.00004554
  226      -16.4396164956      -0.0000000940     0.999998    0.00004535
  227      -16.4396165888      -0.0000000932     0.999998    0.00004516
  228      -16.4396166812      -0.0000000924     0.999998    0.00004498
  229      -16.4396167729      -0.0000000916     0.999998    0.00004479
  230      -16.4396168637      -0.0000000909     0.999998    0.00004461
  231      -16.4396169539      -0.0000000901     0.999998    0.00004444
  232      -16.4396170432      -0.0000000894     0.999998    0.00004426
  233      -16.4396171319      -0.0000000887     0.999998    0.00004409
  234      -16.4396172198      -0.0000000879     0.999998    0.00004392
  235      -16.4396173071      -0.0000000872     0.999998    0.00004375
  236      -16.4396173936      -0.0000000866     0.999998    0.00004359
  237      -16.4396174795      -0.0000000859     0.999998    0.00004342
  238      -16.4396175647      -0.0000000852     0.999998    0.00004326
  239      -16.4396176493      -0.0000000846     0.999998    0.00004310
  240      -16.4396177332      -0.0000000839     0.999998    0.00004294
  241      -16.4396178165      -0.0000000833     0.999998    0.00004279
  242      -16.4396178992      -0.0000000827     0.999998    0.00004264
  243      -16.4396179812      -0.0000000821     0.999998    0.00004249
  244      -16.4396180627      -0.0000000815     0.999998    0.00004234
  245      -16.4396181436      -0.0000000809     0.999998    0.00004219
  246      -16.4396182239      -0.0000000803     0.999998    0.00004205
  247      -16.4396183036      -0.0000000797     0.999998    0.00004190
  248      -16.4396183828      -0.0000000792     0.999998    0.00004176
  249      -16.4396184614      -0.0000000786     0.999998    0.00004162
  250      -16.4396185395      -0.0000000781     0.999998    0.00004149
  251      -16.4396186171      -0.0000000776     0.999998    0.00004135
  252      -16.4396186941      -0.0000000770     0.999998    0.00004122
  253      -16.4396187706      -0.0000000765     0.999998    0.00004109
  254      -16.4396188467      -0.0000000760     0.999998    0.00004096
  255      -16.4396189222      -0.0000000755     0.999998    0.00004083
  256      -16.4396189973      -0.0000000751     0.999998    0.00004070
  257      -16.4396190718      -0.0000000746     0.999998    0.00004058
  258      -16.4396191459      -0.0000000741     0.999998    0.00004046
  259      -16.4396192196      -0.0000000736     0.999998    0.00004033
  260      -16.4396192928      -0.0000000732     0.999998    0.00004022
  261      -16.4396193655      -0.0000000727     0.999998    0.00004010
  262      -16.4396194378      -0.0000000723     0.999998    0.00003998
  263      -16.4396195097      -0.0000000719     0.999998    0.00003987
  264      -16.4396195812      -0.0000000715     0.999998    0.00003976
  265      -16.4396196522      -0.0000000710     0.999998    0.00003964
  266      -16.4396197228      -0.0000000706     0.999998    0.00003953
  267      -16.4396197931      -0.0000000702     0.999998    0.00003943
  268      -16.4396198629      -0.0000000698     0.999998    0.00003932
  269      -16.4396199324      -0.0000000695     0.999998    0.00003922
  270      -16.4396200014      -0.0000000691     0.999998    0.00003911
  271      -16.4396200701      -0.0000000687     0.999998    0.00003901
  272      -16.4396201385      -0.0000000683     0.999998    0.00003891
  273      -16.4396202064      -0.0000000680     0.999998    0.00003881
  274      -16.4396202740      -0.0000000676     0.999998    0.00003871
  275      -16.4396203413      -0.0000000673     0.999998    0.00003862
  276      -16.4396204082      -0.0000000669     0.999998    0.00003852
  277      -16.4396204748      -0.0000000666     0.999998    0.00003843
  278      -16.4396205411      -0.0000000663     0.999998    0.00003834
  279      -16.4396206070      -0.0000000659     0.999998    0.00003825
  280      -16.4396206726      -0.0000000656     0.999998    0.00003816
  281      -16.4396207379      -0.0000000653     0.999998    0.00003807
  282      -16.4396208029      -0.0000000650     0.999998    0.00003798
  283      -16.4396208676      -0.0000000647     0.999998    0.00003790
  284      -16.4396209320      -0.0000000644     0.999998    0.00003781
  285      -16.4396209960      -0.0000000641     0.999998    0.00003773
  286      -16.4396210599      -0.0000000638     0.999998    0.00003765
  287      -16.4396211234      -0.0000000635     0.999998    0.00003757
  288      -16.4396211866      -0.0000000632     0.999998    0.00003749
  289      -16.4396212496      -0.0000000630     0.999998    0.00003742
  290      -16.4396213123      -0.0000000627     0.999998    0.00003734
  291      -16.4396213748      -0.0000000624     0.999998    0.00003726
  292      -16.4396214370      -0.0000000622     0.999998    0.00003719
  293      -16.4396214989      -0.0000000619     0.999998    0.00003712
  294      -16.4396215606      -0.0000000617     0.999998    0.00003705
  295      -16.4396216220      -0.0000000615     0.999998    0.00003698
  296      -16.4396216833      -0.0000000612     0.999998    0.00003691
  297      -16.4396217442      -0.0000000610     0.999998    0.00003684
  298      -16.4396218050      -0.0000000607     0.999998    0.00003677
  299      -16.4396218655      -0.0000000605     0.999998    0.00003671
  300      -16.4396219258      -0.0000000603     0.999998    0.00003664
  301      -16.4396219859      -0.0000000601     0.999998    0.00003658
  302      -16.4396220458      -0.0000000599     0.999998    0.00003652
  303      -16.4396221054      -0.0000000597     0.999998    0.00003646
  304      -16.4396221649      -0.0000000595     0.999998    0.00003640
  305      -16.4396222242      -0.0000000593     0.999998    0.00003634
  306      -16.4396222832      -0.0000000591     0.999998    0.00003628
  307      -16.4396223421      -0.0000000589     0.999998    0.00003623
  308      -16.4396224008      -0.0000000587     0.999998    0.00003617
  309      -16.4396224593      -0.0000000585     0.999998    0.00003612
  310      -16.4396225176      -0.0000000583     0.999998    0.00003606
  311      -16.4396225758      -0.0000000581     0.999998    0.00003601
  312      -16.4396226338      -0.0000000580     0.999998    0.00003596
  313      -16.4396226916      -0.0000000578     0.999998    0.00003591
  314      -16.4396227492      -0.0000000576     0.999998    0.00003586
  315      -16.4396228067      -0.0000000575     0.999998    0.00003581
  316      -16.4396228640      -0.0000000573     0.999998    0.00003577
  317      -16.4396229212      -0.0000000572     0.999998    0.00003572
  318      -16.4396229782      -0.0000000570     0.999998    0.00003567
  319      -16.4396230351      -0.0000000569     0.999998    0.00003563
  320      -16.4396230918      -0.0000000567     0.999998    0.00003559
  321      -16.4396231484      -0.0000000566     0.999998    0.00003555
  322      -16.4396232048      -0.0000000565     0.999998    0.00003550
  323      -16.4396232611      -0.0000000563     0.999998    0.00003546
  324      -16.4396233173      -0.0000000562     0.999998    0.00003543
  325      -16.4396233734      -0.0000000561     0.999998    0.00003539
  326      -16.4396234293      -0.0000000559     0.999998    0.00003535
  327      -16.4396234851      -0.0000000558     0.999998    0.00003531
  328      -16.4396235408      -0.0000000557     0.999998    0.00003528
  329      -16.4396235964      -0.0000000556     0.999998    0.00003524
  330      -16.4396236519      -0.0000000555     0.999998    0.00003521
  331      -16.4396237073      -0.0000000554     0.999998    0.00003518
  332      -16.4396237625      -0.0000000553     0.999998    0.00003515
  333      -16.4396238177      -0.0000000552     0.999998    0.00003512
  334      -16.4396238727      -0.0000000551     0.999998    0.00003509
  335      -16.4396239277      -0.0000000550     0.999998    0.00003506
  336      -16.4396239826      -0.0000000549     0.999998    0.00003503
  337      -16.4396240374      -0.0000000548     0.999998    0.00003500
  338      -16.4396240921      -0.0000000547     0.999998    0.00003498
  339      -16.4396241467      -0.0000000546     0.999998    0.00003495
  340      -16.4396242012      -0.0000000545     0.999998    0.00003493
  341      -16.4396242557      -0.0000000545     0.999998    0.00003490
  342      -16.4396243100      -0.0000000544     0.999998    0.00003488
  343      -16.4396243644      -0.0000000543     0.999998    0.00003486
  344      -16.4396244186      -0.0000000542     0.999998    0.00003484
  345      -16.4396244728      -0.0000000542     0.999998    0.00003482
  346      -16.4396245269      -0.0000000541     0.999998    0.00003480
  347      -16.4396245809      -0.0000000540     0.999998    0.00003478
  348      -16.4396246349      -0.0000000540     0.999998    0.00003476
  349      -16.4396246889      -0.0000000539     0.999998    0.00003474
  350      -16.4396247427      -0.0000000539     0.999998    0.00003473
  351      -16.4396247966      -0.0000000538     0.999998    0.00003471
  352      -16.4396248504      -0.0000000538     0.999998    0.00003470
  353      -16.4396249041      -0.0000000537     0.999998    0.00003469
  354      -16.4396249578      -0.0000000537     0.999998    0.00003467
  355      -16.4396250115      -0.0000000537     0.999998    0.00003466
  356      -16.4396250651      -0.0000000536     0.999998    0.00003465
  357      -16.4396251187      -0.0000000536     0.999998    0.00003464
  358      -16.4396251722      -0.0000000536     0.999998    0.00003463
  359      -16.4396252258      -0.0000000535     0.999998    0.00003462
  360      -16.4396252793      -0.0000000535     0.999998    0.00003462
  361      -16.4396253328      -0.0000000535     0.999998    0.00003461
  362      -16.4396253862      -0.0000000535     0.999998    0.00003460
  363      -16.4396254397      -0.0000000534     0.999998    0.00003460
  364      -16.4396254931      -0.0000000534     0.999998    0.00003460
  365      -16.4396255465      -0.0000000534     0.999998    0.00003459
  366      -16.4396255999      -0.0000000534     0.999998    0.00003459
  367      -16.4396256533      -0.0000000534     0.999998    0.00003459
  368      -16.4396257067      -0.0000000534     0.999998    0.00003459
  369      -16.4396257601      -0.0000000534     0.999998    0.00003459
  370      -16.4396258135      -0.0000000534     0.999998    0.00003459
  371      -16.4396258669      -0.0000000534     0.999998    0.00003459
  372      -16.4396259203      -0.0000000534     0.999998    0.00003459
  373      -16.4396259737      -0.0000000534     0.999998    0.00003459
  374      -16.4396260271      -0.0000000534     0.999998    0.00003460
  375      -16.4396260805      -0.0000000534     0.999998    0.00003460
  376      -16.4396261340      -0.0000000534     0.999998    0.00003461
  377      -16.4396261874      -0.0000000535     0.999998    0.00003461
  378      -16.4396262409      -0.0000000535     0.999998    0.00003462
  379      -16.4396262944      -0.0000000535     0.999998    0.00003463
  380      -16.4396263479      -0.0000000535     0.999998    0.00003464
  381      -16.4396264015      -0.0000000536     0.999998    0.00003464
  382      -16.4396264551      -0.0000000536     0.999998    0.00003465
  383      -16.4396265087      -0.0000000536     0.999998    0.00003467
  384      -16.4396265623      -0.0000000537     0.999998    0.00003468
  385      -16.4396266160      -0.0000000537     0.999998    0.00003469
  386      -16.4396266698      -0.0000000537     0.999998    0.00003470
  387      -16.4396267235      -0.0000000538     0.999998    0.00003472
  388      -16.4396267773      -0.0000000538     0.999998    0.00003473
  389      -16.4396268312      -0.0000000539     0.999998    0.00003475
  390      -16.4396268851      -0.0000000539     0.999998    0.00003476
  391      -16.4396269391      -0.0000000540     0.999998    0.00003478
  392      -16.4396269931      -0.0000000540     0.999998    0.00003480
  393      -16.4396270472      -0.0000000541     0.999998    0.00003482
  394      -16.4396271013      -0.0000000541     0.999998    0.00003484
  395      -16.4396271555      -0.0000000542     0.999998    0.00003486
  396      -16.4396272098      -0.0000000543     0.999998    0.00003488
  397      -16.4396272641      -0.0000000543     0.999998    0.00003490
  398      -16.4396273185      -0.0000000544     0.999998    0.00003492
  399      -16.4396273730      -0.0000000545     0.999998    0.00003494
  400      -16.4396274276      -0.0000000546     0.999998    0.00003497
  401      -16.4396274822      -0.0000000546     0.999998    0.00003499
  402      -16.4396275369      -0.0000000547     0.999998    0.00003502
  403      -16.4396275917      -0.0000000548     0.999998    0.00003504
  404      -16.4396276466      -0.0000000549     0.999998    0.00003507
  405      -16.4396277016      -0.0000000550     0.999998    0.00003510
  406      -16.4396277566      -0.0000000551     0.999998    0.00003513
  407      -16.4396278118      -0.0000000552     0.999998    0.00003516
  408      -16.4396278670      -0.0000000552     0.999998    0.00003519
  409      -16.4396279224      -0.0000000553     0.999998    0.00003522
  410      -16.4396279778      -0.0000000554     0.999998    0.00003525
  411      -16.4396280333      -0.0000000555     0.999998    0.00003528
  412      -16.4396280890      -0.0000000557     0.999998    0.00003531
  413      -16.4396281448      -0.0000000558     0.999998    0.00003535
  414      -16.4396282006      -0.0000000559     0.999998    0.00003538
  415      -16.4396282566      -0.0000000560     0.999998    0.00003542
  416      -16.4396283127      -0.0000000561     0.999998    0.00003545
  417      -16.4396283690      -0.0000000562     0.999998    0.00003549
  418      -16.4396284253      -0.0000000563     0.999998    0.00003553
  419      -16.4396284818      -0.0000000565     0.999998    0.00003557
  420      -16.4396285384      -0.0000000566     0.999998    0.00003561
  421      -16.4396285951      -0.0000000567     0.999998    0.00003565
  422      -16.4396286520      -0.0000000569     0.999998    0.00003569
  423      -16.4396287090      -0.0000000570     0.999998    0.00003573
  424      -16.4396287661      -0.0000000571     0.999998    0.00003577
  425      -16.4396288234      -0.0000000573     0.999998    0.00003582
  426      -16.4396288808      -0.0000000574     0.999998    0.00003586
  427      -16.4396289384      -0.0000000576     0.999998    0.00003591
  428      -16.4396289961      -0.0000000577     0.999998    0.00003595
  429      -16.4396290540      -0.0000000579     0.999998    0.00003600
  430      -16.4396291120      -0.0000000580     0.999998    0.00003605
  431      -16.4396291702      -0.0000000582     0.999998    0.00003609
  432      -16.4396292285      -0.0000000583     0.999998    0.00003614
  433      -16.4396292871      -0.0000000585     0.999998    0.00003619
  434      -16.4396293457      -0.0000000587     0.999998    0.00003624
  435      -16.4396294046      -0.0000000589     0.999998    0.00003629
  436      -16.4396294636      -0.0000000590     0.999998    0.00003635
  437      -16.4396295228      -0.0000000592     0.999998    0.00003640
  438      -16.4396295822      -0.0000000594     0.999998    0.00003645
  439      -16.4396296418      -0.0000000596     0.999998    0.00003651
  440      -16.4396297015      -0.0000000597     0.999998    0.00003656
  441      -16.4396297614      -0.0000000599     0.999998    0.00003662
  442      -16.4396298216      -0.0000000601     0.999998    0.00003668
  443      -16.4396298819      -0.0000000603     0.999998    0.00003673
  444      -16.4396299424      -0.0000000605     0.999998    0.00003679
  445      -16.4396300031      -0.0000000607     0.999998    0.00003685
  446      -16.4396300640      -0.0000000609     0.999998    0.00003691
  447      -16.4396301252      -0.0000000611     0.999998    0.00003697
  448      -16.4396301865      -0.0000000613     0.999998    0.00003703
  449      -16.4396302481      -0.0000000616     0.999998    0.00003710
  450      -16.4396303098      -0.0000000618     0.999998    0.00003716
  451      -16.4396303718      -0.0000000620     0.999998    0.00003723
  452      -16.4396304340      -0.0000000622     0.999998    0.00003729
  453      -16.4396304965      -0.0000000624     0.999998    0.00003736
  454      -16.4396305592      -0.0000000627     0.999998    0.00003742
  455      -16.4396306221      -0.0000000629     0.999998    0.00003749
  456      -16.4396306852      -0.0000000631     0.999998    0.00003756
  457      -16.4396307486      -0.0000000634     0.999998    0.00003763
  458      -16.4396308122      -0.0000000636     0.999998    0.00003770
  459      -16.4396308761      -0.0000000639     0.999998    0.00003777
  460      -16.4396309402      -0.0000000641     0.999998    0.00003784
  461      -16.4396310046      -0.0000000644     0.999998    0.00003792
  462      -16.4396310693      -0.0000000646     0.999998    0.00003799
  463      -16.4396311342      -0.0000000649     0.999998    0.00003807
  464      -16.4396311993      -0.0000000652     0.999998    0.00003814
  465      -16.4396312648      -0.0000000654     0.999998    0.00003822
  466      -16.4396313305      -0.0000000657     0.999998    0.00003830
  467      -16.4396313965      -0.0000000660     0.999998    0.00003837
  468      -16.4396314628      -0.0000000663     0.999998    0.00003845
  469      -16.4396315293      -0.0000000666     0.999998    0.00003853
  470      -16.4396315962      -0.0000000668     0.999998    0.00003861
  471      -16.4396316633      -0.0000000671     0.999998    0.00003870
  472      -16.4396317307      -0.0000000674     0.999998    0.00003878
  473      -16.4396317985      -0.0000000677     0.999998    0.00003886
  474      -16.4396318665      -0.0000000680     0.999998    0.00003895
  475      -16.4396319349      -0.0000000683     0.999998    0.00003903
  476      -16.4396320035      -0.0000000687     0.999998    0.00003912
  477      -16.4396320725      -0.0000000690     0.999998    0.00003921
  478      -16.4396321418      -0.0000000693     0.999998    0.00003929
  479      -16.4396322114      -0.0000000696     0.999998    0.00003938
  480      -16.4396322814      -0.0000000700     0.999998    0.00003947
  481      -16.4396323517      -0.0000000703     0.999998    0.00003956
  482      -16.4396324223      -0.0000000706     0.999998    0.00003966
  483      -16.4396324933      -0.0000000710     0.999998    0.00003975
  484      -16.4396325646      -0.0000000713     0.999998    0.00003984
  485      -16.4396326363      -0.0000000717     0.999998    0.00003994
  486      -16.4396327083      -0.0000000720     0.999998    0.00004003
  487      -16.4396327807      -0.0000000724     0.999998    0.00004013
  488      -16.4396328534      -0.0000000728     0.999998    0.00004023
  489      -16.4396329266      -0.0000000731     0.999998    0.00004033
  490      -16.4396330001      -0.0000000735     0.999998    0.00004043
  491      -16.4396330739      -0.0000000739     0.999998    0.00004053
  492      -16.4396331482      -0.0000000743     0.999998    0.00004063
  493      -16.4396332229      -0.0000000747     0.999998    0.00004073
  494      -16.4396332979      -0.0000000750     0.999998    0.00004083
  495      -16.4396333733      -0.0000000754     0.999998    0.00004094
  496      -16.4396334492      -0.0000000758     0.999998    0.00004104
  497      -16.4396335255      -0.0000000763     0.999998    0.00004115
  498      -16.4396336021      -0.0000000767     0.999998    0.00004126
  499      -16.4396336792      -0.0000000771     0.999998    0.00004137
  500      -16.4396337567      -0.0000000775     0.999998    0.00004149
  501      -16.4396338347      -0.0000000779     0.999998    0.00004163
  502      -16.4396339131      -0.0000000784     0.999998    0.00004176
  503      -16.4396339919      -0.0000000788     0.999998    0.00004189
  504      -16.4396340712      -0.0000000793     0.999998    0.00004203
  505      -16.4396341509      -0.0000000797     0.999998    0.00004216
  506      -16.4396342311      -0.0000000802     0.999998    0.00004230
  507      -16.4396343117      -0.0000000806     0.999998    0.00004244
  508      -16.4396343928      -0.0000000811     0.999998    0.00004258
  509      -16.4396344744      -0.0000000816     0.999998    0.00004272
  510      -16.4396345565      -0.0000000821     0.999998    0.00004287
  511      -16.4396346390      -0.0000000826     0.999998    0.00004301
  512      -16.4396347221      -0.0000000830     0.999998    0.00004316
  513      -16.4396348056      -0.0000000835     0.999998    0.00004330
  514      -16.4396348896      -0.0000000840     0.999998    0.00004345
  515      -16.4396349742      -0.0000000846     0.999998    0.00004360
  516      -16.4396350593      -0.0000000851     0.999998    0.00004375
  517      -16.4396351449      -0.0000000856     0.999998    0.00004390
  518      -16.4396352310      -0.0000000861     0.999998    0.00004406
  519      -16.4396353176      -0.0000000867     0.999998    0.00004421
  520      -16.4396354048      -0.0000000872     0.999998    0.00004437
  521      -16.4396354926      -0.0000000877     0.999998    0.00004452
  522      -16.4396355809      -0.0000000883     0.999998    0.00004468
  523      -16.4396356698      -0.0000000889     0.999998    0.00004484
  524      -16.4396357592      -0.0000000894     0.999998    0.00004501
  525      -16.4396358492      -0.0000000900     0.999998    0.00004517
  526      -16.4396359398      -0.0000000906     0.999998    0.00004533
  527      -16.4396360310      -0.0000000912     0.999998    0.00004550
  528      -16.4396361228      -0.0000000918     0.999998    0.00004567
  529      -16.4396362151      -0.0000000924     0.999998    0.00004583
  530      -16.4396363081      -0.0000000930     0.999998    0.00004601
  531      -16.4396364017      -0.0000000936     0.999998    0.00004618
  532      -16.4396364960      -0.0000000942     0.999998    0.00004635
  533      -16.4396365908      -0.0000000949     0.999998    0.00004652
  534      -16.4396366863      -0.0000000955     0.999998    0.00004670
  535      -16.4396367825      -0.0000000962     0.999998    0.00004688
  536      -16.4396368793      -0.0000000968     0.999998    0.00004706
  537      -16.4396369768      -0.0000000975     0.999998    0.00004724
  538      -16.4396370749      -0.0000000981     0.999998    0.00004742
  539      -16.4396371737      -0.0000000988     0.999998    0.00004760
  540      -16.4396372733      -0.0000000995     0.999998    0.00004779
  541      -16.4396373735      -0.0000001002     0.999998    0.00004798
  542      -16.4396374744      -0.0000001009     0.999998    0.00004816
  543      -16.4396375760      -0.0000001016     0.999998    0.00004835
  544      -16.4396376783      -0.0000001023     0.999998    0.00004855
  545      -16.4396377814      -0.0000001031     0.999998    0.00004874
  546      -16.4396378852      -0.0000001038     0.999998    0.00004893
  547      -16.4396379898      -0.0000001046     0.999998    0.00004913
  548      -16.4396380951      -0.0000001053     0.999998    0.00004933
  549      -16.4396382012      -0.0000001061     0.999998    0.00004953
  550      -16.4396383080      -0.0000001068     0.999998    0.00004973
  551      -16.4396384156      -0.0000001076     0.999998    0.00004993
  552      -16.4396385241      -0.0000001084     0.999998    0.00005014
  553      -16.4396386333      -0.0000001092     0.999998    0.00005034
  554      -16.4396387433      -0.0000001100     0.999998    0.00005055
  555      -16.4396388542      -0.0000001109     0.999998    0.00005076
  556      -16.4396389659      -0.0000001117     0.999998    0.00005097
  557      -16.4396390784      -0.0000001125     0.999998    0.00005118
  558      -16.4396391918      -0.0000001134     0.999998    0.00005140
  559      -16.4396393060      -0.0000001142     0.999998    0.00005162
  560      -16.4396394211      -0.0000001151     0.999998    0.00005183
  561      -16.4396395371      -0.0000001160     0.999998    0.00005205
  562      -16.4396396539      -0.0000001169     0.999998    0.00005228
  563      -16.4396397717      -0.0000001178     0.999998    0.00005250
  564      -16.4396398904      -0.0000001187     0.999998    0.00005273
  565      -16.4396400100      -0.0000001196     0.999998    0.00005295
  566      -16.4396401305      -0.0000001205     0.999998    0.00005318
  567      -16.4396402520      -0.0000001215     0.999998    0.00005341
  568      -16.4396403744      -0.0000001224     0.999998    0.00005364
  569      -16.4396404978      -0.0000001234     0.999998    0.00005388
  570      -16.4396406222      -0.0000001244     0.999998    0.00005411
  571      -16.4396407476      -0.0000001254     0.999998    0.00005435
  572      -16.4396408739      -0.0000001264     0.999998    0.00005459
  573      -16.4396410013      -0.0000001274     0.999998    0.00005483
  574      -16.4396411297      -0.0000001284     0.999998    0.00005508
  575      -16.4396412591      -0.0000001294     0.999998    0.00005532
  576      -16.4396413896      -0.0000001305     0.999998    0.00005557
  577      -16.4396415211      -0.0000001315     0.999998    0.00005582
  578      -16.4396416537      -0.0000001326     0.999999    0.00005607
  579      -16.4396417874      -0.0000001337     0.999999    0.00005633
  580      -16.4396419221      -0.0000001348     0.999999    0.00005658
  581      -16.4396420580      -0.0000001359     0.999999    0.00005684
  582      -16.4396421950      -0.0000001370     0.999999    0.00005710
  583      -16.4396423332      -0.0000001381     0.999999    0.00005736
  584      -16.4396424725      -0.0000001393     0.999999    0.00005762
  585      -16.4396426129      -0.0000001404     0.999999    0.00005789
  586      -16.4396427545      -0.0000001416     0.999999    0.00005815
  587      -16.4396428973      -0.0000001428     0.999999    0.00005842
  588      -16.4396430413      -0.0000001440     0.999999    0.00005869
  589      -16.4396431865      -0.0000001452     0.999999    0.00005897
  590      -16.4396433330      -0.0000001464     0.999999    0.00005924
  591      -16.4396434807      -0.0000001477     0.999999    0.00005952
  592      -16.4396436296      -0.0000001489     0.999999    0.00005980
  593      -16.4396437798      -0.0000001502     0.999999    0.00006008
  594      -16.4396439313      -0.0000001515     0.999999    0.00006036
  595      -16.4396440841      -0.0000001528     0.999999    0.00006065
  596      -16.4396442382      -0.0000001541     0.999999    0.00006094
  597      -16.4396443937      -0.0000001554     0.999999    0.00006122
  598      -16.4396445504      -0.0000001568     0.999999    0.00006152
  599      -16.4396447086      -0.0000001581     0.999999    0.00006181
  600      -16.4396448681      -0.0000001595     0.999999    0.00006211
  601      -16.4396450290      -0.0000001609     0.999999    0.00006240
  602      -16.4396451913      -0.0000001623     0.999999    0.00006270
  603      -16.4396453550      -0.0000001637     0.999999    0.00006301
  604      -16.4396455202      -0.0000001652     0.999999    0.00006331
  605      -16.4396456868      -0.0000001666     0.999999    0.00006362
  606      -16.4396458548      -0.0000001681     0.999999    0.00006393
  607      -16.4396460244      -0.0000001696     0.999999    0.00006424
  608      -16.4396461955      -0.0000001711     0.999999    0.00006455
  609      -16.4396463680      -0.0000001726     0.999999    0.00006486
  610      -16.4396465421      -0.0000001741     0.999999    0.00006518
  611      -16.4396467178      -0.0000001757     0.999999    0.00006550
  612      -16.4396468950      -0.0000001772     0.999999    0.00006582
  613      -16.4396470738      -0.0000001788     0.999999    0.00006615
  614      -16.4396472542      -0.0000001804     0.999999    0.00006647
  615      -16.4396474363      -0.0000001820     0.999999    0.00006680
  616      -16.4396476199      -0.0000001837     0.999999    0.00006713
  617      -16.4396478052      -0.0000001853     0.999999    0.00006746
  618      -16.4396479922      -0.0000001870     0.999999    0.00006780
  619      -16.4396481809      -0.0000001887     0.999999    0.00006813
  620      -16.4396483713      -0.0000001904     0.999999    0.00006847
  621      -16.4396485634      -0.0000001921     0.999999    0.00006882
  622      -16.4396487572      -0.0000001938     0.999999    0.00006916
  623      -16.4396489528      -0.0000001956     0.999999    0.00006950
  624      -16.4396491502      -0.0000001974     0.999999    0.00006985
  625      -16.4396493494      -0.0000001992     0.999999    0.00007020
  626      -16.4396495504      -0.0000002010     0.999999    0.00007055
  627      -16.4396497533      -0.0000002028     0.999999    0.00007091
  628      -16.4396499580      -0.0000002047     0.999999    0.00007127
  629      -16.4396501645      -0.0000002066     0.999999    0.00007162
  630      -16.4396503730      -0.0000002085     0.999999    0.00007199
  631      -16.4396505834      -0.0000002104     0.999999    0.00007235
  632      -16.4396507957      -0.0000002123     0.999999    0.00007271
  633      -16.4396510099      -0.0000002143     0.999999    0.00007308
  634      -16.4396512262      -0.0000002162     0.999999    0.00007345
  635      -16.4396514444      -0.0000002182     0.999999    0.00007382
  636      -16.4396516646      -0.0000002202     0.999999    0.00007420
  637      -16.4396518869      -0.0000002223     0.999999    0.00007457
  638      -16.4396521112      -0.0000002243     0.999999    0.00007495
  639      -16.4396523376      -0.0000002264     0.999999    0.00007533
  640      -16.4396525660      -0.0000002285     0.999999    0.00007571
  641      -16.4396527966      -0.0000002306     0.999999    0.00007610
  642      -16.4396530293      -0.0000002327     0.999999    0.00007648
  643      -16.4396532642      -0.0000002349     0.999999    0.00007687
  644      -16.4396535012      -0.0000002370     0.999999    0.00007726
  645      -16.4396537404      -0.0000002392     0.999999    0.00007766
  646      -16.4396539819      -0.0000002414     0.999999    0.00007805
  647      -16.4396542255      -0.0000002437     0.999999    0.00007845
  648      -16.4396544714      -0.0000002459     0.999999    0.00007885
  649      -16.4396547196      -0.0000002482     0.999999    0.00007925
  650      -16.4396549701      -0.0000002505     0.999999    0.00007965
  651      -16.4396552229      -0.0000002528     0.999999    0.00008006
  652      -16.4396554781      -0.0000002551     0.999999    0.00008046
  653      -16.4396557356      -0.0000002575     0.999999    0.00008087
  654      -16.4396559954      -0.0000002599     0.999999    0.00008128
  655      -16.4396562577      -0.0000002623     0.999999    0.00008169
  656      -16.4396565224      -0.0000002647     0.999999    0.00008211
  657      -16.4396567895      -0.0000002671     0.999999    0.00008252
  658      -16.4396570590      -0.0000002696     0.999999    0.00008294
  659      -16.4396573311      -0.0000002721     0.999999    0.00008336
  660      -16.4396576057      -0.0000002746     0.999999    0.00008378
  661      -16.4396578827      -0.0000002771     0.999999    0.00008420
  662      -16.4396581623      -0.0000002796     0.999999    0.00008463
  663      -16.4396584445      -0.0000002822     0.999999    0.00008506
  664      -16.4396587292      -0.0000002847     0.999999    0.00008548
  665      -16.4396590166      -0.0000002873     0.999999    0.00008591
  666      -16.4396593066      -0.0000002900     0.999999    0.00008634
  667      -16.4396595992      -0.0000002926     0.999999    0.00008678
  668      -16.4396598944      -0.0000002953     0.999999    0.00008721
  669      -16.4396601924      -0.0000002979     0.999999    0.00008765
  670      -16.4396604930      -0.0000003006     0.999999    0.00008808
  671      -16.4396607963      -0.0000003033     0.999999    0.00008852
  672      -16.4396611024      -0.0000003061     0.999999    0.00008896
  673      -16.4396614112      -0.0000003088     0.999999    0.00008940
  674      -16.4396617229      -0.0000003116     0.999999    0.00008984
  675      -16.4396620372      -0.0000003144     0.999999    0.00009029
  676      -16.4396623544      -0.0000003172     0.999999    0.00009073
  677      -16.4396626745      -0.0000003200     0.999999    0.00009117
  678      -16.4396629973      -0.0000003229     0.999999    0.00009162
  679      -16.4396633230      -0.0000003257     0.999999    0.00009207
  680      -16.4396636516      -0.0000003286     0.999999    0.00009252
  681      -16.4396639831      -0.0000003315     0.999999    0.00009297
  682      -16.4396643175      -0.0000003344     0.999999    0.00009341
  683      -16.4396646548      -0.0000003373     0.999999    0.00009387
  684      -16.4396649951      -0.0000003403     0.999999    0.00009432
  685      -16.4396653383      -0.0000003432     0.999999    0.00009477
  686      -16.4396656845      -0.0000003462     0.999999    0.00009522
  687      -16.4396660336      -0.0000003492     0.999999    0.00009567
  688      -16.4396663858      -0.0000003522     0.999999    0.00009613
  689      -16.4396667410      -0.0000003552     0.999999    0.00009658
  690      -16.4396670991      -0.0000003582     0.999999    0.00009703
  691      -16.4396674604      -0.0000003612     0.999999    0.00009749
  692      -16.4396678246      -0.0000003643     0.999999    0.00009794
  693      -16.4396681919      -0.0000003673     0.999999    0.00009840
  694      -16.4396685623      -0.0000003704     0.999999    0.00009885
  695      -16.4396689358      -0.0000003735     0.999999    0.00009930
  696      -16.4396693123      -0.0000003765     0.999999    0.00009976
  697      -16.4396696919      -0.0000003796     0.999999    0.00010021
  698      -16.4396700747      -0.0000003827     0.999999    0.00010067
  699      -16.4396704605      -0.0000003858     0.999999    0.00010112
  700      -16.4396708495      -0.0000003890     0.999999    0.00010157
  701      -16.4396712415      -0.0000003921     0.999999    0.00010202
  702      -16.4396716367      -0.0000003952     0.999999    0.00010247
  703      -16.4396720351      -0.0000003983     0.999999    0.00010292
  704      -16.4396724365      -0.0000004015     0.999999    0.00010337
  705      -16.4396728412      -0.0000004046     0.999999    0.00010382
  706      -16.4396732489      -0.0000004077     0.999999    0.00010427
  707      -16.4396736598      -0.0000004109     0.999999    0.00010471
  708      -16.4396740738      -0.0000004140     0.999999    0.00010516
  709      -16.4396744910      -0.0000004172     0.999999    0.00010560
  710      -16.4396749113      -0.0000004203     0.999999    0.00010604
  711      -16.4396753347      -0.0000004234     0.999999    0.00010648
  712      -16.4396757613      -0.0000004266     0.999999    0.00010692
  713      -16.4396761910      -0.0000004297     0.999999    0.00010736
  714      -16.4396766238      -0.0000004328     0.999999    0.00010779
  715      -16.4396770597      -0.0000004359     0.999999    0.00010822
  716      -16.4396774988      -0.0000004390     0.999999    0.00010865
  717      -16.4396779409      -0.0000004421     0.999999    0.00010908
  718      -16.4396783861      -0.0000004452     0.999999    0.00010951
  719      -16.4396788344      -0.0000004483     0.999999    0.00010993
  720      -16.4396792858      -0.0000004514     0.999999    0.00011035
  721      -16.4396797402      -0.0000004544     0.999999    0.00011077
  722      -16.4396801977      -0.0000004575     0.999999    0.00011118
  723      -16.4396806582      -0.0000004605     0.999999    0.00011159
  724      -16.4396811216      -0.0000004635     0.999999    0.00011200
  725      -16.4396815881      -0.0000004665     0.999999    0.00011241
  726      -16.4396820576      -0.0000004694     0.999999    0.00011281
  727      -16.4396825299      -0.0000004724     0.999999    0.00011320
  728      -16.4396830053      -0.0000004753     0.999999    0.00011360
  729      -16.4396834835      -0.0000004782     0.999999    0.00011399
  730      -16.4396839646      -0.0000004811     0.999999    0.00011437
  731      -16.4396844485      -0.0000004839     0.999999    0.00011476
  732      -16.4396849353      -0.0000004868     0.999999    0.00011513
  733      -16.4396854248      -0.0000004896     0.999999    0.00011551
  734      -16.4396859171      -0.0000004923     0.999999    0.00011587
  735      -16.4396864122      -0.0000004951     0.999999    0.00011624
  736      -16.4396869099      -0.0000004977     0.999999    0.00011660
  737      -16.4396874104      -0.0000005004     0.999999    0.00011695
  738      -16.4396879134      -0.0000005030     0.999999    0.00011730
  739      -16.4396884190      -0.0000005056     0.999999    0.00011764
  740      -16.4396889272      -0.0000005082     0.999999    0.00011798
  741      -16.4396894379      -0.0000005107     0.999999    0.00011831
  742      -16.4396899511      -0.0000005132     0.999999    0.00011864
  743      -16.4396904666      -0.0000005156     0.999999    0.00011896
  744      -16.4396909846      -0.0000005180     0.999999    0.00011928
  745      -16.4396915049      -0.0000005203     0.999999    0.00011958
  746      -16.4396920275      -0.0000005226     0.999999    0.00011989
  747      -16.4396925523      -0.0000005248     0.999999    0.00012018
  748      -16.4396930793      -0.0000005270     0.999999    0.00012047
  749      -16.4396936084      -0.0000005291     0.999999    0.00012075
  750      -16.4396941396      -0.0000005312     0.999999    0.00012103
  751      -16.4396946729      -0.0000005332     0.999999    0.00012130
  752      -16.4396952080      -0.0000005352     0.999999    0.00012156
  753      -16.4396957451      -0.0000005371     0.999999    0.00012181
  754      -16.4396962841      -0.0000005389     0.999999    0.00012206
  755      -16.4396968248      -0.0000005407     0.999999    0.00012230
  756      -16.4396973672      -0.0000005424     0.999999    0.00012253
  757      -16.4396979113      -0.0000005441     0.999999    0.00012275
  758      -16.4396984570      -0.0000005457     0.999999    0.00012297
  759      -16.4396990042      -0.0000005472     0.999999    0.00012317
  760      -16.4396995529      -0.0000005487     0.999999    0.00012337
  761      -16.4397001029      -0.0000005500     0.999999    0.00012356
  762      -16.4397006543      -0.0000005514     0.999999    0.00012374
  763      -16.4397012069      -0.0000005526     0.999999    0.00012391
  764      -16.4397017606      -0.0000005538     0.999999    0.00012408
  765      -16.4397023155      -0.0000005548     0.999999    0.00012423
  766      -16.4397028713      -0.0000005559     0.999999    0.00012438
  767      -16.4397034281      -0.0000005568     0.999999    0.00012451
  768      -16.4397039858      -0.0000005576     0.999999    0.00012464
  769      -16.4397045442      -0.0000005584     0.999999    0.00012475
  770      -16.4397051033      -0.0000005591     0.999999    0.00012486
  771      -16.4397056630      -0.0000005597     0.999999    0.00012496
  772      -16.4397062233      -0.0000005603     0.999999    0.00012505
  773      -16.4397067840      -0.0000005607     0.999999    0.00012513
  774      -16.4397073450      -0.0000005611     0.999999    0.00012519
  775      -16.4397079064      -0.0000005613     0.999999    0.00012525
  776      -16.4397084679      -0.0000005615     0.999999    0.00012530
  777      -16.4397090295      -0.0000005616     0.999999    0.00012533
  778      -16.4397095911      -0.0000005616     0.999999    0.00012536
  779      -16.4397101526      -0.0000005615     0.999999    0.00012538
  780      -16.4397107140      -0.0000005614     0.999999    0.00012538
  781      -16.4397112751      -0.0000005611     0.999999    0.00012538
  782      -16.4397118358      -0.0000005607     0.999999    0.00012536
  783      -16.4397123961      -0.0000005603     0.999999    0.00012533
  784      -16.4397129559      -0.0000005598     0.999999    0.00012530
  785      -16.4397135150      -0.0000005591     0.999999    0.00012525
  786      -16.4397140734      -0.0000005584     0.999999    0.00012519
  787      -16.4397146310      -0.0000005576     0.999999    0.00012512
  788      -16.4397151877      -0.0000005567     0.999999    0.00012503
  789      -16.4397157434      -0.0000005557     0.999999    0.00012494
  790      -16.4397162980      -0.0000005546     0.999999    0.00012484
  791      -16.4397168514      -0.0000005534     0.999999    0.00012472
  792      -16.4397174036      -0.0000005521     0.999999    0.00012459
  793      -16.4397179543      -0.0000005508     0.999999    0.00012446
  794      -16.4397185036      -0.0000005493     0.999999    0.00012431
  795      -16.4397190514      -0.0000005477     0.999999    0.00012415
  796      -16.4397195974      -0.0000005461     0.999999    0.00012397
  797      -16.4397201418      -0.0000005443     0.999999    0.00012379
  798      -16.4397206843      -0.0000005425     0.999999    0.00012360
  799      -16.4397212249      -0.0000005406     0.999999    0.00012339
  800      -16.4397217634      -0.0000005386     0.999999    0.00012317
  801      -16.4397222999      -0.0000005365     0.999999    0.00012294
  802      -16.4397228342      -0.0000005343     0.999999    0.00012270
  803      -16.4397233661      -0.0000005320     0.999999    0.00012245
  804      -16.4397238958      -0.0000005296     0.999999    0.00012219
  805      -16.4397244229      -0.0000005272     0.999999    0.00012191
  806      -16.4397249475      -0.0000005246     0.999999    0.00012163
  807      -16.4397254695      -0.0000005220     0.999999    0.00012133
  808      -16.4397259888      -0.0000005193     0.999999    0.00012103
  809      -16.4397265053      -0.0000005165     0.999999    0.00012071
  810      -16.4397270189      -0.0000005136     0.999999    0.00012038
  811      -16.4397275296      -0.0000005107     0.999999    0.00012004
  812      -16.4397280373      -0.0000005077     0.999999    0.00011969
  813      -16.4397285418      -0.0000005045     0.999999    0.00011933
  814      -16.4397290432      -0.0000005014     0.999999    0.00011896
  815      -16.4397295413      -0.0000004981     0.999999    0.00011857
  816      -16.4397300361      -0.0000004948     0.999999    0.00011818
  817      -16.4397305275      -0.0000004914     0.999999    0.00011778
  818      -16.4397310154      -0.0000004879     0.999999    0.00011736
  819      -16.4397314998      -0.0000004844     0.999999    0.00011694
  820      -16.4397319806      -0.0000004808     0.999999    0.00011651
  821      -16.4397324577      -0.0000004771     0.999999    0.00011606
  822      -16.4397329311      -0.0000004734     0.999999    0.00011561
  823      -16.4397334007      -0.0000004696     0.999999    0.00011515
  824      -16.4397338665      -0.0000004658     0.999999    0.00011467
  825      -16.4397343284      -0.0000004619     0.999999    0.00011419
  826      -16.4397347863      -0.0000004579     0.999999    0.00011370
  827      -16.4397352402      -0.0000004539     0.999999    0.00011320
  828      -16.4397356901      -0.0000004499     0.999999    0.00011269
  829      -16.4397361358      -0.0000004458     0.999999    0.00011218
  830      -16.4397365774      -0.0000004416     0.999999    0.00011165
  831      -16.4397370149      -0.0000004374     0.999999    0.00011111
  832      -16.4397374480      -0.0000004332     0.999999    0.00011057
  833      -16.4397378769      -0.0000004289     0.999999    0.00011002
  834      -16.4397383015      -0.0000004246     0.999999    0.00010946
  835      -16.4397387217      -0.0000004202     0.999999    0.00010889
  836      -16.4397391376      -0.0000004158     0.999999    0.00010832
  837      -16.4397395490      -0.0000004114     0.999999    0.00010774
  838      -16.4397399559      -0.0000004070     0.999999    0.00010715
  839      -16.4397403584      -0.0000004025     0.999999    0.00010655
  840      -16.4397407564      -0.0000003980     0.999999    0.00010595
  841      -16.4397411499      -0.0000003935     0.999999    0.00010534
  842      -16.4397415389      -0.0000003889     0.999999    0.00010472
  843      -16.4397419232      -0.0000003844     0.999999    0.00010410
  844      -16.4397423030      -0.0000003798     0.999999    0.00010347
  845      -16.4397426782      -0.0000003752     0.999999    0.00010283
  846      -16.4397430488      -0.0000003706     0.999999    0.00010219
  847      -16.4397434148      -0.0000003660     0.999999    0.00010154
  848      -16.4397437761      -0.0000003613     0.999999    0.00010089
  849      -16.4397441328      -0.0000003567     0.999999    0.00010023
  850      -16.4397444849      -0.0000003521     0.999999    0.00009957
  851      -16.4397448323      -0.0000003474     0.999999    0.00009890
  852      -16.4397451751      -0.0000003428     0.999999    0.00009823
  853      -16.4397455132      -0.0000003381     0.999999    0.00009755
  854      -16.4397458467      -0.0000003335     0.999999    0.00009687
  855      -16.4397461756      -0.0000003289     0.999999    0.00009619
  856      -16.4397464999      -0.0000003243     0.999999    0.00009550
  857      -16.4397468195      -0.0000003196     0.999999    0.00009481
  858      -16.4397471345      -0.0000003150     0.999999    0.00009411
  859      -16.4397474450      -0.0000003104     0.999999    0.00009341
  860      -16.4397477508      -0.0000003059     0.999999    0.00009271
  861      -16.4397480521      -0.0000003013     0.999999    0.00009200
  862      -16.4397483488      -0.0000002967     0.999999    0.00009130
  863      -16.4397486410      -0.0000002922     0.999999    0.00009059
  864      -16.4397489287      -0.0000002877     0.999999    0.00008987
  865      -16.4397492119      -0.0000002832     0.999999    0.00008916
  866      -16.4397494907      -0.0000002787     0.999999    0.00008844
  867      -16.4397497650      -0.0000002743     0.999999    0.00008772
  868      -16.4397500349      -0.0000002699     0.999999    0.00008700
  869      -16.4397503003      -0.0000002655     0.999999    0.00008628
  870      -16.4397505615      -0.0000002611     0.999999    0.00008556
  871      -16.4397508183      -0.0000002568     0.999999    0.00008484
  872      -16.4397510708      -0.0000002525     0.999999    0.00008411
  873      -16.4397513190      -0.0000002482     0.999999    0.00008339
  874      -16.4397515630      -0.0000002440     0.999999    0.00008266
  875      -16.4397518028      -0.0000002398     0.999999    0.00008194
  876      -16.4397520385      -0.0000002356     0.999999    0.00008121
  877      -16.4397522700      -0.0000002315     0.999999    0.00008048
  878      -16.4397524974      -0.0000002274     0.999999    0.00007976
  879      -16.4397527207      -0.0000002234     0.999999    0.00007903
  880      -16.4397529401      -0.0000002193     0.999999    0.00007831
  881      -16.4397531554      -0.0000002154     0.999999    0.00007758
  882      -16.4397533668      -0.0000002114     0.999999    0.00007686
  883      -16.4397535743      -0.0000002075     0.999999    0.00007614
  884      -16.4397537780      -0.0000002037     0.999999    0.00007542
  885      -16.4397539779      -0.0000001999     0.999999    0.00007470
  886      -16.4397541739      -0.0000001961     0.999999    0.00007398
  887      -16.4397543663      -0.0000001924     0.999999    0.00007326
  888      -16.4397545550      -0.0000001887     0.999999    0.00007254
  889      -16.4397547400      -0.0000001850     0.999999    0.00007183
  890      -16.4397549214      -0.0000001814     0.999999    0.00007112
  891      -16.4397550993      -0.0000001779     0.999999    0.00007041
  892      -16.4397552737      -0.0000001744     0.999999    0.00006970
  893      -16.4397554446      -0.0000001709     0.999999    0.00006899
  894      -16.4397556121      -0.0000001675     0.999999    0.00006829
  895      -16.4397557762      -0.0000001641     0.999999    0.00006759
  896      -16.4397559370      -0.0000001608     0.999999    0.00006689
  897      -16.4397560945      -0.0000001575     0.999999    0.00006620
  898      -16.4397562488      -0.0000001543     0.999999    0.00006551
  899      -16.4397563999      -0.0000001511     0.999999    0.00006482
  900      -16.4397565479      -0.0000001480     0.999999    0.00006413
  901      -16.4397566928      -0.0000001449     0.999999    0.00006345
  902      -16.4397568346      -0.0000001418     0.999999    0.00006277
  903      -16.4397569734      -0.0000001388     0.999999    0.00006209
  904      -16.4397571093      -0.0000001359     0.999999    0.00006142
  905      -16.4397572423      -0.0000001330     0.999999    0.00006075
  906      -16.4397573724      -0.0000001301     0.999999    0.00006008
  907      -16.4397574997      -0.0000001273     0.999999    0.00005942
  908      -16.4397576242      -0.0000001245     0.999999    0.00005876
  909      -16.4397577460      -0.0000001218     0.999999    0.00005811
  910      -16.4397578651      -0.0000001191     0.999999    0.00005746
  911      -16.4397579816      -0.0000001165     0.999999    0.00005681
  912      -16.4397580956      -0.0000001139     0.999999    0.00005617
  913      -16.4397582069      -0.0000001114     0.999999    0.00005553
  914      -16.4397583158      -0.0000001089     0.999999    0.00005490
  915      -16.4397584222      -0.0000001064     0.999999    0.00005427
  916      -16.4397585262      -0.0000001040     0.999999    0.00005364
  917      -16.4397586278      -0.0000001016     0.999999    0.00005302
  918      -16.4397587271      -0.0000000993     0.999999    0.00005240
  919      -16.4397588242      -0.0000000970     0.999999    0.00005179
  920      -16.4397589190      -0.0000000948     0.999999    0.00005118
  921      -16.4397590116      -0.0000000926     0.999999    0.00005058
  922      -16.4397591020      -0.0000000904     0.999999    0.00004998
  923      -16.4397591903      -0.0000000883     0.999999    0.00004938
  924      -16.4397592766      -0.0000000862     0.999999    0.00004879
  925      -16.4397593608      -0.0000000842     0.999999    0.00004821
  926      -16.4397594430      -0.0000000822     0.999999    0.00004763
  927      -16.4397595233      -0.0000000803     0.999999    0.00004705
  928      -16.4397596016      -0.0000000784     0.999999    0.00004648
  929      -16.4397596781      -0.0000000765     0.999999    0.00004591
  930      -16.4397597527      -0.0000000746     0.999999    0.00004535
  931      -16.4397598256      -0.0000000728     0.999999    0.00004479
  932      -16.4397598966      -0.0000000711     0.999999    0.00004424
  933      -16.4397599660      -0.0000000693     0.999999    0.00004370
  934      -16.4397600336      -0.0000000676     0.999999    0.00004315
  935      -16.4397600996      -0.0000000660     0.999999    0.00004262
  936      -16.4397601640      -0.0000000644     0.999999    0.00004208
  937      -16.4397602267      -0.0000000628     0.999999    0.00004156
  938      -16.4397602880      -0.0000000612     0.999999    0.00004103
  939      -16.4397603477      -0.0000000597     0.999999    0.00004051
  940      -16.4397604059      -0.0000000582     0.999999    0.00004000
  941      -16.4397604626      -0.0000000568     0.999999    0.00003949
  942      -16.4397605180      -0.0000000553     0.999999    0.00003899
  943      -16.4397605719      -0.0000000539     0.999999    0.00003849
  944      -16.4397606245      -0.0000000526     0.999999    0.00003800
  945      -16.4397606757      -0.0000000512     0.999999    0.00003751
  946      -16.4397607257      -0.0000000499     0.999999    0.00003702
  947      -16.4397607743      -0.0000000487     0.999999    0.00003655
  948      -16.4397608217      -0.0000000474     0.999999    0.00003607
  949      -16.4397608680      -0.0000000462     0.999999    0.00003560
  950      -16.4397609130      -0.0000000450     0.999999    0.00003514
  951      -16.4397609568      -0.0000000439     0.999999    0.00003468
  952      -16.4397609996      -0.0000000427     0.999999    0.00003422
  953      -16.4397610412      -0.0000000416     0.999999    0.00003377
  954      -16.4397610817      -0.0000000405     0.999999    0.00003333
  955      -16.4397611212      -0.0000000395     0.999999    0.00003289
  956      -16.4397611597      -0.0000000385     0.999999    0.00003245
  957      -16.4397611971      -0.0000000374     0.999999    0.00003202
  958      -16.4397612336      -0.0000000365     0.999999    0.00003159
  959      -16.4397612691      -0.0000000355     0.999999    0.00003117
  960      -16.4397613036      -0.0000000346     0.999999    0.00003075
  961      -16.4397613373      -0.0000000337     0.999999    0.00003034
  962      -16.4397613700      -0.0000000328     0.999999    0.00002993
  963      -16.4397614019      -0.0000000319     0.999999    0.00002953
  964      -16.4397614330      -0.0000000310     0.999999    0.00002913
  965      -16.4397614632      -0.0000000302     0.999999    0.00002874
  966      -16.4397614926      -0.0000000294     0.999999    0.00002835
  967      -16.4397615212      -0.0000000286     0.999999    0.00002796
  968      -16.4397615490      -0.0000000278     0.999999    0.00002758
  969      -16.4397615761      -0.0000000271     0.999999    0.00002720
  970      -16.4397616025      -0.0000000264     0.999999    0.00002683
  971      -16.4397616282      -0.0000000257     0.999999    0.00002646
  972      -16.4397616531      -0.0000000250     0.999999    0.00002610
  973      -16.4397616774      -0.0000000243     0.999999    0.00002574
  974      -16.4397617010      -0.0000000236     0.999999    0.00002539
  975      -16.4397617240      -0.0000000230     0.999999    0.00002504
  976      -16.4397617463      -0.0000000223     0.999999    0.00002469
  977      -16.4397617681      -0.0000000217     0.999999    0.00002435
  978      -16.4397617892      -0.0000000211     0.999999    0.00002401
  979      -16.4397618098      -0.0000000206     0.999999    0.00002368
  980      -16.4397618298      -0.0000000200     0.999999    0.00002335
  981      -16.4397618492      -0.0000000194     0.999999    0.00002302
  982      -16.4397618681      -0.0000000189     0.999999    0.00002270
  983      -16.4397618865      -0.0000000184     0.999999    0.00002238
  984      -16.4397619044      -0.0000000179     0.999999    0.00002207
  985      -16.4397619218      -0.0000000174     0.999999    0.00002176
  986      -16.4397619387      -0.0000000169     0.999999    0.00002145
  987      -16.4397619551      -0.0000000164     0.999999    0.00002115
  988      -16.4397619710      -0.0000000160     0.999999    0.00002085
  989      -16.4397619866      -0.0000000155     0.999999    0.00002055
  990      -16.4397620017      -0.0000000151     0.999999    0.00002026
  991      -16.4397620163      -0.0000000147     0.999999    0.00001998
  992      -16.4397620306      -0.0000000143     0.999999    0.00001969
  993      -16.4397620444      -0.0000000139     0.999999    0.00001941
  994      -16.4397620579      -0.0000000135     0.999999    0.00001914
  995      -16.4397620710      -0.0000000131     0.999999    0.00001886
  996      -16.4397620837      -0.0000000127     0.999999    0.00001859
  997      -16.4397620961      -0.0000000124     0.999999    0.00001833
  998      -16.4397621081      -0.0000000120     0.999999    0.00001807
  999      -16.4397621197      -0.0000000117     0.999999    0.00001781
 1000      -16.4397621311      -0.0000000113     0.999999    0.00001755

Total Energy:                      -16.4397621311 H         -447.3487 eV
Extrapolated to 0:                 -16.3933680498 H         -446.0862 eV

----------------------------------------------------------------------------------
 Solving CP-REKS equation for  1 state vector...
----------------------------------------------------------------------------------
  CG solver: Constructing Y initial guess
  CG solver: Iteration    1    eps =    0.026459946076
  CG solver: Iteration    2    eps =    0.006754743104
  CG solver: Iteration    3    eps =    0.001196029713
  CG solver: Iteration    4    eps =    0.000427391777
  CG solver: Iteration    5    eps =    0.000049776679
  CG solver: Iteration    6    eps =    0.000006065246
  CG solver: Iteration    7    eps =    0.000006679582
  CG solver: Iteration    8    eps =    0.000007532185
  CG solver: Iteration    9    eps =    0.000005285995
  CG solver: Iteration   10    eps =    0.000012025150
  CG solver: Iteration   11    eps =    0.000001998276
  CG solver: Iteration   12    eps =    0.000000400187
  CG solver: Iteration   13    eps =    0.000000072731
  CG solver: Iteration   14    eps =    0.000000007028
  Convergence reached in CG solver after   14 iterations
  CG solver: Calculating converged R, Z, Q2 matrix
----------------------------------------------------------------------------------

----------------------------------------------------------------------------------
 Solving CP-REKS equation for SI between  1 and  2 state vectors...
----------------------------------------------------------------------------------
  CG solver: Constructing Y initial guess
  CG solver: Iteration    1    eps =    0.015166162175
  CG solver: Iteration    2    eps =    0.000801238572
  CG solver: Iteration    3    eps =    0.000279603059
  CG solver: Iteration    4    eps =    0.002018080960
  CG solver: Iteration    5    eps =    0.001973261834
  CG solver: Iteration    6    eps =    0.000391568223
  CG solver: Iteration    7    eps =    0.000369511926
  CG solver: Iteration    8    eps =    0.000056731896
  CG solver: Iteration    9    eps =    0.000003066202
  CG solver: Iteration   10    eps =    0.000001036603
  CG solver: Iteration   11    eps =    0.000000276378
  CG solver: Iteration   12    eps =    0.000000012943
  CG solver: Iteration   13    eps =    0.000000001293
  Convergence reached in CG solver after   13 iterations
  CG solver: Calculating converged R, Z, Q2 matrix
----------------------------------------------------------------------------------

--------------------------------------------------
 Gradient Information
--------------------------------------------------
           1 st state (SSR)
     0.00000000     0.00000000     0.00000000
     0.00000000     0.00000000     0.00000000
     0.00000000     0.00000000     0.00000000
     0.00000000     0.00000000     0.00000000
     0.00000000     0.00000000     0.00000000
     0.00000000     0.00000000     0.00000000
     0.00000000     0.00000000     0.00000000
     0.00000000     0.00000000     0.00000000
     0.00000000     0.00000000     0.00000000
     0.00000000     0.00000000     0.00000000
     0.00000000     0.00000000     0.00000000
     0.00000000     0.00000000     0.00000000
     0.00000000     0.00000000     0.00000000
     0.00000000     0.00000000     0.00000000

           2 st state (SSR)
     0.00000000     0.00000000     0.00000000
     0.00000000     0.00000000     0.00000000
     0.00000000     0.00000000     0.00000000
     0.00000000     0.00000000     0.00000000
     0.00000000     0.00000000     0.00000000
     0.00000000     0.00000000     0.00000000
     0.00000000     0.00000000     0.00000000
     0.00000000     0.00000000     0.00000000
     0.00000000     0.00000000     0.00000000
     0.00000000     0.00000000     0.00000000
     0.00000000     0.00000000     0.00000000
     0.00000000     0.00000000     0.00000000
     0.00000000     0.00000000     0.00000000
     0.00000000     0.00000000     0.00000000
--------------------------------------------------
 Coupling Information
--------------------------------------------------
 between  1 and  2 states
--------------------------------------------------
 g vector - difference gradient
     0.00317568    -0.01328623     0.18592809
    -0.15607940     0.03309618    -0.20639972
     0.03614275    -0.13206354    -0.03608598
    -0.02161373     0.06175908    -0.08048560
    -0.03826711     0.09161871    -0.06131510
     0.26350093     0.21075051     0.07586464
     0.07373971    -0.06461828    -0.11431958
    -0.09868862    -0.11291995     0.11651236
     0.11727539    -0.05073458     0.03036686
    -0.31570856    -0.13456613    -0.13125215
    -0.05120704    -0.06707651     0.13857463
     0.16783229     0.17637422     0.06931810
     0.00081577     0.00865696    -0.00819599
     0.01908193    -0.00699045     0.02148942

 h vector - derivative coupling
     0.02137336     0.00487976    -0.02675775
    -0.04679406    -0.01206616     0.05195341
     0.00763856    -0.01788799     0.00882602
    -0.01125587     0.01176906    -0.00886761
     0.01428819    -0.02042162     0.00922919
     0.04882618     0.05813903    -0.06099430
    -0.02254704    -0.01137744     0.02879973
    -0.00505645     0.00035250     0.00326726
     0.01203333    -0.02683264     0.01614318
    -0.00015081     0.03023348    -0.02014827
     0.00798933    -0.00732237    -0.00012752
    -0.02533909    -0.01067222    -0.00263556
     0.00145204    -0.00369597    -0.00030532
    -0.00245769     0.00490257     0.00161754

 G vector - GDV
     0.00000000     0.00000000     0.00000000
     0.00000000     0.00000000     0.00000000
     0.00000000     0.00000000     0.00000000
     0.00000000     0.00000000     0.00000000
     0.00000000     0.00000000     0.00000000
     0.00000000     0.00000000     0.00000000
     0.00000000     0.00000000     0.00000000
     0.00000000     0.00000000     0.00000000
     0.00000000     0.00000000     0.00000000
     0.00000000     0.00000000     0.00000000
     0.00000000     0.00000000     0.00000000
     0.00000000     0.00000000     0.00000000
     0.00000000     0.00000000     0.00000000
     0.00000000     0.00000000     0.00000000

 H vector - DCV - non-adiabatic coupling
     0.00000000     0.00000000     0.00000000
     0.00000000     0.00000000     0.00000000
     0.00000000     0.00000000     0.00000000
     0.00000000     0.00000000     0.00000000
     0.00000000     0.00000000     0.00000000
     0.00000000     0.00000000     0.00000000
     0.00000000     0.00000000     0.00000000
     0.00000000     0.00000000     0.00000000
     0.00000000     0.00000000     0.00000000
     0.00000000     0.00000000     0.00000000
     0.00000000     0.00000000     0.00000000
     0.00000000     0.00000000     0.00000000
     0.00000000     0.00000000     0.00000000
     0.00000000     0.00000000     0.00000000
--------------------------------------------------

WARNING!
-> SCC is NOT converged, maximal SCC iterations exceeded

--------------------------------------------------------------------------------
DFTB+ running times                          cpu [s]             wall clock [s]
--------------------------------------------------------------------------------
SCC                                    +     1.39  ( 79.6%)      1.39  ( 79.5%)
      Sparse to dense                        0.07  (  4.1%)      0.07  (  4.2%)
      Dense to sparse                        0.24  ( 13.9%)      0.25  ( 14.1%)
      Range separated Hamiltonian            0.12  (  7.1%)      0.12  (  6.6%)
  Density matrix creation                    0.15  (  8.6%)      0.15  (  8.5%)
  Force calculation                          0.35  ( 20.3%)      0.35  ( 20.3%)
--------------------------------------------------------------------------------
Missing                                +     0.36  ( 20.4%)      0.36  ( 20.5%)
Total                                  =     1.74  (100.0%)      1.75  (100.0%)
--------------------------------------------------------------------------------
