 Fermi distribution function

Calculation with static geometry


********************************************************************************
 iSCC Total electronic   Diff electronic      SCC error    
   12   -0.53331767E+01   -0.14194876E-08    0.58878813E-08
********************************************************************************

 Total charge:     1.00000000

 Atomic gross charges (e)
 Atom           Charge
    1       0.32983536
    2      -0.21945848
    3       0.15846561
    4       0.26436225
    5       0.29850702
    6       0.16828824

Nr. of electrons (up):     12.00000000
Atom populations (up)
 Atom       Population
    1       3.67016464
    2       5.21945848
    3       0.84153439
    4       0.73563775
    5       0.70149298
    6       0.83171176

l-shell populations (up)
 Atom Sh.   l       Population
    1   1   0       1.34181671
    1   2   1       2.32834793
    2   1   0       1.46336774
    2   2   1       3.75609074
    3   1   0       0.84153439
    4   1   0       0.73563775
    5   1   0       0.70149298
    6   1   0       0.83171176

Orbital populations (up)
 Atom Sh.   l   m       Population  Label
    1   1   0   0       1.34181671  s
    1   2   1  -1       0.48490790  p_y
    1   2   1   0       0.88610423  p_z
    1   2   1   1       0.95733580  p_x
    2   1   0   0       1.46336774  s
    2   2   1  -1       1.31936272  p_y
    2   2   1   0       1.09269133  p_z
    2   2   1   1       1.34403669  p_x
    3   1   0   0       0.84153439  s
    4   1   0   0       0.73563775  s
    5   1   0   0       0.70149298  s
    6   1   0   0       0.83171176  s

Fermi level:                        -0.5007228296 H          -13.6254 eV
Band energy:                        -8.7792602947 H         -238.8958 eV
TS:                                  0.0000000000 H            0.0000 eV
Band free energy (E-TS):            -8.7792602947 H         -238.8958 eV
Extrapolated E(0K):                 -8.7792602947 H         -238.8958 eV
Input / Output electrons (q):     12.0000000000     12.0000000000

Energy H0:                          -5.4693129494 H         -148.8276 eV
Energy SCC:                          0.1361362489 H            3.7045 eV
Total Electronic energy:            -5.3331767005 H         -145.1231 eV
Repulsive energy:                    0.1618209657 H            4.4034 eV
Total energy:                       -5.1713557348 H         -140.7197 eV
Extrapolated to 0:                  -5.1713557348 H         -140.7197 eV
Total Mermin free energy:           -5.1713557348 H         -140.7197 eV
Force related energy:               -5.1713557348 H         -140.7197 eV

SCC converged

Excitation Energy:                   0.0880590262 H            2.3962 eV

Total Forces
    1      0.006559884853      0.002836636782      0.061184608396
    2     -0.012563419564      0.018796498798     -0.066110766795
    3     -0.007956515517      0.010045673539     -0.000991794262
    4     -0.005948945491     -0.016649964464     -0.000208845435
    5      0.014834931473      0.002719321141      0.002385464374
    6      0.005074064246     -0.017748165797      0.003741333722

Maximal derivative component:        0.661108E-01 au


