     6
  Step:     0            Position(A)                                  Velocity(au)
C        -0.04006387     0.01935044     0.02485817    -0.00011914     0.00006604    -0.00034033
N        -0.05229920    -0.03832334     1.29695603     0.00011619    -0.00008701     0.00037283
H         0.95232308    -0.06406899    -0.55249403     0.00027186    -0.00019522     0.00052810
H         0.91719108    -0.17042926     1.86477192     0.00010999     0.00035925    -0.00036470
H        -0.89350858    -0.15820005     1.80851926    -0.00048626     0.00030652    -0.00049823
H        -0.98477117     0.02489299    -0.54792480    -0.00009050    -0.00004840    -0.00079076
     6
  Step:     1            Position(A)                                  Velocity(au)
C        -0.04068557     0.01971717     0.02282241    -0.00010840     0.00006799    -0.00040181
N        -0.05157811    -0.03880172     1.29915651     0.00014716    -0.00008784     0.00042963
H         0.95356235    -0.06513718    -0.54959722     0.00018212    -0.00019531     0.00052954
H         0.91699395    -0.16837839     1.86238840    -0.00018005     0.00038997    -0.00050389
H        -0.89660611    -0.15665522     1.80619701    -0.00064456     0.00025894    -0.00035112
H        -0.98532796     0.02464302    -0.55243630    -0.00011077    -0.00004311    -0.00085687
     6
  Step:     2            Position(A)                                  Velocity(au)
C        -0.04124977     0.02009422     0.02046231    -0.00009808     0.00006971    -0.00045807
N        -0.05068926    -0.03928432     1.30165628     0.00017695    -0.00008844     0.00048147
H         0.95431551    -0.06620573    -0.54670074     0.00009472    -0.00019516     0.00052695
H         0.91522133    -0.16616291     1.85925930    -0.00046324     0.00041865    -0.00063514
H        -0.90056026    -0.15536723     1.80467789    -0.00079564     0.00021274    -0.00020623
H        -0.98598297     0.02442138    -0.55729918    -0.00012608    -0.00003798    -0.00091789
     6
  Step:     3            Position(A)                                  Velocity(au)
C        -0.04175928     0.02048034     0.01780791    -0.00008827     0.00007111    -0.00050783
N        -0.04964099    -0.03976989     1.30442719     0.00020453    -0.00008869     0.00052720
H         0.95459930    -0.06727365    -0.54382858     0.00001128    -0.00019464     0.00051901
H         0.91192282    -0.16379540     1.85543546    -0.00073329     0.00044411    -0.00075435
H        -0.90531604    -0.15432632     1.80393934    -0.00093243     0.00016857    -0.00006746
H        -0.98670812     0.02422728    -0.56248456    -0.00013591    -0.00003294    -0.00097208
     6
  Step:     4            Position(A)                                  Velocity(au)
C        -0.04221736     0.02087366     0.01489593    -0.00007907     0.00007205    -0.00054972
N        -0.04844735    -0.04025647     1.30743502     0.00022875    -0.00008844     0.00056555
H         0.95443919    -0.06833925    -0.54101186    -0.00006635    -0.00019361     0.00050444
H         0.90718366    -0.16129501     1.85099073    -0.00098241     0.00046500    -0.00085678
H        -0.91078080    -0.15351951     1.80393848    -0.00104789     0.00012707     0.00006129
H        -0.98747270     0.02406031    -0.56795423    -0.00013983    -0.00002794    -0.00101747
     6
  Step:     5            Position(A)                                  Velocity(au)
C        -0.04262772     0.02127162     0.01177029    -0.00007057     0.00007240    -0.00058242
N        -0.04712868    -0.04074127     1.31063861     0.00024840    -0.00008756     0.00059519
H         0.95387056    -0.06940008    -0.53828833    -0.00013618    -0.00019194     0.00048224
H         0.90113298    -0.15868831     1.84602544    -0.00120159     0.00047993    -0.00093727
H        -0.91682503    -0.15293069     1.80461245    -0.00113554     0.00008888     0.00017629
H        -0.98824385     0.02392036    -0.57365946    -0.00013754    -0.00002296    -0.00105212
     6
  Step:     6            Position(A)                                  Velocity(au)
C        -0.04299458     0.02167104     0.00848187    -0.00006289     0.00007210    -0.00060481
N        -0.04571178    -0.04122072     1.31398974     0.00026238    -0.00008591     0.00061497
H         0.95293947    -0.07045300    -0.53570104    -0.00019621    -0.00018953     0.00045179
H         0.89395076    -0.15600964     1.84066873    -0.00138128     0.00048760    -0.00099078
H        -0.92328632    -0.15254067     1.80587997    -0.00119025     0.00005458     0.00027439
H        -0.98898742     0.02380749    -0.57954104    -0.00012899    -0.00001797    -0.00107434
     6
  Step:     7            Position(A)                                  Velocity(au)
C        -0.04332266     0.02206826     0.00508722    -0.00005613     0.00007107    -0.00061626
N        -0.04422938    -0.04169054     1.31743398     0.00026983    -0.00008341     0.00062414
H         0.95170249    -0.07149441    -0.53329608    -0.00024470    -0.00018641     0.00041304
H         0.88586997    -0.15330039     1.83507748    -0.00151258     0.00048704    -0.00101304
H        -0.92997714    -0.15232761     1.80764443    -0.00120895     0.00002462     0.00035328
H        -0.98966922     0.02372179    -0.58553076    -0.00011443    -0.00001300    -0.00108308
     6
  Step:     8            Position(A)                                  Velocity(au)
C        -0.04361724     0.02245938     0.00164605    -0.00005041     0.00006935    -0.00061684
N        -0.04271878    -0.04214598     1.32091288     0.00027025    -0.00008007     0.00062257
H         0.95022514    -0.07252069    -0.53111948    -0.00028047    -0.00018267     0.00036656
H         0.87717264    -0.15060726     1.82943175    -0.00158863     0.00047780    -0.00100133
H        -0.93669642    -0.15226760     1.80979873    -0.00119126    -0.00000072     0.00041191
H        -0.99025673     0.02366328    -0.59155493    -0.00009443    -0.00000808    -0.00107830
     6
  Step:     9            Position(A)                                  Velocity(au)
C        -0.04388404     0.02284058    -0.00178257    -0.00004579     0.00006702    -0.00060744
N        -0.04121961    -0.04258229     1.32436758     0.00026369    -0.00007596     0.00061097
H         0.94857889    -0.07352885    -0.52921370    -0.00030310    -0.00017859     0.00031354
H         0.86817726    -0.14797911     1.82392557    -0.00160596     0.00046016    -0.00095508
H        -0.94324428    -0.15233564     1.81223192    -0.00113970    -0.00002141     0.00045066
H        -0.99072088     0.02363177    -0.59753986    -0.00006985    -0.00000326    -0.00106121
     6
  Step:    10            Position(A)                                  Velocity(au)
C        -0.04412918     0.02320860    -0.00514478    -0.00004235     0.00006425    -0.00058979
N        -0.03977089    -0.04299514     1.32774327     0.00025072    -0.00007124     0.00059089
H         0.94683662    -0.07451728    -0.52761425    -0.00031312    -0.00017457     0.00025561
H         0.85921887    -0.14546294     1.81875449    -0.00156527     0.00043512    -0.00087602
H        -0.94943768    -0.15250694     1.81483689    -0.00105934    -0.00003769     0.00047137
H        -0.99103758     0.02362686    -0.60341873    -0.00004171     0.00000144    -0.00103431
     6
  Step:    11            Position(A)                                  Velocity(au)
C        -0.04435897     0.02356106    -0.00839637    -0.00004010     0.00006125    -0.00056619
N        -0.03840804    -0.04338113     1.33099380     0.00023234    -0.00006613     0.00056447
H         0.94506753    -0.07548649    -0.52634734    -0.00031189    -0.00017111     0.00019447
H         0.85062449    -0.14309973     1.81410194    -0.00147115     0.00040425    -0.00076779
H        -0.95512368    -0.15275825     1.81751782    -0.00095680    -0.00005005     0.00047700
H        -0.99118859     0.02364796    -0.60913848    -0.00001101     0.00000602    -0.00100101
     6
  Step:    12            Position(A)                                  Velocity(au)
C        -0.04457974     0.02389674    -0.01150590    -0.00003904     0.00005824    -0.00053911
N        -0.03716054    -0.04373813     1.33408506     0.00020973    -0.00006088     0.00053405
H         0.94333261    -0.07643964    -0.52542938    -0.00030124    -0.00016871     0.00013158
H         0.84269072    -0.14092124     1.81012841    -0.00133072     0.00036934    -0.00063495
H        -0.96018720    -0.15306924     1.82019596    -0.00083886    -0.00005918     0.00047109
H        -0.99116131     0.02369445    -0.61466496     0.00002144     0.00001049    -0.00096503
     6
  Step:    13            Position(A)                                  Velocity(au)
C        -0.04479769     0.02421562    -0.01445539    -0.00003910     0.00005540    -0.00051065
N        -0.03605086    -0.04406532     1.33699597     0.00018401    -0.00005566     0.00050168
H         0.94168195    -0.07738261    -0.52486856    -0.00028311    -0.00016782     0.00006785
H         0.83566861    -0.13894872     1.80696584    -0.00115193     0.00033204    -0.00048195
H        -0.96455151    -0.15342334     1.82281241    -0.00071127    -0.00006582     0.00045710
H        -0.99094764     0.02376590    -0.61998433     0.00005514     0.00001495    -0.00092957
     6
  Step:    14            Position(A)                                  Velocity(au)
C        -0.04501864     0.02451864    -0.01723844    -0.00004020     0.00005283    -0.00048224
N        -0.03509484    -0.04436298     1.33971689     0.00015606    -0.00005061     0.00046878
H         0.94015443    -0.07832357    -0.52466773    -0.00025918    -0.00016872     0.00000368
H         0.82975907    -0.13719378     1.80471807    -0.00094224     0.00029360    -0.00031262
H        -0.96817196    -0.15380815     1.82532734    -0.00057812    -0.00007070     0.00043788
H        -0.99054231     0.02386224    -0.62510038     0.00008984     0.00001947    -0.00089686
     6
  Step:    15            Position(A)                                  Velocity(au)
C        -0.04524791     0.02480733    -0.01985645    -0.00004034     0.00005235    -0.00050392
N        -0.03430296    -0.04463210     1.34224625     0.00012592    -0.00004648     0.00047430
H         0.93877923    -0.07927219    -0.52482737    -0.00027350    -0.00021312    -0.00002270
H         0.82511562    -0.13566042     1.80346451    -0.00072458     0.00029591    -0.00013859
H        -0.97102640    -0.15421513     1.82771663    -0.00041840    -0.00012541     0.00040010
H        -0.98994142     0.02398392    -0.63002895     0.00014731     0.00006468    -0.00082517
     6
  Step:    16            Position(A)                                  Velocity(au)
C        -0.04546914     0.02510327    -0.02286609    -0.00003901     0.00005388    -0.00057606
N        -0.03368854    -0.04488206     1.34501379     0.00009374    -0.00004339     0.00051887
H         0.93710002    -0.08070360    -0.52492119    -0.00032644    -0.00029138    -0.00001174
H         0.82166710    -0.13388906     1.80317029    -0.00050516     0.00033041     0.00003407
H        -0.97284463    -0.15520865     1.82979562    -0.00023209    -0.00022040     0.00034557
H        -0.98889723     0.02458456    -0.63431569     0.00022584     0.00014230    -0.00071393
     6
  Step:    17            Position(A)                                  Velocity(au)
C        -0.04568241     0.02540750    -0.02627315    -0.00003772     0.00005547    -0.00064725
N        -0.03325876    -0.04511544     1.34802591     0.00006042    -0.00004058     0.00056284
H         0.93514301    -0.08251784    -0.52495815    -0.00037344    -0.00035585    -0.00000331
H         0.81948872    -0.13198000     1.80384403    -0.00027296     0.00035091     0.00020897
H        -0.97361165    -0.15667016     1.83156586    -0.00004445    -0.00029889     0.00029171
H        -0.98742584     0.02556901    -0.63798141     0.00030066     0.00020684    -0.00060613
     6
  Step:    18            Position(A)                                  Velocity(au)
C        -0.04588850     0.02571996    -0.03006249    -0.00003651     0.00005693    -0.00071430
N        -0.03301675    -0.04533329     1.35127169     0.00002677    -0.00003785     0.00060371
H         0.93294804    -0.08466010    -0.52495795    -0.00041219    -0.00041187     0.00000111
H         0.81863228    -0.12998749     1.80549368    -0.00003402     0.00036318     0.00038395
H        -0.97333882    -0.15853177     1.83303891     0.00013978    -0.00036699     0.00024021
H        -0.98555443     0.02688430    -0.64105490     0.00036952     0.00026334    -0.00050294
     6
  Step:    19            Position(A)                                  Velocity(au)
C        -0.04608798     0.02603981    -0.03420721    -0.00003534     0.00005813    -0.00077502
N        -0.03296140    -0.04553589     1.35473155    -0.00000628    -0.00003509     0.00063993
H         0.93056465    -0.08709268    -0.52494586    -0.00044088    -0.00046145     0.00000064
H         0.81911084    -0.12794595     1.80810871     0.00020322     0.00037008     0.00055446
H        -0.97205906    -0.16074647     1.83423403     0.00031596    -0.00042739     0.00019266
H        -0.98332143     0.02849401    -0.64356784     0.00043006     0.00031381    -0.00040525
     6
  Step:    20            Position(A)                                  Velocity(au)
C        -0.04628095     0.02636553    -0.03867024    -0.00003410     0.00005895    -0.00082750
N        -0.03308651    -0.04572307     1.35837904    -0.00003768    -0.00003225     0.00067028
H         0.92805137    -0.08978521    -0.52495083    -0.00045796    -0.00050543    -0.00000526
H         0.82088930    -0.12587724     1.81165178     0.00042901     0.00037346     0.00071485
H        -0.96982960    -0.16327858     1.83517867     0.00047905    -0.00048151     0.00015068
H        -0.98077793     0.03036959    -0.64555577     0.00047984     0.00035916    -0.00031415
     6
  Step:    21            Position(A)                                  Velocity(au)
C        -0.04646698     0.02669503    -0.04340498    -0.00003271     0.00005931    -0.00087012
N        -0.03338021    -0.04589434     1.36218177    -0.00006632    -0.00002928     0.00069379
H         0.92547440    -0.09271054    -0.52500432    -0.00046225    -0.00054412    -0.00001689
H         0.82387930    -0.12379496     1.81605436     0.00063332     0.00037462     0.00085918
H        -0.96673436    -0.16609847     1.83590883     0.00062382    -0.00053012     0.00011594
H        -0.97798803     0.03248609    -0.64705968     0.00051651     0.00039976    -0.00023100
     6
  Step:    22            Position(A)                                  Velocity(au)
C        -0.04664510     0.02702575    -0.04835645    -0.00003109     0.00005915    -0.00090162
N        -0.03382477    -0.04604901     1.36610235    -0.00009115    -0.00002617     0.00070977
H         0.92290557    -0.09584234    -0.52513881    -0.00045315    -0.00057759    -0.00003423
H         0.82793948    -0.12170696     1.82121627     0.00080696     0.00037450     0.00098198
H        -0.96288522    -0.16917992     1.83646927     0.00074523    -0.00057374     0.00009000
H        -0.97502813     0.03481972    -0.64812728     0.00053810     0.00043570    -0.00015722
     6
  Step:    23            Position(A)                                  Velocity(au)
C        -0.04681384     0.02735485    -0.05346338    -0.00002917     0.00005844    -0.00092136
N        -0.03439705    -0.04618629     1.37009991    -0.00011129    -0.00002292     0.00071795
H         0.92041906    -0.09915408    -0.52538622    -0.00043079    -0.00060593    -0.00005698
H         0.83288172    -0.11961703     1.82700933     0.00094269     0.00037380     0.00107905
H        -0.95842064    -0.17249904     1.83691286     0.00083901    -0.00061284     0.00007422
H        -0.97198505     0.03734674    -0.64881360     0.00054322     0.00046706    -0.00009418
     6
  Step:    24            Position(A)                                  Velocity(au)
C        -0.04697129     0.02767936    -0.05866138    -0.00002688     0.00005721    -0.00092949
N        -0.03506954    -0.04630533     1.37413222    -0.00012617    -0.00001952     0.00071859
H         0.91808747    -0.10261933    -0.52577612    -0.00039606    -0.00062944    -0.00008454
H         0.83848296    -0.11752626     1.83328488     0.00103612     0.00037305     0.00114805
H        -0.95350141    -0.17603415     1.83729933     0.00090222    -0.00064809     0.00006956
H        -0.96895247     0.04004347    -0.64918061     0.00053136     0.00049404    -0.00004297
     6
  Step:    25            Position(A)                                  Velocity(au)
C        -0.04711526     0.02799644    -0.06388717    -0.00002420     0.00005552    -0.00092695
N        -0.03581202    -0.04640524     1.37815852    -0.00013556    -0.00001600     0.00071246
H         0.91597748    -0.10621297    -0.52633429    -0.00035060    -0.00064869    -0.00011613
H         0.84450128    -0.11543346     1.83988419     0.00108611     0.00037271     0.00118881
H        -0.94830268    -0.17976700     1.83769296     0.00093375    -0.00068041     0.00007650
H        -0.96602608     0.04288712    -0.64929551     0.00050294     0.00051711    -0.00000418
     6
  Step:    26            Position(A)                                  Velocity(au)
C        -0.04724338     0.02830360    -0.06908295    -0.00002112     0.00005347    -0.00091540
N        -0.03659362    -0.04648522     1.38214231    -0.00013960    -0.00001237     0.00070080
H         0.91414577    -0.10991248    -0.52708177    -0.00029658    -0.00066455    -0.00015091
H         0.85069394    -0.11333600     1.84665045     0.00109467     0.00037314     0.00120321
H        -0.94300345    -0.18368385     1.83815941     0.00093434    -0.00071100     0.00009497
H        -0.96329804     0.04585728    -0.64922765     0.00045923     0.00053704     0.00002219
     6
  Step:    27            Position(A)                                  Velocity(au)
C        -0.04735324     0.02859887    -0.07420021    -0.00001765     0.00005116    -0.00089690
N        -0.03738478    -0.04654455     1.38605380    -0.00013873    -0.00000863     0.00068505
H         0.91263618    -0.11369991    -0.52803449    -0.00023640    -0.00067808    -0.00018805
H         0.85683400    -0.11122965     1.85343969     0.00106614     0.00037471     0.00119464
H        -0.93777630    -0.18777722     1.83876294     0.00090628    -0.00074124     0.00012448
H        -0.96085229     0.04893753    -0.64904554     0.00040210     0.00055480     0.00003668
     6
  Step:    28            Position(A)                                  Velocity(au)
C        -0.04744246     0.02888083    -0.07920188    -0.00001377     0.00004869    -0.00087353
N        -0.03815880    -0.04658254     1.38987117    -0.00013357    -0.00000478     0.00066666
H         0.91147866    -0.11756268    -0.52920338    -0.00017242    -0.00069038    -0.00022679
H         0.86272233    -0.10910852     1.86012850     0.00100613     0.00037768     0.00116719
H        -0.93277869    -0.19204664     1.83956384     0.00085295    -0.00077250     0.00016413
H        -0.95876144     0.05211664    -0.64881387     0.00033366     0.00057142     0.00004025
     6
  Step:    29            Position(A)                                  Velocity(au)
C        -0.04750875     0.02914861    -0.08406237    -0.00000952     0.00004614    -0.00084709
N        -0.03889282    -0.04659854     1.39358048    -0.00012483    -0.00000083     0.00064684
H         0.91068957    -0.12149431    -0.53059501    -0.00010677    -0.00070240    -0.00026648
H         0.86819331    -0.10696562     1.86661738     0.00092054     0.00038221     0.00112499
H        -0.92814648    -0.19649881     1.84061595     0.00077830    -0.00080592     0.00021267
H        -0.95708530     0.05538889    -0.64859112     0.00025603     0.00058782     0.00003417
     6
  Step:    30            Position(A)                                  Velocity(au)
C        -0.04754990     0.02940178    -0.08876609    -0.00000488     0.00004355    -0.00081897
N        -0.03956820    -0.04659191     1.39717435    -0.00011321     0.00000324     0.00062644
H         0.91027317    -0.12549319    -0.53221210    -0.00004131    -0.00071478    -0.00030649
H         0.87311577    -0.10479319     1.87283034     0.00081493     0.00038829     0.00107168
H        -0.92399119    -0.20114593     1.84196506     0.00068649    -0.00084220     0.00026862
H        -0.95587071     0.05875347    -0.64842804     0.00017130     0.00060470     0.00001988
     6
  Step:    31            Position(A)                                  Velocity(au)
C        -0.04756387     0.02964014    -0.09330493     0.00000010     0.00004095    -0.00079006
N        -0.04017045    -0.04656201     1.40065019    -0.00009938     0.00000742     0.00060600
H         0.91022331    -0.12956099    -0.53405394     0.00002232    -0.00072782    -0.00034621
H         0.87739030    -0.10258349     1.87871200     0.00069428     0.00039579     0.00101031
H        -0.92039905    -0.20600355     1.84364749     0.00058171    -0.00088160     0.00033021
H        -0.95515207     0.06221332    -0.64836682     0.00008148     0.00062247    -0.00000113
     6
  Step:    32            Position(A)                                  Velocity(au)
C        -0.04754875     0.02986363    -0.09767573     0.00000541     0.00003834    -0.00076090
N        -0.04068892    -0.04650822     1.40400832    -0.00008398     0.00001171     0.00058580
H         0.91052491    -0.13370098    -0.53611638     0.00008271    -0.00074156    -0.00038502
H         0.88094532    -0.10032976     1.88422383     0.00056295     0.00040449     0.00094332
H        -0.91743107    -0.21108790     1.84568894     0.00046825    -0.00092393     0.00039546
H        -0.95495179     0.06577326    -0.64844073    -0.00001139     0.00064134    -0.00002728
     6
  Step:    33            Position(A)                                  Velocity(au)
C        -0.04750293     0.03007214    -0.10187828     0.00001098     0.00003570    -0.00073180
N        -0.04111663    -0.04643002     1.40725058    -0.00006760     0.00001609     0.00056595
H         0.91115519    -0.13791650    -0.53839211     0.00013854    -0.00075585    -0.00042231
H         0.88373333    -0.09802591     1.88934079     0.00042485     0.00041417     0.00087275
H        -0.91512308    -0.21641379     1.84810330     0.00035045    -0.00096866     0.00046217
H        -0.95528038     0.06943951    -0.64867419    -0.00010523     0.00066133    -0.00005704
     6
  Step:    34            Position(A)                                  Velocity(au)
C        -0.04742514     0.03026549    -0.10591398     0.00001675     0.00003301    -0.00070292
N        -0.04144997    -0.04632706     1.41037947    -0.00005084     0.00002052     0.00054647
H         0.91208453    -0.14220996    -0.54087051     0.00018866    -0.00077040    -0.00045746
H         0.88572805    -0.09566719     1.89404886     0.00028352     0.00042456     0.00080035
H        -0.91348584    -0.22199260     1.85089184     0.00023271    -0.00101499     0.00052804
H        -0.95613643     0.07321817    -0.64908280    -0.00019790     0.00068232    -0.00008884
     6
  Step:    35            Position(A)                                  Velocity(au)
C        -0.04731455     0.03044344    -0.10978507     0.00002262     0.00003027    -0.00067436
N        -0.04168854    -0.04619920     1.41339755    -0.00003425     0.00002495     0.00052736
H         0.91327736    -0.14658223    -0.54353786     0.00023206    -0.00078487    -0.00048993
H         0.88692243    -0.09325034     1.89834342     0.00014225     0.00043536     0.00072766
H        -0.91250548    -0.22783081     1.85404296     0.00011932    -0.00106192     0.00059077
H        -0.95750645     0.07711453    -0.64967352    -0.00028723     0.00070409    -0.00012119
     6
  Step:    36            Position(A)                                  Velocity(au)
C        -0.04717086     0.03060569    -0.11349419     0.00002850     0.00002746    -0.00064617
N        -0.04183497    -0.04604663     1.41630731    -0.00001834     0.00002932     0.00050858
H         0.91469304    -0.15103238    -0.54637756     0.00026789    -0.00079894    -0.00051919
H         0.88732707    -0.09077346     1.90222816     0.00000415     0.00044635     0.00065612
H        -0.91214461    -0.23392920     1.85753247     0.00001434    -0.00110838     0.00064816
H        -0.95936504     0.08113258    -0.65044510    -0.00037110     0.00072637    -0.00015268
     6
  Step:    37            Position(A)                                  Velocity(au)
C        -0.04699435     0.03075188    -0.11704428     0.00003428     0.00002458    -0.00061842
N        -0.04189462    -0.04586984     1.41911103    -0.00000360     0.00003357     0.00049011
H         0.91628690    -0.15555760    -0.54937055     0.00029551    -0.00081227    -0.00054486
H         0.88696900    -0.08823597     1.90571436    -0.00012793     0.00045731     0.00058707
H        -0.91234437    -0.24028251     1.86132450    -0.00007861    -0.00115328     0.00069823
H        -0.96167541     0.08527473    -0.65138873    -0.00044752     0.00074887    -0.00018200
     6
  Step:    38            Position(A)                                  Velocity(au)
C        -0.04678589     0.03088165    -0.12043853     0.00003986     0.00002163    -0.00059117
N        -0.04187534    -0.04566966     1.42181080     0.00000958     0.00003764     0.00047192
H         0.91801135    -0.16015343    -0.55249580     0.00031449    -0.00082460    -0.00056661
H         0.88589050    -0.08563833     1.90882039    -0.00025133     0.00046807     0.00052175
H        -0.91302734    -0.24687949     1.86537298    -0.00015651    -0.00119560     0.00073933
H        -0.96439034     0.08954173    -0.65248879    -0.00051475     0.00077129    -0.00020803
     6
  Step:    39            Position(A)                                  Velocity(au)
C        -0.04654693     0.03099465    -0.12368037     0.00004512     0.00001862    -0.00056449
N        -0.04178706    -0.04544726     1.42440850     0.00002084     0.00004148     0.00045401
H         0.91981713    -0.16481399    -0.55573092     0.00032463    -0.00083573    -0.00058427
H         0.88414780    -0.08298181     1.91157120    -0.00036363     0.00047851     0.00046135
H        -0.91410126    -0.25370341     1.86962370    -0.00021706    -0.00123444     0.00077021
H        -0.96745357     0.09393267    -0.65372394    -0.00057129     0.00079336    -0.00022985
     6
  Step:    40            Position(A)                                  Velocity(au)
C        -0.04627948     0.03109057    -0.12677346     0.00004999     0.00001555    -0.00053844
N        -0.04164142    -0.04520412     1.42690586     0.00002993     0.00004504     0.00043635
H         0.92165452    -0.16953235    -0.55905273     0.00032597    -0.00084552    -0.00059776
H         0.88180965    -0.08026828     1.91399783    -0.00046275     0.00048858     0.00040691
H        -0.91546333    -0.26073288     1.87401656    -0.00025877    -0.00126910     0.00079005
H        -0.97080162     0.09844509    -0.65506828    -0.00061606     0.00081483    -0.00024676
     6
  Step:    41            Position(A)                                  Velocity(au)
C        -0.04598600     0.03116918    -0.12972179     0.00005439     0.00001246    -0.00051311
N        -0.04145127    -0.04494193     1.42930443     0.00003665     0.00004827     0.00041894
H         0.92347459    -0.17430092    -0.56243794     0.00031875    -0.00085393    -0.00060713
H         0.87895565    -0.07749988     1.91613683    -0.00054691     0.00049825     0.00035938
H        -0.91700475    -0.26794300     1.87848819    -0.00028096    -0.00129909     0.00079849
H        -0.97436585     0.10307525    -0.65649262    -0.00064832     0.00083554    -0.00025828
     6
  Step:    42            Position(A)                                  Velocity(au)
C        -0.04566930     0.03123031    -0.13252969     0.00005826     0.00000934    -0.00048856
N        -0.04123026    -0.04466259     1.43160569     0.00004091     0.00005116     0.00040178
H         0.92523032    -0.17911200    -0.56586378     0.00030339    -0.00086098    -0.00061254
H         0.87567423    -0.07467870     1.91802948    -0.00061474     0.00050758     0.00031954
H        -0.91861520    -0.27530660     1.88297435    -0.00028370    -0.00132417     0.00079562
H        -0.97807467     0.10781843    -0.65796578    -0.00066775     0.00085535    -0.00026419
     6
  Step:    43            Position(A)                                  Velocity(au)
C        -0.04533248     0.03127391    -0.13520178     0.00006158     0.00000621    -0.00046487
N        -0.04099239    -0.04436809     1.43381104     0.00004269     0.00005369     0.00038487
H         0.92687759    -0.18395810    -0.56930856     0.00028050    -0.00086679    -0.00061425
H         0.87206045    -0.07180654     1.91972094    -0.00066528     0.00051667     0.00028799
H        -0.92018683    -0.28279560     1.88741227    -0.00026775    -0.00134432     0.00078188
H        -0.98185574     0.11266929    -0.65945587    -0.00067444     0.00087422    -0.00026445
     6
  Step:    44            Position(A)                                  Velocity(au)
C        -0.04497875     0.03130001    -0.13774296     0.00006432     0.00000310    -0.00044209
N        -0.04075153    -0.04406044     1.43592177     0.00004203     0.00005588     0.00036820
H         0.92837595    -0.18883248    -0.57275219     0.00025077    -0.00087153    -0.00061257
H         0.86821350    -0.06888460     1.92125917    -0.00069806     0.00052564     0.00026515
H        -0.92161786    -0.29038235     1.89174265    -0.00023445    -0.00135976     0.00075805
H        -0.98563807     0.11762226    -0.66093146    -0.00066877     0.00089217    -0.00025925
     6