|===============================================================================
|
|  DFTB+ release 20.1
|
|  Copyright (C) 2006 - 2020  DFTB+ developers group
|
|===============================================================================
|
|  When publishing results obtained with DFTB+, please cite the following
|  reference:
|
|  * DFTB+, a software package for efficient approximate density functional
|    theory based atomistic simulations, J. Chem. Phys. 152, 124101 (2020).
|    [doi: 10.1063/1.5143190]
|
|  You should also cite additional publications crediting the parametrization
|  data you use. Please consult the documentation of the SK-files for the
|  references.
|
|===============================================================================

Reading input file 'dftb_in.hsd'
Parser version: 8

--------------------------------------------------------------------------------
Reading SK-files:
Done.


Processed input in HSD format written to 'dftb_pin.hsd'

Starting initialization...
--------------------------------------------------------------------------------
OpenMP threads:              1
Chosen random seed:          508936602
Mode:                        Static calculation
Self consistent charges:     Yes
SCC-tolerance:                 0.100000E-05
Max. scc iterations:                   1000
Shell resolved Hubbard:      No
Spin polarisation:           No
Nr. of up electrons:             6.000000
Nr. of down electrons:           6.000000
Periodic boundaries:         No
Electronic solver:           Relatively robust
Maximal SCC-cycles:                    1000
Initial charges:             Set automatically (system chrg:   0.100E+01)
Included shells:             C:  s, p
                             N:  s, p
                             H:  s
Spin coupling constants:     C   1(s)-1(s):  -0.455900E-01
                             C   1(s)-2(p):  -0.293000E-01
                             C   2(p)-1(s):  -0.293000E-01
                             C   2(p)-2(p):  -0.275500E-01
                             N   1(s)-1(s):  -0.468700E-01
                             N   1(s)-2(p):  -0.317000E-01
                             N   2(p)-1(s):  -0.317000E-01
                             N   2(p)-2(p):  -0.307200E-01
                             H   1(s)-1(s):  -0.792500E-01
Range separated hybrid:      Yes
  Screening parameter omega:   0.300000E+00
  Range separated algorithm:   MatrixBased
Extra options:
                             Mulliken analysis
                             Force calculation
Force type                   original
                             Eigenvector printing


REKS Calcuation:             Yes
SSR(2,2) Calcuation:         Yes
Energy Functional:           (PPS+OSS)/2
Number of Core Orbitals:                  5
Number of Active Orbitals:                2
Number of Basis:                         12
Number of States:                         2
State-Averaging Weight:          0.500000
                                 0.500000
State of Interest:                        1
Initial Guess:               Diagonalize H0 matrix
Newton-Raphson for FON opt:  Yes
NR max. Iterations:                      50
Level Shifting:              Yes
Shift Value:                     0.300000
W Scale Factor:              C  =    3.000000
                             N  =    3.000000
                             H  =    3.000000
Transition Dipole:           No
Gradient of Microstate:      No
CP-REKS Solver:              Preconditioned Conjugate-Gradient
CG max. Iterations:                     100
CG Tolerance:                  0.100000E-07
Memory for A and Hxc:        Direct Updating Without Saving
Non-Adiabatic Coupling:      Yes

--------------------------------------------------------------------------------

***  Geometry step: 0

  iSCC       reks energy        Diff energy         x_a       SCC error   
    1       -6.2673303503       0.0000000000     0.999844    1.19676541
    2       -6.2772989951      -0.0099686448     0.999925    0.06554589
    3       -6.2808787785      -0.0035797834     0.999955    0.02332081
    4       -6.2826758389      -0.0017970604     0.999967    0.01063659
    5       -6.2836043613      -0.0009285225     0.999974    0.00921190
    6       -6.2840805111      -0.0004761497     0.999977    0.00738939
    7       -6.2843220165      -0.0002415054     0.999978    0.00565540
    8       -6.2844434799      -0.0001214634     0.999979    0.00420096
    9       -6.2845042457      -0.0000607658     0.999980    0.00306070
   10       -6.2845345658      -0.0000303201     0.999980    0.00220171
   11       -6.2845496879      -0.0000151221     0.999980    0.00157044
   12       -6.2845572409      -0.0000075529     0.999980    0.00111382
   13       -6.2845610251      -0.0000037842     0.999980    0.00078693
   14       -6.2845629300      -0.0000019050     0.999980    0.00055455
   15       -6.2845638950      -0.0000009650     0.999980    0.00039012
   16       -6.2845643877      -0.0000004927     0.999980    0.00027414
   17       -6.2845646416      -0.0000002539     0.999980    0.00019252
   18       -6.2845647738      -0.0000001322     0.999980    0.00013516
   19       -6.2845648435      -0.0000000697     0.999980    0.00009872
   20       -6.2845648807      -0.0000000372     0.999980    0.00007668
   21       -6.2845649009      -0.0000000201     0.999980    0.00005963
   22       -6.2845649119      -0.0000000111     0.999980    0.00004669
   23       -6.2845649181      -0.0000000061     0.999980    0.00003689
   24       -6.2845649215      -0.0000000035     0.999980    0.00002913
   25       -6.2845649235      -0.0000000020     0.999980    0.00002297
   26       -6.2845649247      -0.0000000011     0.999980    0.00001811
   27       -6.2845649253      -0.0000000007     0.999980    0.00001426
   28       -6.2845649257      -0.0000000004     0.999980    0.00001122
   29       -6.2845649260      -0.0000000002     0.999980    0.00000883
   30       -6.2845649261      -0.0000000001     0.999980    0.00000694
   31       -6.2845649262      -0.0000000001     0.999980    0.00000546
   32       -6.2845649262      -0.0000000000     0.999980    0.00000429
   33       -6.2845649263      -0.0000000000     0.999980    0.00000337
   34       -6.2845649263      -0.0000000000     0.999980    0.00000264
   35       -6.2845649263      -0.0000000000     0.999980    0.00000207
   36       -6.2845649263      -0.0000000000     0.999980    0.00000163
   37       -6.2845649263      -0.0000000000     0.999980    0.00000128
   38       -6.2845649263      -0.0000000000     0.999980    0.00000100
   39       -6.2845649263      -0.0000000000     0.999980    0.00000079
  
--------------------------------------------------
 Final SA-REKS(2,2) energy:      -6.28456493
  
 State     Energy      FON(1)    FON(2)   Spin
  PPS   -6.41806001   1.999960  0.000040  0.00
  OSS   -6.15106984   1.000000  1.000000  0.00
 Trip   -6.22800708   1.000000  1.000000  1.00
--------------------------------------------------

 Lagrangian Wab:  -0.00119812 -0.00119807

--------------------------------------------------
 SSR: 2SI-2SA-REKS(2,2) Hamiltonian matrix
               PPS           OSS
   PPS    -6.41806001   -0.00168684
   OSS    -0.00168684   -6.15106984
--------------------------------------------------

----------------------------------------------------------------
 SSR: 2SI-2SA-REKS(2,2) states
                    E_n       C_{PPS}    C_{OSS}
 SSR state  1   -6.41807067  -0.999980  -0.006318
 SSR state  2   -6.15105919   0.006318  -0.999980
----------------------------------------------------------------

 unrelaxed SSR FONs for S0:  1.999920  0.000080

Total Energy:                       -6.4180706665 H         -174.6446 eV
Extrapolated to 0:                  -6.4180706665 H         -174.6446 eV

----------------------------------------------------------------------------------
 Solving CP-REKS equation for  1 state vector...
----------------------------------------------------------------------------------
  CG solver: Constructing Y initial guess
  CG solver: Iteration    1    eps =    0.000032190288
  CG solver: Iteration    2    eps =    0.000002333605
  CG solver: Iteration    3    eps =    0.000000233491
  CG solver: Iteration    4    eps =    0.000000003369
  Convergence reached in CG solver after    4 iterations
  CG solver: Calculating converged R, Z, Q2 matrix
----------------------------------------------------------------------------------

----------------------------------------------------------------------------------
 Solving CP-REKS equation for SI between  1 and  2 state vectors...
----------------------------------------------------------------------------------
  CG solver: Constructing Y initial guess
  CG solver: Iteration    1    eps =    0.000353524883
  CG solver: Iteration    2    eps =    0.000114385701
  CG solver: Iteration    3    eps =    0.000041007025
  CG solver: Iteration    4    eps =    0.000000788501
  CG solver: Iteration    5    eps =    0.000000064306
  CG solver: Iteration    6    eps =    0.000000002346
  Convergence reached in CG solver after    6 iterations
  CG solver: Calculating converged R, Z, Q2 matrix
----------------------------------------------------------------------------------

--------------------------------------------------
 Gradient Information
--------------------------------------------------
           1 st state (SSR)
     0.00071910    -0.00080244     0.03545003
    -0.00306467     0.00220958    -0.04561464
    -0.00313897    -0.00143264    -0.00138114
    -0.00267277     0.00276752     0.00810103
     0.00503258    -0.00388648     0.00641327
     0.00312473     0.00114446    -0.00296856

           2 st state (SSR)
    -0.00147840    -0.00820481     0.14881419
     0.00227290     0.00872718    -0.17813128
     0.00218156     0.01273486     0.01831816
     0.00228521    -0.00281457    -0.00216016
    -0.00339316     0.00297396    -0.00272390
    -0.00186813    -0.01341662     0.01588300
--------------------------------------------------
 Coupling Information
--------------------------------------------------
 between  1 and  2 states
--------------------------------------------------
 g vector - difference gradient
     0.00110105     0.00370712    -0.05668740
    -0.00266885    -0.00326990     0.06626253
    -0.00273212    -0.00709414    -0.00985242
    -0.00255544     0.00278384     0.00513425
     0.00428991    -0.00341509     0.00457048
     0.00256545     0.00728816    -0.00942745

 h vector - derivative coupling
    -0.00017510    -0.00044616     0.00006264
    -0.00001172     0.00085802     0.00008525
     0.00566936     0.00077746     0.00015699
     0.00603442     0.00058734    -0.00025701
    -0.00607016    -0.00121927    -0.00012051
    -0.00544680    -0.00055739     0.00007264

 G vector - GDV
     0.00109875     0.00370119    -0.05668208
    -0.00266879    -0.00325880     0.06625832
    -0.00266027    -0.00708375    -0.00984965
    -0.00247899     0.00279104     0.00513060
     0.00421287    -0.00343022     0.00456859
     0.00249643     0.00728054    -0.00942578

 H vector - DCV - non-adiabatic coupling
    -0.00070783    -0.00184623     0.00291702
     0.00008240     0.00336789    -0.00281627
     0.02136022     0.00324718     0.00105411
     0.02271898     0.00206779    -0.00120540
    -0.02293488    -0.00440439    -0.00066757
    -0.02051888    -0.00243224     0.00071812
--------------------------------------------------


--------------------------------------------------------------------------------
DFTB+ running times                          cpu [s]             wall clock [s]
--------------------------------------------------------------------------------
SCC                                    +     0.01  ( 41.1%)      0.02  ( 41.0%)
Post-SCC processing                    +     0.02  ( 55.1%)      0.02  ( 51.3%)
  Force calculation                          0.02  ( 53.5%)      0.02  ( 48.7%)
--------------------------------------------------------------------------------
Missing                                +     0.00  (  3.9%)      0.00  (  7.7%)
Total                                  =     0.04  (100.0%)      0.04  (100.0%)
--------------------------------------------------------------------------------
