     6
  Step:     0            Position(A)                                  Velocity(au)
C        -0.03307510     0.00297772     0.00103065    -0.00000053    -0.00007128    -0.00008144
N        -0.04158206    -0.05588363     1.30635171    -0.00009235     0.00011008     0.00009435
H         0.90496150     0.08599239    -0.50618104    -0.00054881     0.00021292     0.00022220
H         0.83579401    -0.07395711     1.86503483     0.00134579    -0.00061687     0.00091953
H        -0.97281554    -0.01326631     1.87037128     0.00064701    -0.00042419    -0.00121578
H        -1.00891414     0.07254924    -0.50298806    -0.00015433     0.00014779    -0.00026663
     6
  Step:     1            Position(A)                                  Velocity(au)
C        -0.03309999     0.00258657     0.00053078    -0.00000887    -0.00007187    -0.00010077
N        -0.04211782    -0.05528565     1.30697435    -0.00010185     0.00010859     0.00013313
H         0.90230862     0.08722577    -0.50534677    -0.00041663     0.00023887     0.00007990
H         0.84305645    -0.07733923     1.87009717     0.00129367    -0.00061972     0.00092074
H        -0.96874597    -0.01558815     1.86347976     0.00083109    -0.00042438    -0.00129601
H        -1.00985147     0.07337094    -0.50468917    -0.00018706     0.00015260    -0.00035380
     6
  Step:     2            Position(A)                                  Velocity(au)
C        -0.03317214     0.00219152    -0.00007169    -0.00001769    -0.00007268    -0.00011890
N        -0.04269618    -0.05469576     1.30780796    -0.00010784     0.00010710     0.00017117
H         0.90040405     0.08860538    -0.50530702    -0.00027700     0.00026618    -0.00006720
H         0.84994522    -0.08073612     1.87510658     0.00121053    -0.00062208     0.00090098
H        -0.96372444    -0.01790847     1.85619450     0.00099248    -0.00042353    -0.00135814
H        -1.01096030     0.07421848    -0.50685816    -0.00021657     0.00015718    -0.00043739
     6
  Step:     3            Position(A)                                  Velocity(au)
C        -0.03329351     0.00179148    -0.00076998    -0.00002674    -0.00007367    -0.00013575
N        -0.04329760    -0.05411402     1.30884687    -0.00011019     0.00010558     0.00020783
H         0.89927836     0.09013770    -0.50608195    -0.00013380     0.00029444    -0.00021671
H         0.85629928    -0.08414457     1.87995370     0.00109959    -0.00062370     0.00086225
H        -0.95788855    -0.02022149     1.84862205     0.00112600    -0.00042157    -0.00139924
H        -1.01222069     0.07509042    -0.50947408    -0.00024201     0.00016144    -0.00051683
     6
  Step:     4            Position(A)                                  Velocity(au)
C        -0.03346466     0.00138552    -0.00155699    -0.00003574    -0.00007480    -0.00015126
N        -0.04390176    -0.05354057     1.31008196    -0.00010875     0.00010403     0.00024250
H         0.89894009     0.09182697    -0.50767808     0.00000883     0.00032322    -0.00036604
H         0.86197622    -0.08756026     1.88454075     0.00096441    -0.00062443     0.00080675
H        -0.95140446    -0.02252098     1.84088489     0.00122648    -0.00041843    -0.00141652
H        -1.01360823     0.07598483    -0.51251301    -0.00026260     0.00016529    -0.00059160
     6
  Step:     5            Position(A)                                  Velocity(au)
C        -0.03368466     0.00097294    -0.00242535    -0.00004444    -0.00007603    -0.00016540
N        -0.04448769    -0.05297557     1.31150070    -0.00010342     0.00010244     0.00027456
H         0.89937501     0.09367486    -0.51008774     0.00014676     0.00035203    -0.00051258
H         0.86685343    -0.09097813     1.88878242     0.00080874    -0.00062417     0.00073685
H        -0.94446647    -0.02480062     1.83312026     0.00128893    -0.00041413    -0.00140746
H        -1.01509446     0.07689933    -0.51594836    -0.00027765     0.00016867    -0.00066124
     6
  Step:     6            Position(A)                                  Velocity(au)
C        -0.03395115     0.00055325    -0.00336756    -0.00005259    -0.00007733    -0.00017816
N        -0.04503385    -0.05241919     1.31308739    -0.00009414     0.00010083     0.00030347
H         0.90054661     0.09568045    -0.51328901     0.00027604     0.00038041    -0.00065379
H         0.87082893    -0.09439266     1.89260658     0.00063641    -0.00062287     0.00065502
H        -0.93729534    -0.02705421     1.82547838     0.00130898    -0.00040874    -0.00137004
H        -1.01664746     0.07783116    -0.51975118    -0.00028659     0.00017150    -0.00072535
     6
  Step:     7            Position(A)                                  Velocity(au)
C        -0.03426044     0.00012620    -0.00437607    -0.00005995    -0.00007865    -0.00018952
N        -0.04551848    -0.05187154     1.31482349    -0.00008090     0.00009920     0.00032875
H         0.90239752     0.09784016    -0.51724640     0.00039309     0.00040788    -0.00078729
H         0.87382175    -0.09779822     1.89595462     0.00045128    -0.00062054     0.00056377
H        -0.93013380    -0.02927610     1.81811898     0.00128323    -0.00040239    -0.00130300
H        -1.01823252     0.07877718    -0.52389058    -0.00028898     0.00017373    -0.00078362
     6
  Step:     8            Position(A)                                  Velocity(au)
C        -0.03460776    -0.00030822    -0.00544335    -0.00006636    -0.00007996    -0.00019951
N        -0.04591997    -0.05133265     1.31668818    -0.00006380     0.00009758     0.00035007
H         0.90485214     0.10014794    -0.52191211     0.00049491     0.00043403    -0.00091101
H         0.87577176    -0.10118940     1.89878151     0.00025718    -0.00061727     0.00046559
H        -0.92324022    -0.03146157     1.81120675     0.00120975    -0.00039531    -0.00120602
H        -1.01981268     0.07973400    -0.52833413    -0.00028449     0.00017531    -0.00083584
     6
  Step:     9            Position(A)                                  Velocity(au)
C        -0.03498746    -0.00074987    -0.00656198    -0.00007168    -0.00008122    -0.00020815
N        -0.04621754    -0.05080239     1.31865896    -0.00004307     0.00009600     0.00036718
H         0.90781999     0.10259552    -0.52722783     0.00057916     0.00045848    -0.00102326
H         0.87663952    -0.10456133     1.90105580     0.00005787    -0.00061320     0.00036297
H        -0.91687925    -0.03360722     1.80490538     0.00108851    -0.00038775    -0.00107997
H        -1.02134952     0.08069799    -0.53304841    -0.00027291     0.00017622    -0.00088189
     6
  Step:    10            Position(A)                                  Velocity(au)
C        -0.03539338    -0.00119839    -0.00772467    -0.00007585    -0.00008241    -0.00021548
N        -0.04639196    -0.05028049     1.32071243    -0.00001906     0.00009450     0.00038001
H         0.91119962     0.10517278    -0.53312688     0.00064422     0.00048094    -0.00112273
H         0.87640604    -0.10790998     1.90275955    -0.00014292    -0.00060851     0.00025836
H        -0.91131031    -0.03571127     1.79937051     0.00092168    -0.00038005    -0.00092701
H        -1.02280375     0.08166534    -0.53799945    -0.00025417     0.00017642    -0.00092171
     6
  Step:    11            Position(A)                                  Velocity(au)
C        -0.03581907    -0.00165330    -0.00892430    -0.00007886    -0.00008349    -0.00022152
N        -0.04642653    -0.04976643     1.32282504     0.00000766     0.00009310     0.00038859
H         0.91488267     0.10786814    -0.53953649     0.00068920     0.00050118    -0.00120851
H         0.87507268    -0.11123248     1.90388828    -0.00034150    -0.00060343     0.00015424
H        -0.90677478    -0.03777373     1.79474242     0.00071384    -0.00037252    -0.00075068
H        -1.02413597     0.08263214    -0.54315318    -0.00022828     0.00017591    -0.00095533
     6
  Step:    12            Position(A)                                  Velocity(au)
C        -0.03625813    -0.00211400    -0.01015394    -0.00008071    -0.00008446    -0.00022631
N        -0.04630799    -0.04925953     1.32497377     0.00003637     0.00009185     0.00039307
H         0.91875752     0.11066888    -0.54637974     0.00071382     0.00051903    -0.00128002
H         0.87266105    -0.11452733     1.90445096    -0.00053416    -0.00059822     0.00005304
H        -0.90348211    -0.03979640     1.79113839     0.00047204    -0.00036547    -0.00055576
H        -1.02530717     0.08359439    -0.54847579    -0.00019540     0.00017466    -0.00098280
     6
  Step:    13            Position(A)                                  Velocity(au)
C        -0.03670441    -0.00257978    -0.01140681    -0.00008148    -0.00008529    -0.00022987
N        -0.04602754    -0.04875885     1.32713680     0.00006620     0.00009079     0.00039372
H         0.92271282     0.11356156    -0.55357754     0.00071842     0.00053436    -0.00133699
H         0.86921327    -0.11779462     1.90447011    -0.00071712    -0.00059319    -0.00004274
H        -0.90159681    -0.04178271     1.78864605     0.00020547    -0.00035915    -0.00034816
H        -1.02627933     0.08454799    -0.55393386    -0.00015573     0.00017264    -0.00100419
     6
  Step:    14            Position(A)                                  Velocity(au)
C        -0.03715220    -0.00304986    -0.01267623    -0.00008126    -0.00008596    -0.00023220
N        -0.04558163    -0.04826332     1.32929390     0.00009611     0.00008993     0.00039082
H         0.92664050     0.11653221    -0.56105010     0.00070382     0.00054708    -0.00137938
H         0.86479238    -0.12103620     1.90398194    -0.00088646    -0.00058864    -0.00013059
H        -0.90122756    -0.04373721     1.78731810    -0.00007493    -0.00035370    -0.00013458
H        -1.02701594     0.08548875    -0.55949444    -0.00010962     0.00016985    -0.00101956
     6
  Step:    15            Position(A)                                  Velocity(au)
C        -0.03759638    -0.00352336    -0.01395558    -0.00008016    -0.00008646    -0.00023331
N        -0.04497264    -0.04777170     1.33142666     0.00012498     0.00008930     0.00038473
H         0.93043828     0.11956655    -0.56871814     0.00067121     0.00055713    -0.00140728
H         0.85948309    -0.12425582     1.90303673    -0.00103814    -0.00058493    -0.00020789
H        -0.90241923    -0.04566510     1.78716888    -0.00035712    -0.00034917     0.00007787
H        -1.02748252     0.08641234    -0.56512493    -0.00005749     0.00016624    -0.00102892
     6
  Step:    16            Position(A)                                  Velocity(au)
C        -0.03803247    -0.00399930    -0.01523816    -0.00007830    -0.00008676    -0.00023316
N        -0.04420921    -0.04728268     1.33351857     0.00015167     0.00008891     0.00037575
H         0.93401104     0.12265006    -0.57650342     0.00062206     0.00056440    -0.00142095
H         0.85339254    -0.12745932     1.90169910    -0.00116806    -0.00058243    -0.00027206
H        -0.90514905    -0.04757146     1.78817325    -0.00062872    -0.00034545     0.00028205
H        -1.02764723     0.08731427    -0.57079297     0.00000008     0.00016183    -0.00103229
     6
  Step:    17            Position(A)                                  Velocity(au)
C        -0.03845667    -0.00447661    -0.01651717    -0.00007580    -0.00008686    -0.00023173
N        -0.04330626    -0.04679488     1.33555487     0.00017507     0.00008876     0.00036419
H         0.93727262     0.12576744    -0.58432959     0.00055810     0.00056886    -0.00142074
H         0.84665003    -0.13065475     1.90004775    -0.00127212    -0.00058154    -0.00032051
H        -0.90932672    -0.04946043     1.79026762    -0.00087801    -0.00034234     0.00047129
H        -1.02748160     0.08819033    -0.57646636     0.00006241     0.00015659    -0.00102970
     6
  Step:    18            Position(A)                                  Velocity(au)
C        -0.03886581    -0.00495415    -0.01778566    -0.00007278    -0.00008672    -0.00022900
N        -0.04228452    -0.04630693     1.33752231     0.00019419     0.00008884     0.00035031
H         0.94014659     0.12890391    -0.59212244     0.00048125     0.00057057    -0.00140713
H         0.83940735    -0.13385254     1.89817555    -0.00134644    -0.00058271    -0.00035081
H        -0.91480151    -0.05133501     1.79335437    -0.00109476    -0.00033958     0.00063986
H        -1.02696117     0.08903575    -0.58211302     0.00012864     0.00015046    -0.00102118
     6
  Step:    19            Position(A)                                  Velocity(au)
C        -0.03925735    -0.00543068    -0.01903658    -0.00006933    -0.00008635    -0.00022496
N        -0.04116982    -0.04581744     1.33940892     0.00020820     0.00008917     0.00033433
H         0.94256724     0.13204482    -0.59981068     0.00039354     0.00056959    -0.00138077
H         0.83183671    -0.13706563     1.89618823    -0.00138766    -0.00058640    -0.00036084
H        -0.92137111    -0.05319647     1.79730724    -0.00127076    -0.00033685     0.00078321
H        -1.02606633     0.08984565    -0.58770124     0.00019780     0.00014344    -0.00100688
     6
  Step:    20            Position(A)                                  Velocity(au)
C        -0.03962926    -0.00590496    -0.02026281    -0.00006557    -0.00008574    -0.00021963
N        -0.03999192    -0.04532505     1.34120373     0.00021654     0.00008974     0.00031645
H         0.94448000     0.13517588    -0.60732666     0.00029711     0.00056602    -0.00134250
H         0.82412729    -0.14030959     1.89420222    -0.00139335    -0.00059309    -0.00034904
H        -0.92879432    -0.05504416     1.80197855    -0.00140038    -0.00033380     0.00089823
H        -1.02478311     0.09061519    -0.59320016     0.00026878     0.00013555    -0.00098706
     6
  Step:    21            Position(A)                                  Velocity(au)
C        -0.03998005    -0.00637572    -0.02145730    -0.00006158    -0.00008491    -0.00021304
N        -0.03878311    -0.04482837     1.34289675     0.00021892     0.00009055     0.00029686
H         0.94584197     0.13828343    -0.61460741     0.00019416     0.00056007    -0.00129335
H         0.81647947    -0.14360256     1.89234116    -0.00136228    -0.00060325    -0.00031458
H        -0.93680579    -0.05687556     1.80720740    -0.00148078    -0.00033015     0.00098339
H        -1.02310383     0.09133961    -0.59858046     0.00034041     0.00012683    -0.00096214
     6
  Step:    22            Position(A)                                  Velocity(au)
C        -0.04030861    -0.00684178    -0.02261320    -0.00005742    -0.00008388    -0.00020526
N        -0.03757661    -0.04432604     1.34447887     0.00021535     0.00009162     0.00027576
H         0.94662205     0.14135492    -0.62159576     0.00008682     0.00055199    -0.00123458
H         0.80909767    -0.14696501     1.89073157    -0.00129471    -0.00061727    -0.00025751
H        -0.94513131    -0.05868657     1.81282799    -0.00151183    -0.00032565     0.00103862
H        -1.02102751     0.09201447    -0.60381515     0.00041146     0.00011737    -0.00093268
     6
  Step:    23            Position(A)                                  Velocity(au)
C        -0.04061420    -0.00730209    -0.02372407    -0.00005317    -0.00008269    -0.00019640
N        -0.03640496    -0.04381662     1.34594206     0.00020610     0.00009295     0.00025338
H         0.94680073     0.14437927    -0.62824137    -0.00002287     0.00054213    -0.00116760
H         0.80218148    -0.15041934     1.88949741    -0.00119257    -0.00063548    -0.00017891
H        -0.95350142    -0.06047187     1.81867722    -0.00149569    -0.00032017     0.00106514
H        -1.01855996     0.09263574    -0.60888043     0.00048076     0.00010725    -0.00089940
     6
  Step:    24            Position(A)                                  Velocity(au)
C        -0.04089636    -0.00775579    -0.02478403    -0.00004887    -0.00008137    -0.00018657
N        -0.03529855    -0.04329868     1.34727954     0.00019171     0.00009455     0.00022998
H         0.94636926     0.14734726    -0.63450153    -0.00013308     0.00053088    -0.00109387
H         0.79591583    -0.15398913     1.88875401    -0.00105948    -0.00065801    -0.00008093
H        -0.96166356    -0.06222549     1.82460128    -0.00143641    -0.00031363     0.00106523
H        -1.01571357     0.09319991    -0.61375646     0.00054721     0.00009658    -0.00086310
     6
  Step:    25            Position(A)                                  Velocity(au)
C        -0.04115478    -0.00820225    -0.02578790    -0.00004453    -0.00007999    -0.00017592
N        -0.03428429    -0.04277078     1.34848606     0.00017291     0.00009642     0.00020586
H         0.94532858     0.15025181    -0.64034152    -0.00024223     0.00051867    -0.00101488
H         0.79046167    -0.15769815     1.88860213    -0.00090058    -0.00068484     0.00003330
H        -0.96939071    -0.06394123     1.83046059    -0.00133922    -0.00030606     0.00104184
H        -1.01250682     0.09370410    -0.61842793     0.00060983     0.00008548    -0.00082467
     6
  Step:    26            Position(A)                                  Velocity(au)
C        -0.04138929    -0.00864112    -0.02673123    -0.00004018    -0.00007858    -0.00016458
N        -0.03338464    -0.04223147     1.34955811     0.00015057     0.00009856     0.00018135
H         0.94368809     0.15308816    -0.64573479    -0.00034897     0.00050591    -0.00093208
H         0.78594775    -0.16156930     1.88912264    -0.00072224    -0.00071570     0.00015984
H        -0.97648684    -0.06561311     1.83613294    -0.00121003    -0.00029752     0.00099832
H        -1.00896365     0.09414609    -0.62288433     0.00066776     0.00007407    -0.00078496
     6
  Step:    27            Position(A)                                  Velocity(au)
C        -0.04159974    -0.00907235    -0.02761035    -0.00003582    -0.00007720    -0.00015268
N        -0.03261704    -0.04167945     1.35049413     0.00012560     0.00010094     0.00015679
H         0.94146431     0.15585389    -0.65066259    -0.00045221     0.00049304    -0.00084677
H         0.78246415    -0.16562328     1.89037205    -0.00053174    -0.00075012     0.00029406
H        -0.98278963    -0.06723570     1.84151518    -0.00105486    -0.00028812     0.00093812
H        -1.00511262     0.09452425    -0.62712000     0.00072027     0.00006243    -0.00074483
     6
  Step:    28            Position(A)                                  Velocity(au)
C        -0.04178596    -0.00949615    -0.02842224    -0.00003142    -0.00007590    -0.00014032
N        -0.03199359    -0.04111353     1.35129460     0.00009895     0.00010353     0.00013253
H         0.93867956     0.15854887    -0.65511334    -0.00055105     0.00048042    -0.00076013
H         0.78005840    -0.16987734     1.89237956    -0.00033675    -0.00078737     0.00043100
H        -0.98817009    -0.06880424     1.84652316    -0.00087949    -0.00027799     0.00086455
H        -1.00098625     0.09483752    -0.63113384     0.00076673     0.00005066    -0.00070503
     6
  Step:    29            Position(A)                                  Velocity(au)
C        -0.04194774    -0.00991298    -0.02916449    -0.00002698    -0.00007471    -0.00012759
N        -0.03152113    -0.04053277     1.35196200     0.00007152     0.00010628     0.00010891
H         0.93536086     0.16117504    -0.65908181    -0.00064477     0.00046841    -0.00067315
H         0.77873429    -0.17434421     1.89514575    -0.00014488    -0.00082659     0.00056558
H        -0.99253083    -0.07031476     1.85109087    -0.00068928    -0.00026725     0.00078070
H        -0.99662037     0.09508531    -0.63492888     0.00080659     0.00003882    -0.00066620
     6
  Step:    30            Position(A)                                  Velocity(au)
C        -0.04208477    -0.01032355    -0.02983519    -0.00002248    -0.00007368    -0.00011455
N        -0.03120155    -0.03993656     1.35250068     0.00004415     0.00010912     0.00008623
H         0.93153906     0.16373625    -0.66256819    -0.00073273     0.00045729    -0.00058668
H         0.77845394    -0.17903142     1.89864310     0.00003669    -0.00086673     0.00069291
H        -0.99580349    -0.07176386     1.85516903    -0.00048903    -0.00025599     0.00068936
H        -0.99205363     0.09526741    -0.63851168     0.00083936     0.00002696    -0.00062890
     6
  Step:    31            Position(A)                                  Velocity(au)
C        -0.04219661    -0.01072872    -0.03043272    -0.00001789    -0.00007282    -0.00010124
N        -0.03103229    -0.03932460     1.35291669     0.00001759     0.00011200     0.00006476
H         0.92724838     0.16623792    -0.66557730    -0.00081435     0.00044731    -0.00050143
H         0.77914055    -0.18394029     1.90281740     0.00020154    -0.00090666     0.00080848
H        -0.99794513    -0.07314901     1.85872321    -0.00028298    -0.00024435     0.00059300
H        -0.98732730     0.09538381    -0.64189177     0.00086456     0.00001511    -0.00059357
     6
  Step:    32            Position(A)                                  Velocity(au)
C        -0.04228272    -0.01112954    -0.03095568    -0.00001319    -0.00007217    -0.00008768
N        -0.03100693    -0.03869701     1.35321740    -0.00000755     0.00011482     0.00004470
H         0.92252611     0.16868691    -0.66811783    -0.00088906     0.00043869    -0.00041802
H         0.78068448    -0.18906600     1.90759105     0.00034434    -0.00094525     0.00090839
H        -0.99893540    -0.07446825     1.86173212    -0.00007493    -0.00023241     0.00049380
H        -0.98248496     0.09543468    -0.64508107     0.00088176     0.00000329    -0.00056056
     6
  Step:    33            Position(A)                                  Velocity(au)
C        -0.04234250    -0.01152715    -0.03140276    -0.00000837    -0.00007173    -0.00007389
N        -0.03111585    -0.03805428     1.35341125    -0.00003075     0.00011754     0.00002622
H         0.91741261     0.17109122    -0.67020194    -0.00095628     0.00043163    -0.00033703
H         0.78294998    -0.19439775     1.91286701     0.00046103    -0.00098147     0.00098953
H        -0.99877407    -0.07572018     1.86418620     0.00013168    -0.00022025     0.00039377
H        -0.97757226     0.09542026    -0.64809329     0.00089059    -0.00000849    -0.00053013
     6
  Step:    34            Position(A)                                  Velocity(au)
C        -0.04237529    -0.01192278    -0.03177273    -0.00000343    -0.00007152    -0.00005985
N        -0.03134693    -0.03739725     1.35350730    -0.00005159     0.00012007     0.00000938
H         0.91195130     0.17345994    -0.67184485    -0.00101542     0.00042628    -0.00025899
H         0.78578266    -0.19991932     1.91853352     0.00054889    -0.00101437     0.00104964
H        -0.99747923    -0.07690384     1.86608653     0.00033365    -0.00020795     0.00029474
H        -0.97263658     0.09534081    -0.65094345     0.00089073    -0.00002024    -0.00050248
     6
  Step:    35            Position(A)                                  Velocity(au)
C        -0.04238044    -0.01231773    -0.03206436     0.00000162    -0.00007156    -0.00004558
N        -0.03168613    -0.03672708     1.35351491    -0.00006979     0.00012238    -0.00000579
H         0.90618879     0.17580311    -0.67306470    -0.00106586     0.00042284    -0.00018443
H         0.78901712    -0.20560998     1.92446909     0.00060652    -0.00104322     0.00108734
H        -0.99508606    -0.07801875     1.86744410     0.00052795    -0.00019559     0.00019847
H        -0.96772664     0.09519653    -0.65364742     0.00088197    -0.00003198    -0.00047771
     6
  Step:    36            Position(A)                                  Velocity(au)
C        -0.04235742    -0.01271337    -0.03227638     0.00000675    -0.00007184    -0.00003108
N        -0.03211804    -0.03604514     1.35344332    -0.00008514     0.00012442    -0.00001934
H         0.90017498     0.17813173    -0.67388252    -0.00110698     0.00042146    -0.00011387
H         0.79248394    -0.21144553     1.93054720     0.00063372    -0.00106748     0.00110209
H        -0.99164604    -0.07906491     1.86827934     0.00071164    -0.00018327     0.00010665
H        -0.96289191     0.09498752    -0.65622152     0.00086423    -0.00004372    -0.00045586
     6
  Step:    37            Position(A)                                  Velocity(au)
C        -0.04230584    -0.01311112    -0.03240756     0.00001195    -0.00007238    -0.00001633
N        -0.03262639    -0.03535294     1.35330135    -0.00009750     0.00012619    -0.00003136
H         0.89396309     0.18045780    -0.67432225    -0.00113819     0.00042234    -0.00004784
H         0.79601604    -0.21739945     1.93664081     0.00063137    -0.00108684     0.00109414
H        -0.98722656    -0.08004282     1.86862193     0.00088184    -0.00017108     0.00002096
H        -0.95818194     0.09471371    -0.65868206     0.00083754    -0.00005551    -0.00043691
     6
  Step:    38            Position(A)                                  Velocity(au)
C        -0.04222554    -0.01351242    -0.03245664     0.00001714    -0.00007319    -0.00000135
N        -0.03319443    -0.03465205     1.35309710    -0.00010682     0.00012767    -0.00004201
H         0.88760946     0.18279431    -0.67441065    -0.00115895     0.00042566     0.00001314
H         0.79945422    -0.22344415     1.94262648     0.00060126    -0.00110121     0.00106442
H        -0.98191059    -0.08095357     1.86851068     0.00103572    -0.00015913    -0.00005695
H        -0.95364557     0.09437475    -0.66104497     0.00080211    -0.00006739    -0.00042075
     6
  Step:    39            Position(A)                                  Velocity(au)
C        -0.04211666    -0.01391879    -0.03242241     0.00002229    -0.00007427     0.00001386
N        -0.03380523    -0.03394399     1.35283770    -0.00011308     0.00012889    -0.00005149
H         0.88117315     0.18515530    -0.67417721    -0.00116880     0.00043162     0.00006860
H         0.80265141    -0.22955220     1.94838756     0.00054581    -0.00111070     0.00101435
H        -0.97579647    -0.08179892     1.86799347     0.00117052    -0.00014755    -0.00012541
H        -0.94932999     0.09396996    -0.66332540     0.00075832    -0.00007945    -0.00040721
     6
  Step:    40            Position(A)                                  Velocity(au)
C        -0.04197969    -0.01433177    -0.03230375     0.00002731    -0.00007564     0.00002927
N        -0.03444191    -0.03323016     1.35252911    -0.00011630     0.00012987    -0.00006000
H         0.87471544     0.18755587    -0.67365388    -0.00116742     0.00044042     0.00011811
H         0.80547551    -0.23569725     1.95381662     0.00046791    -0.00111561     0.00094576
H        -0.96899762    -0.08258131     1.86712717     0.00128354    -0.00013648    -0.00018282
H        -0.94527989     0.09349823    -0.66553725     0.00070670    -0.00009177    -0.00039604
     6
  Step:    41            Position(A)                                  Velocity(au)
C        -0.04181547    -0.01475294    -0.03209967     0.00003215    -0.00007730     0.00004485
N        -0.03508780    -0.03251177     1.35217606    -0.00011654     0.00013066    -0.00006778
H         0.86829908     0.19001220    -0.67287473    -0.00115457     0.00045226     0.00016131
H         0.80781149    -0.24185498     1.95881724     0.00037074    -0.00111638     0.00086074
H        -0.96164176    -0.08330400     1.86597737     0.00137230    -0.00012607    -0.00022764
H        -0.94153660     0.09295793    -0.66769282     0.00064794    -0.00010445    -0.00038691
     6
  Step:    42            Position(A)                                  Velocity(au)
C        -0.04162529    -0.01518393    -0.03180937     0.00003672    -0.00007926     0.00006056
N        -0.03572662    -0.03178975     1.35178193    -0.00011387     0.00013131    -0.00007507
H         0.86198774     0.19254151    -0.67187566    -0.00113018     0.00046735     0.00019791
H         0.80956249    -0.24800391     1.96330519     0.00025758    -0.00111357     0.00076152
H        -0.95386973    -0.08397102     1.86461776     0.00143457    -0.00011644    -0.00025846
H        -0.93813721     0.09234680    -0.66980241     0.00058285    -0.00011761    -0.00037943
     6
  Step:    43            Position(A)                                  Velocity(au)
C        -0.04141083    -0.01562639    -0.03143229     0.00004095    -0.00008153     0.00007637
N        -0.03634258    -0.03106477     1.35134881    -0.00010839     0.00013188    -0.00008210
H         0.85584512     0.19516211    -0.67069386    -0.00109432     0.00048586     0.00022774
H         0.81064991    -0.25412582     1.96720878     0.00013169    -0.00110781     0.00065037
H        -0.94583367    -0.08458714     1.86312924     0.00146845    -0.00010775    -0.00027408
H        -0.93511388     0.09166190    -0.67187391     0.00051240    -0.00013140    -0.00037314
     6
  Step:    44            Position(A)                                  Velocity(au)
C        -0.04117420    -0.01608199    -0.03096816     0.00004477    -0.00008411     0.00009220
N        -0.03692050    -0.03033714     1.35087758    -0.00010022     0.00013242    -0.00008908
H         0.84993397     0.19789321    -0.66936714    -0.00104724     0.00050797     0.00025074
H         0.81101299    -0.26020625     1.97046891    -0.00000379    -0.00109981     0.00052952
H        -0.93769494    -0.08515785     1.86159878     0.00147255    -0.00010009    -0.00027354
H        -0.93249319     0.09089945    -0.67391246     0.00043762    -0.00014596    -0.00036751
     6