 Fermi distribution function

Calculation with static geometry


********************************************************************************
 iSCC Total electronic   Diff electronic      SCC error    
   13   -0.52728795E+01   -0.20777158E-10    0.34063581E-07
********************************************************************************

 Total charge:     1.00000000

 Atomic gross charges (e)
 Atom           Charge
    1       0.31045080
    2      -0.20265432
    3       0.17612522
    4       0.26010214
    5       0.27430113
    6       0.18167504

Nr. of electrons (up):     12.00000000
Atom populations (up)
 Atom       Population
    1       3.68954920
    2       5.20265432
    3       0.82387478
    4       0.73989786
    5       0.72569887
    6       0.81832496

l-shell populations (up)
 Atom Sh.   l       Population
    1   1   0       1.40481960
    1   2   1       2.28472960
    2   1   0       1.51359777
    2   2   1       3.68905655
    3   1   0       0.82387478
    4   1   0       0.73989786
    5   1   0       0.72569887
    6   1   0       0.81832496

Orbital populations (up)
 Atom Sh.   l   m       Population  Label
    1   1   0   0       1.40481960  s
    1   2   1  -1       0.45679498  p_y
    1   2   1   0       0.86795093  p_z
    1   2   1   1       0.95998369  p_x
    2   1   0   0       1.51359777  s
    2   2   1  -1       1.37050875  p_y
    2   2   1   0       1.09180100  p_z
    2   2   1   1       1.22674680  p_x
    3   1   0   0       0.82387478  s
    4   1   0   0       0.73989786  s
    5   1   0   0       0.72569887  s
    6   1   0   0       0.81832496  s

Fermi level:                        -0.5117277558 H          -13.9248 eV
Band energy:                        -8.6515292429 H         -235.4201 eV
TS:                                  0.0000000000 H            0.0000 eV
Band free energy (E-TS):            -8.6515292429 H         -235.4201 eV
Extrapolated E(0K):                 -8.6515292429 H         -235.4201 eV
Input / Output electrons (q):     12.0000000000     12.0000000000

Energy H0:                          -5.4080362441 H         -147.1602 eV
Energy SCC:                          0.1351567355 H            3.6778 eV
Total Electronic energy:            -5.2728795086 H         -143.4824 eV
Repulsive energy:                    0.1356854954 H            3.6922 eV
Total energy:                       -5.1371940132 H         -139.7902 eV
Extrapolated to 0:                  -5.1371940132 H         -139.7902 eV
Total Mermin free energy:           -5.1371940132 H         -139.7902 eV
Force related energy:               -5.1371940132 H         -139.7902 eV

SCC converged

Excitation Energy:                   0.0938443617 H            2.5536 eV

Total Forces
    1     -0.003704159514     -0.007394670173      0.044946392275
    2     -0.019283692230     -0.007317947919     -0.053549734427
    3     -0.005513252349     -0.007230529416      0.003075603073
    4      0.004957844674      0.009097125210      0.006002355020
    5      0.016635707532      0.000057773631     -0.004109348388
    6      0.006907551887      0.012788248666      0.003634732446

Maximal derivative component:        0.535497E-01 au


