 Fermi distribution function

Calculation with static geometry


********************************************************************************
 iSCC Total electronic   Diff electronic      SCC error    
    8   -0.55260151E+01   -0.18898838E-09    0.50643572E-06
********************************************************************************

 Total charge:     1.00000000

 Atomic gross charges (e)
 Atom           Charge
    1       0.15129742
    2      -0.00887246
    3       0.16050368
    4       0.26189999
    5       0.26800551
    6       0.16716587

Nr. of electrons (up):     12.00000000
Atom populations (up)
 Atom       Population
    1       3.84870258
    2       5.00887246
    3       0.83949632
    4       0.73810001
    5       0.73199449
    6       0.83283413

l-shell populations (up)
 Atom Sh.   l       Population
    1   1   0       1.26672528
    1   2   1       2.58197730
    2   1   0       1.40166609
    2   2   1       3.60720637
    3   1   0       0.83949632
    4   1   0       0.73810001
    5   1   0       0.73199449
    6   1   0       0.83283413

Orbital populations (up)
 Atom Sh.   l   m       Population  Label
    1   1   0   0       1.26672528  s
    1   2   1  -1       0.65642204  p_y
    1   2   1   0       0.90900704  p_z
    1   2   1   1       1.01654821  p_x
    2   1   0   0       1.40166609  s
    2   2   1  -1       1.34123498  p_y
    2   2   1   0       1.10569598  p_z
    2   2   1   1       1.16027540  p_x
    3   1   0   0       0.83949632  s
    4   1   0   0       0.73810001  s
    5   1   0   0       0.73199449  s
    6   1   0   0       0.83283413  s

Fermi level:                        -0.4809946142 H          -13.0885 eV
Band energy:                        -9.1193660842 H         -248.1506 eV
TS:                                  0.0000000000 H            0.0000 eV
Band free energy (E-TS):            -9.1193660842 H         -248.1506 eV
Extrapolated E(0K):                 -9.1193660842 H         -248.1506 eV
Input / Output electrons (q):     12.0000000000     12.0000000000

Energy H0:                          -5.6619736102 H         -154.0701 eV
Energy SCC:                          0.1359584825 H            3.6996 eV
Total Electronic energy:            -5.5260151277 H         -150.3705 eV
Repulsive energy:                    0.2487286365 H            6.7683 eV
Total energy:                       -5.2772864912 H         -143.6023 eV
Extrapolated to 0:                  -5.2772864912 H         -143.6023 eV
Total Mermin free energy:           -5.2772864912 H         -143.6023 eV
Force related energy:               -5.2772864912 H         -143.6023 eV

SCC converged

Total Forces
    1      0.022876830063     -0.012396884334      0.008642842442
    2      0.018767338796      0.006818389354      0.010225645563
    3     -0.015367325471      0.002771324906      0.005708895051
    4     -0.019480720040      0.000625641963     -0.008757656857
    5      0.004707150227     -0.002579952504     -0.008356926033
    6     -0.011503273575      0.004761480616     -0.007462800166

Maximal derivative component:        0.228768E-01 au


