|===============================================================================
|
|  DFTB+ release 20.1
|
|  Copyright (C) 2006 - 2020  DFTB+ developers group
|
|===============================================================================
|
|  When publishing results obtained with DFTB+, please cite the following
|  reference:
|
|  * DFTB+, a software package for efficient approximate density functional
|    theory based atomistic simulations, J. Chem. Phys. 152, 124101 (2020).
|    [doi: 10.1063/1.5143190]
|
|  You should also cite additional publications crediting the parametrization
|  data you use. Please consult the documentation of the SK-files for the
|  references.
|
|===============================================================================

Reading input file 'dftb_in.hsd'
Parser version: 8

--------------------------------------------------------------------------------
Reading SK-files:
Done.


Processed input in HSD format written to 'dftb_pin.hsd'

Starting initialization...
--------------------------------------------------------------------------------
OpenMP threads:              1
Chosen random seed:          279853605
Mode:                        Static calculation
Self consistent charges:     Yes
SCC-tolerance:                 0.100000E-05
Max. scc iterations:                    100
Shell resolved Hubbard:      No
Spin polarisation:           No
Nr. of up electrons:             6.000000
Nr. of down electrons:           6.000000
Periodic boundaries:         No
Electronic solver:           Relatively robust
Mixer:                       Broyden mixer
Mixing parameter:                  0.200000
Maximal SCC-cycles:                     100
Nr. of chrg. vec. in memory:              0
Electronic temperature:        0.100000E-07 H      0.272114E-06 eV
Initial charges:             Set automatically (system chrg:   0.100E+01)
Included shells:             C:  s, p
                             N:  s, p
                             H:  s
Extra options:
                             Mulliken analysis
                             Force calculation
Force type                   original
                             Eigenvector printing

--------------------------------------------------------------------------------

***  Geometry step: 0

 iSCC Total electronic   Diff electronic      SCC error    
    1   -0.55220560E+01    0.00000000E+00    0.54938241E+00
    2   -0.55240055E+01   -0.19495189E-02    0.39135046E+00
    3   -0.55259489E+01   -0.19434640E-02    0.34864576E-01
    4   -0.55260149E+01   -0.65936276E-04    0.41448542E-02
    5   -0.55260149E+01   -0.22254450E-07    0.19372206E-02
    6   -0.55260151E+01   -0.23255856E-06    0.89877960E-04
    7   -0.55260151E+01   -0.18736213E-09    0.64689866E-04
    8   -0.55260151E+01   -0.18898838E-09    0.50643572E-06
>> Charges saved for restart in charges.bin

Total Energy:                       -5.2772864912 H         -143.6023 eV
Extrapolated to 0:                  -5.2772864912 H         -143.6023 eV
Total Mermin free energy:           -5.2772864912 H         -143.6023 eV
Force related energy:               -5.2772864912 H         -143.6023 eV

--------------------------------------------------------------------------------
DFTB+ running times                          cpu [s]             wall clock [s]
--------------------------------------------------------------------------------
SCC                                    +     0.01  ( 80.0%)      0.04  ( 84.8%)
--------------------------------------------------------------------------------
Missing                                +     0.00  ( 20.0%)      0.01  ( 15.2%)
Total                                  =     0.02  (100.0%)      0.05  (100.0%)
--------------------------------------------------------------------------------
