     6
  Step:     0            Position(A)                                  Velocity(au)
C        -0.03249900     0.01395185     0.00803968     0.00007003    -0.00007788     0.00018617
N        -0.05160363    -0.04924276     1.30635803     0.00011708    -0.00003469    -0.00012997
H         0.91934408     0.01505770    -0.53245501    -0.00071463     0.00032897     0.00014582
H         0.86170536    -0.16264008     1.83976288    -0.00109580     0.00044072    -0.00060434
H        -0.89927418    -0.06104082     1.83450198    -0.00053295     0.00023915    -0.00011896
H        -0.99035063     0.05688862    -0.49918078    -0.00011807     0.00040130     0.00016511
     6
  Step:     1            Position(A)                                  Velocity(au)
C        -0.03210553     0.01352837     0.00898233     0.00007323    -0.00007699     0.00015800
N        -0.05091383    -0.04943680     1.30573507     0.00013374    -0.00003622    -0.00009740
H         0.91555686     0.01687955    -0.53188930    -0.00066488     0.00033751     0.00005779
H         0.85540195    -0.16022210     1.83637687    -0.00119696     0.00044201    -0.00062616
H        -0.90255442    -0.05974405     1.83418226    -0.00065876     0.00023542    -0.00000332
H        -0.99125395     0.05909498    -0.49861694    -0.00021046     0.00040581     0.00004230
     6
  Step:     2            Position(A)                                  Velocity(au)
C        -0.03169815     0.01310985     0.00976774     0.00007510    -0.00007611     0.00012880
N        -0.05014092    -0.04963888     1.30529281     0.00014732    -0.00003763    -0.00006405
H         0.91207242     0.01874904    -0.53182293    -0.00060484     0.00034661    -0.00003645
H         0.84861441    -0.15780584     1.83291471    -0.00127189     0.00044017    -0.00063149
H        -0.90647893    -0.05846612     1.83446570    -0.00076724     0.00023238     0.00010052
H        -0.99265245     0.06132687    -0.49871813    -0.00029816     0.00041079    -0.00007743
     6
  Step:     3            Position(A)                                  Velocity(au)
C        -0.03128435     0.01269615     0.01039064     0.00007558    -0.00007527     0.00009868
N        -0.04930308    -0.04984824     1.30503477     0.00015737    -0.00003888    -0.00003017
H         0.90894368     0.02066936    -0.53228782    -0.00053577     0.00035631    -0.00013615
H         0.84149537    -0.15540933     1.82947225    -0.00131738     0.00043488    -0.00061831
H        -0.91094329    -0.05720320     1.83528138    -0.00085534     0.00023002     0.00019061
H        -0.99451398     0.06358647    -0.49946359    -0.00037898     0.00041607    -0.00019283
     6
  Step:     4            Position(A)                                  Velocity(au)
C        -0.03087201     0.01228712     0.01084643     0.00007460    -0.00007444     0.00006777
N        -0.04842066    -0.05006393     1.30496300     0.00016356    -0.00003995     0.00000394
H         0.90621592     0.02264386    -0.53331121    -0.00045921     0.00036662    -0.00024037
H         0.83421406    -0.15305219     1.82615592    -0.00133065     0.00042587    -0.00058483
H        -0.91582874    -0.05595179     1.83654933    -0.00092085     0.00022825     0.00026559
H        -0.99679514     0.06587499    -0.50082599    -0.00045100     0.00042148    -0.00030275
     6
  Step:     5            Position(A)                                  Velocity(au)
C        -0.03046912     0.01188260     0.01113125     0.00007217    -0.00007365     0.00003621
N        -0.04751564    -0.05028480     1.30507785     0.00016563    -0.00004078     0.00003797
H         0.90392516     0.02467597    -0.53491470    -0.00037698     0.00037756    -0.00034797
H         0.82695323    -0.15075514     1.82308088    -0.00130957     0.00041301    -0.00052967
H        -0.92100689    -0.05470877     1.83818386    -0.00096243     0.00022700     0.00032467
H        -0.99944279     0.06819268    -0.50277222    -0.00051258     0.00042685    -0.00040620
     6
  Step:     6            Position(A)                                  Velocity(au)
C        -0.03008348     0.01148240     0.01124204     0.00006835    -0.00007289     0.00000416
N        -0.04661095    -0.05050956     1.30537789     0.00016347    -0.00004138     0.00007159
H         0.90209687     0.02676917    -0.53711328    -0.00029111     0.00038913    -0.00045770
H         0.81990518    -0.14853947     1.82036852    -0.00125293     0.00039626    -0.00045202
H        -0.92634462    -0.05347152     1.84009676    -0.00097964     0.00022618     0.00036767
H        -1.00239583     0.07053890    -0.50526428    -0.00056246     0.00043203    -0.00050239
     6
  Step:     7            Position(A)                                  Velocity(au)
C        -0.02972242     0.01108632     0.01117666     0.00006326    -0.00007218    -0.00002821
N        -0.04572986    -0.05073679     1.30585989     0.00015710    -0.00004171     0.00010448
H         0.90074501     0.02892689    -0.53991468    -0.00020377     0.00040133    -0.00056818
H         0.81326602    -0.14642629     1.81814297    -0.00116066     0.00037574    -0.00035176
H        -0.93170861    -0.05223791     1.84220032    -0.00097279     0.00022572     0.00039491
H        -1.00558720     0.07291223    -0.50826038    -0.00059972     0.00043689    -0.00059071
     6
  Step:     8            Position(A)                                  Velocity(au)
C        -0.02939258     0.01069409     0.01093388     0.00005703    -0.00007151    -0.00006074
N        -0.04489508    -0.05096506     1.30651899     0.00014669    -0.00004177     0.00013636
H         0.89987133     0.03115246    -0.54331888    -0.00011719     0.00041413    -0.00067798
H         0.80722851    -0.14443566     1.81652661    -0.00103408     0.00035171    -0.00022966
H        -0.93696936    -0.05100626     1.84440994    -0.00094287     0.00022552     0.00040714
H        -1.00894591     0.07531056    -0.51171597    -0.00062381     0.00044132    -0.00067077
     6
  Step:     9            Position(A)                                  Velocity(au)
C        -0.02909970     0.01030544     0.01051341     0.00004984    -0.00007090    -0.00009325
N        -0.04412809    -0.05119294     1.30734893     0.00013252    -0.00004159     0.00016702
H         0.89946532     0.03344900    -0.54731793    -0.00003360     0.00042749    -0.00078567
H         0.80197429    -0.14258575     1.81563523    -0.00087597     0.00032460    -0.00008738
H        -0.94200430    -0.04977536     1.84664615    -0.00089137     0.00022551     0.00040546
H        -1.01239894     0.07773128    -0.51558490    -0.00063451     0.00044525    -0.00074235
     6
  Step:    10            Position(A)                                  Velocity(au)
C        -0.02884849     0.00992005     0.00991589     0.00004188    -0.00007035    -0.00012557
N        -0.04344831    -0.05141909     1.30834240     0.00011505    -0.00004117     0.00019630
H         0.89950447     0.03581940    -0.55189604     0.00004488     0.00044136    -0.00088983
H         0.79766553    -0.14089196     1.81557267    -0.00069062     0.00029498     0.00007241
H        -0.94670047    -0.04854434     1.84883631    -0.00082022     0.00022563     0.00039120
H        -1.01587288     0.08017136    -0.51982026    -0.00063186     0.00044860    -0.00080538
     6
  Step:    11            Position(A)                                  Velocity(au)
C        -0.02864256     0.00953757     0.00914287     0.00003337    -0.00006987    -0.00015754
N        -0.04287242    -0.05164232     1.30949142     0.00009482    -0.00004056     0.00022410
H         0.89995511     0.03826615    -0.55702984     0.00011629     0.00045564    -0.00098909
H         0.79443664    -0.13936619     1.81642549    -0.00048377     0.00026355     0.00024609
H        -0.95095646    -0.04731271     1.85091580    -0.00073162     0.00022582     0.00036589
H        -1.01929528     0.08262742    -0.52437515    -0.00061613     0.00045129    -0.00085991
     6
  Step:    12            Position(A)                                  Velocity(au)
C        -0.02848437     0.00915762     0.00819685     0.00002450    -0.00006945    -0.00018898
N        -0.04241369    -0.05186168     1.31078774     0.00007249    -0.00003979     0.00025040
H         0.90077338     0.04079121    -0.56268876     0.00017889     0.00047022    -0.00108217
H         0.79238679    -0.13801618     1.81825796    -0.00026240     0.00023109     0.00042922
H        -0.95468371    -0.04608022     1.85282880    -0.00062799     0.00022602     0.00033118
H        -1.02259592     0.08509575    -0.52920333    -0.00058780     0.00045328    -0.00090606
     6
  Step:    13            Position(A)                                  Velocity(au)
C        -0.02837528     0.00877986     0.00708128     0.00001548    -0.00006910    -0.00021969
N        -0.04208158    -0.05207640     1.31222307     0.00004880    -0.00003890     0.00027519
H         0.90190662     0.04339590    -0.56883551     0.00023117     0.00048494    -0.00116781
H         0.79157409    -0.13684516     1.82110799    -0.00003439     0.00019844     0.00061666
H        -0.95780740    -0.04484694     1.85452877    -0.00051188     0.00022619     0.00028878
H        -1.02570781     0.08757239    -0.53425958    -0.00054752     0.00045449    -0.00094401
     6
  Step:    14            Position(A)                                  Velocity(au)
C        -0.02831554     0.00840395     0.00580065     0.00000649    -0.00006879    -0.00024946
N        -0.04188137    -0.05228602     1.31378930     0.00002453    -0.00003795     0.00029850
H         0.90329480     0.04608064    -0.57542652     0.00027191     0.00049961    -0.00124488
H         0.79201172    -0.13585170     1.82498415     0.00019185     0.00016645     0.00080286
H        -0.96026694    -0.04361314     1.85597864    -0.00038594     0.00022625     0.00024043
H        -1.02856795     0.09005300    -0.53949997    -0.00049605     0.00045482    -0.00097395
     6
  Step:    15            Position(A)                                  Velocity(au)
C        -0.02830445     0.00802959     0.00436063    -0.00000228    -0.00006853    -0.00027805
N        -0.04181406    -0.05249028     1.31547855     0.00000046    -0.00003697     0.00032034
H         0.90487214     0.04884481    -0.58241246     0.00030019     0.00051401    -0.00131229
H         0.79366650    -0.13502983     1.82986418     0.00040786     0.00013591     0.00098208
H        -0.96201657    -0.04237936     1.85715098    -0.00025298     0.00022618     0.00018793
H        -1.03111786     0.09253283    -0.54488178    -0.00043425     0.00045420    -0.00099607
     6
  Step:    16            Position(A)                                  Velocity(au)
C        -0.02834041     0.00765658     0.00276815    -0.00001069    -0.00006828    -0.00030520
N        -0.04187638    -0.05268917     1.31728302    -0.00002264    -0.00003599     0.00034070
H         0.90656879     0.05168656    -0.58973876     0.00031542     0.00052787    -0.00136910
H         0.79645999    -0.13436940     1.83569500     0.00060559     0.00010756     0.00114875
H        -0.96302597    -0.04114635     1.85802826    -0.00011592     0.00022592     0.00013311
H        -1.03330396     0.09500665    -0.55036340    -0.00036308     0.00045251    -0.00101052
     6
  Step:    17            Position(A)                                  Velocity(au)
C        -0.02842102     0.00728479     0.00103158    -0.00001859    -0.00006804    -0.00033062
N        -0.04206103    -0.05288285     1.31919479    -0.00004405    -0.00003505     0.00035951
H         0.90831259     0.05460263    -0.59734616     0.00031730     0.00054091    -0.00141446
H         0.80027211    -0.13385664     1.84239443     0.00077786     0.00008199     0.00129775
H        -0.96328097    -0.03991509     1.85860293     0.00002214     0.00022543     0.00007786
H        -1.03507819     0.09746868    -0.55590427    -0.00028364     0.00044964    -0.00101749
     6
  Step:    18            Position(A)                                  Velocity(au)
C        -0.02854320     0.00691419    -0.00083912    -0.00002586    -0.00006779    -0.00035399
N        -0.04235702    -0.05307163     1.32120554    -0.00006314    -0.00003417     0.00037666
H         0.91003080     0.05758825    -0.60517149     0.00030592     0.00055282    -0.00144771
H         0.80494702    -0.13347488     1.84985435     0.00091876     0.00005966     0.00142468
H        -0.96278437    -0.03868671     1.85887775     0.00015801     0.00022470     0.00002407
H        -1.03639864     0.09991256    -0.56146488    -0.00019716     0.00044552    -0.00101716
     6
  Step:    19            Position(A)                                  Velocity(au)
C        -0.02870325     0.00654486    -0.00283230    -0.00003239    -0.00006750    -0.00037500
N        -0.04275020    -0.05325587     1.32330613    -0.00007936    -0.00003336     0.00039195
H         0.91165178     0.06063689    -0.61314843     0.00028161     0.00056333    -0.00146835
H         0.81030069    -0.13320542     1.85794534     0.00102393     0.00004088     0.00152611
H        -0.96155627    -0.03746240     1.85886568     0.00028830     0.00022371    -0.00002630
H        -1.03723030     0.10233165    -0.56700693    -0.00010501     0.00044005    -0.00100979
     6
  Step:    20            Position(A)                                  Velocity(au)
C        -0.02889700     0.00617700    -0.00493471    -0.00003812    -0.00006716    -0.00039335
N        -0.04322374    -0.05343600     1.32548635    -0.00009228    -0.00003262     0.00040519
H         0.91310644     0.06374073    -0.62120837     0.00024505     0.00057218    -0.00147611
H         0.81613002    -0.13302837     1.86652205     0.00109071     0.00002580     0.00159968
H        -0.95963561    -0.03624341     1.85859047     0.00040956     0.00022247    -0.00007131
H        -1.03754554     0.10471866    -0.57249351    -0.00000864     0.00043318    -0.00099571
     6
  Step:    21            Position(A)                                  Velocity(au)
C        -0.02911990     0.00581088    -0.00713148    -0.00004298    -0.00006675    -0.00040878
N        -0.04375881    -0.05361243     1.32773462    -0.00010161    -0.00003195     0.00041610
H         0.91433009     0.06689060    -0.62928167     0.00019724     0.00057918    -0.00147099
H         0.82222166    -0.13292346     1.87542914     0.00111815     0.00001440     0.00164419
H        -0.95707993    -0.03503086     1.85808628     0.00051838     0.00022103    -0.00010908
H        -1.03732479     0.10706606    -0.57788955     0.00009036     0.00042487    -0.00097532
     6
  Step:    22            Position(A)                                  Velocity(au)
C        -0.02936712     0.00544686    -0.00940629    -0.00004693    -0.00006627    -0.00042106
N        -0.04433521    -0.05378554     1.33003792    -0.00010715    -0.00003135     0.00042443
H         0.91526401     0.07007618    -0.63729917     0.00013943     0.00058414    -0.00145327
H         0.82836118    -0.13287084     1.88450736     0.00110693     0.00000655     0.00165955
H        -0.95396513    -0.03382564     1.85739729     0.00061151     0.00021944    -0.00013785
H        -1.03655707     0.10936623    -0.58316231     0.00019038     0.00041517    -0.00094916
     6
  Step:    23            Position(A)                                  Velocity(au)
C        -0.02963369     0.00508533    -0.01174165    -0.00004995    -0.00006571    -0.00043001
N        -0.04493204    -0.05395564     1.33238170    -0.00010885    -0.00003079     0.00042995
H         0.91585676     0.07328634    -0.64519354     0.00007311     0.00058698    -0.00142351
H         0.83434136    -0.13285176     1.89359946     0.00105910     0.00000199     0.00164670
H        -0.95038448    -0.03262824     1.85657695     0.00068599     0.00021779    -0.00015607
H        -1.03524033     0.11161173    -0.58828193     0.00028974     0.00040413    -0.00091786
     6
  Step:    24            Position(A)                                  Velocity(au)
C        -0.02991460     0.00472670    -0.01411920    -0.00005206    -0.00006507    -0.00043554
N        -0.04552824    -0.05412298     1.33475013    -0.00010675    -0.00003027     0.00043245
H         0.91606532     0.07650944    -0.65290076    -0.00000009     0.00058766    -0.00138249
H         0.83996888    -0.13284905     1.90255506     0.00097787     0.00000039     0.00160743
H        -0.94644675    -0.03143864     1.85568673     0.00073930     0.00021620    -0.00016248
H        -1.03338157     0.11379552    -0.59322205     0.00038679     0.00039188    -0.00088215
     6
  Step:    25            Position(A)                                  Velocity(au)
C        -0.03020488     0.00437138    -0.01652008    -0.00005328    -0.00006437    -0.00043760
N        -0.04610324    -0.05428775     1.33712628    -0.00010100    -0.00002978     0.00043180
H         0.91585572     0.07973371    -0.66036131    -0.00007847     0.00058621    -0.00133123
H         0.84506991    -0.13284749     1.91123503     0.00086729     0.00000136     0.00154421
H        -0.94227341    -0.03025620     1.85479435     0.00076956     0.00021480    -0.00015617
H        -1.03099671     0.11591118    -0.59796031     0.00047996     0.00037856    -0.00084285
     6
  Step:    26            Position(A)                                  Velocity(au)
C        -0.03049971     0.00401974    -0.01892531    -0.00005363    -0.00006361    -0.00043624
N        -0.04663745    -0.05445004     1.33949251    -0.00009182    -0.00002930     0.00042792
H         0.91520354     0.08294762    -0.66752134    -0.00016024     0.00058273    -0.00127089
H         0.84949410    -0.13283413     1.91951479     0.00073192     0.00000447     0.00146000
H        -0.93799490    -0.02907959     1.85397157     0.00077563     0.00021370    -0.00013669
H        -1.02811028     0.11795316    -0.60247884     0.00056775     0.00036435    -0.00080082
     6
  Step:    27            Position(A)                                  Velocity(au)
C        -0.03079449     0.00367207    -0.02131607    -0.00005511    -0.00005953    -0.00048053
N        -0.04711272    -0.05460992     1.34183085    -0.00007883    -0.00003100     0.00045817
H         0.91409409     0.08614021    -0.67433355    -0.00025794     0.00062564    -0.00115268
H         0.85311665    -0.13279830     1.92728633     0.00055825    -0.00004663     0.00134467
H        -0.93374614    -0.02790683     1.85329160     0.00077278     0.00027849    -0.00011228
H        -1.02475485     0.11991690    -0.60676454     0.00067909     0.00028280    -0.00072064
     6
  Step:    28            Position(A)                                  Velocity(au)
C        -0.03110622     0.00336453    -0.02421373    -0.00005770    -0.00005182    -0.00057491
N        -0.04750503    -0.05479124     1.34453484    -0.00006253    -0.00003515     0.00052653
H         0.91236476     0.08983304    -0.68020713    -0.00037030     0.00069379    -0.00097676
H         0.85563794    -0.13334729     1.93431356     0.00035035    -0.00012919     0.00119802
H        -0.92949006    -0.02601464     1.85273586     0.00076259     0.00038658    -0.00008888
H        -1.02063654     0.12106547    -0.61040984     0.00081389     0.00015481    -0.00059865
     6
  Step:    29            Position(A)                                  Velocity(au)
C        -0.03143025     0.00310108    -0.02765096    -0.00005937    -0.00004371    -0.00066929
N        -0.04780176    -0.05499724     1.34763264    -0.00004407    -0.00003958     0.00059486
H         0.91001384     0.09378498    -0.68509634    -0.00047987     0.00073105    -0.00079570
H         0.85697707    -0.13422182     1.94048712     0.00013257    -0.00017927     0.00103631
H        -0.92534322    -0.02364718     1.85231223     0.00072903     0.00046424    -0.00005993
H        -1.01578669     0.12162277    -0.61336097     0.00093818     0.00005486    -0.00047196
     6
  Step:    30            Position(A)                                  Velocity(au)
C        -0.03176144     0.00288220    -0.03159980    -0.00006005    -0.00003561    -0.00075629
N        -0.04799135    -0.05522804     1.35109962    -0.00002379    -0.00004391     0.00065685
H         0.90706899     0.09790075    -0.68898830    -0.00058206     0.00075332    -0.00061432
H         0.85710094    -0.13532569     1.94574998    -0.00008714    -0.00021490     0.00086691
H        -0.92144472    -0.02089145     1.85207454     0.00067014     0.00052848    -0.00002081
H        -1.01028306     0.12167088    -0.61561831     0.00104523    -0.00003232    -0.00034758
     6
  Step:    31            Position(A)                                  Velocity(au)
C        -0.03209425     0.00270738    -0.03601322    -0.00005968    -0.00002769    -0.00083291
N        -0.04806477    -0.05548279     1.35489532    -0.00000226    -0.00004799     0.00071004
H         0.90357812     0.10211441    -0.69188878    -0.00067314     0.00076445    -0.00043618
H         0.85601353    -0.13659789     1.95007240    -0.00030181    -0.00024084     0.00069477
H        -0.91793356    -0.01780383     1.85208217     0.00058698     0.00058320     0.00002856
H        -1.00422966     0.12126540    -0.61720409     0.00113048    -0.00010997    -0.00022924
     6
  Step:    32            Position(A)                                  Velocity(au)
C        -0.03242282     0.00257537    -0.04083066    -0.00005820    -0.00002008    -0.00089696
N        -0.04801636    -0.05575990     1.35896880     0.00001982    -0.00005168     0.00075284
H         0.89960874     0.10637295    -0.69382230    -0.00074970     0.00076641    -0.00026491
H         0.85375612    -0.13799484     1.95344991    -0.00050447    -0.00025968     0.00052475
H        -0.91493942    -0.01442807     1.85239108     0.00048231     0.00063003     0.00008688
H        -0.99775429     0.12045208    -0.61815895     0.00118996    -0.00017927    -0.00012030
     6
  Step:    33            Position(A)                                  Velocity(au)
C        -0.03274105     0.00248424    -0.04598107    -0.00005561    -0.00001292    -0.00094699
N        -0.04784447    -0.05605712     1.36326157     0.00004166    -0.00005489     0.00078428
H         0.89524678     0.11063144    -0.69483266    -0.00080876     0.00076065    -0.00010415
H         0.85040740    -0.13948370     1.95590389    -0.00068845    -0.00027315     0.00036176
H        -0.91257376    -0.01080233     1.85304768     0.00036048     0.00066981     0.00015188
H        -0.99100581     0.11927322    -0.61854093     0.00122053    -0.00024057    -0.00002381
     6
  Step:    34            Position(A)                                  Velocity(au)
C        -0.03304272     0.00243137    -0.05138618    -0.00005195    -0.00000633    -0.00098237
N        -0.04755201    -0.05637171     1.36771070     0.00006242    -0.00005754     0.00080413
H         0.89059402     0.11485145    -0.69498319    -0.00084810     0.00074864     0.00004264
H         0.84608242    -0.14103948     1.95748218    -0.00084774    -0.00028264     0.00021062
H        -0.91092133    -0.00696205     1.85408400     0.00022719     0.00070310     0.00022065
H        -0.98414977     0.11777056    -0.61842438     0.00122037    -0.00029401     0.00005755
     6
  Step:    35            Position(A)                                  Velocity(au)
C        -0.03332192     0.00241350    -0.05696496    -0.00004732    -0.00000040    -0.00100357
N        -0.04714659    -0.05670053     1.37225254     0.00008131    -0.00005963     0.00081304
H         0.88576416     0.11900201    -0.69435589    -0.00086658     0.00073216     0.00017256
H         0.84092887    -0.14264393     1.95825879    -0.00097767    -0.00028949     0.00007574
H        -0.91003355    -0.00294093     1.85551476     0.00008885     0.00073063     0.00029007
H        -0.97736091     0.11598593    -0.61789744     0.00118933    -0.00033980     0.00012185
     6
  Step:    36            Position(A)                                  Velocity(au)
C        -0.03357334     0.00242684    -0.06263938    -0.00004188     0.00000478    -0.00101217
N        -0.04664022    -0.05704036     1.37682746     0.00009772    -0.00006118     0.00081254
H         0.88087688     0.12306127    -0.69304827    -0.00086431     0.00071328     0.00028371
H         0.83511964    -0.14428557     1.95833143    -0.00107547    -0.00029504    -0.00003936
H        -0.90992502     0.00123062     1.85733667    -0.00004811     0.00075348     0.00035729
H        -0.97081358     0.11396036    -0.61705803     0.00112903    -0.00037850     0.00016805
     6
  Step:    37            Position(A)                                  Velocity(au)
C        -0.03379258     0.00246723    -0.06834053    -0.00003581     0.00000920    -0.00101072
N        -0.04604839    -0.05738809     1.38138449     0.00011120    -0.00006227     0.00080484
H         0.87605035     0.12701840    -0.69116734    -0.00084253     0.00069432     0.00037547
H         0.82884188    -0.14595981     1.95781643    -0.00114039    -0.00030069    -0.00013233
H        -0.91057425     0.00552727     1.85953028    -0.00017809     0.00077315     0.00042008
H        -0.96467196     0.11173201    -0.61600878     0.00104249    -0.00041114     0.00019611
     6
  Step:    38            Position(A)                                  Velocity(au)
C        -0.03397636     0.00253040    -0.07401376    -0.00002932     0.00001288    -0.00100220
N        -0.04538881    -0.05774108     1.38588498     0.00012155    -0.00006300     0.00079244
H         0.87139521     0.13087503    -0.68882285    -0.00080305     0.00067758     0.00044832
H         0.82228597    -0.14766948     1.95684220    -0.00117319    -0.00030785    -0.00020202
H        -0.91192915     0.00993148     1.86206412    -0.00029683     0.00079139     0.00047703
H        -0.95908170     0.10933350    -0.61485111     0.00093336    -0.00043909     0.00020685
     6
  Step:    39            Position(A)                                  Velocity(au)
C        -0.03412263     0.00261224    -0.07962102    -0.00002259     0.00001588    -0.00098940
N        -0.04468024    -0.05809724     1.39030399     0.00012870    -0.00006350     0.00077757
H         0.86701151     0.13464505    -0.68612117    -0.00074755     0.00066497     0.00050348
H         0.81563686    -0.14942487     1.95554255    -0.00117528    -0.00031778    -0.00024820
H        -0.91391525     0.01443489     1.86489959    -0.00040150     0.00080980     0.00052741
H        -0.95416636     0.10678980    -0.61368059     0.00080507    -0.00046385     0.00020160
     6
  Step:    40            Position(A)                                  Velocity(au)
C        -0.03423040     0.00270900    -0.08513962    -0.00001577     0.00001827    -0.00097435
N        -0.04394157    -0.05845509     1.39462881     0.00013262    -0.00006381     0.00076181
H         0.86298900     0.13835263    -0.68316117    -0.00067720     0.00065777     0.00054237
H         0.80906990    -0.15124290     1.95405119    -0.00114788    -0.00033148    -0.00027115
H        -0.91644400     0.01903771     1.86799491    -0.00049030     0.00082950     0.00057083
H        -0.95002869     0.10411752    -0.61258409     0.00066033    -0.00048678     0.00018191
     6
  Step:    41            Position(A)                                  Velocity(au)
C        -0.03429963     0.00281735    -0.09055822    -0.00000899     0.00002012    -0.00095814
N        -0.04319154    -0.05881351     1.39885542     0.00013327    -0.00006396     0.00074596
H         0.85940986     0.14202864    -0.68003302    -0.00059254     0.00065662     0.00056622
H         0.80275178    -0.15314573     1.95249889    -0.00109159    -0.00034962    -0.00027133
H        -0.91941895     0.02374611     1.87130719    -0.00056199     0.00085092     0.00060690
H        -0.94675412     0.10132562    -0.61163860     0.00050127    -0.00050890     0.00014938
     6
  Step:    42            Position(A)                                  Velocity(au)
C        -0.03433111     0.00293438    -0.09587160    -0.00000241     0.00002148    -0.00094106
N        -0.04244881    -0.05917145     1.40298412     0.00013059    -0.00006390     0.00073014
H         0.85635206     0.14570725    -0.67681905    -0.00049375     0.00066156     0.00057597
H         0.79684326    -0.15515889     1.95101209    -0.00100668    -0.00037250    -0.00024938
H        -0.92273873     0.02856870     1.87479263    -0.00061551     0.00087384     0.00063513
H        -0.94441406     0.09841738    -0.61091091     0.00032990    -0.00053082     0.00010569
     6
  Step:    43            Position(A)                                  Velocity(au)
C        -0.03432651     0.00305743    -0.10107611     0.00000383     0.00002239    -0.00092288
N        -0.04173199    -0.05952772     1.40701592     0.00012454    -0.00006359     0.00071409
H         0.85389137     0.14942272    -0.67359563    -0.00038112     0.00067226     0.00057234
H         0.79150042    -0.15730906     1.94971170    -0.00089369    -0.00040015    -0.00020624
H        -0.92629832     0.03351276     1.87840589    -0.00065004     0.00089761     0.00065501
H        -0.94306691     0.09539281    -0.61045739     0.00014864    -0.00055289     0.00005266
     6
  Step:    44            Position(A)                                  Velocity(au)
C        -0.03428843     0.00318420    -0.10616713     0.00000952     0.00002292    -0.00090325
N        -0.04105948    -0.05988084     1.41095044     0.00011517    -0.00006296     0.00069744
H         0.85210033     0.15320693    -0.67043404    -0.00025551     0.00068811     0.00055619
H         0.78687337    -0.15962290     1.94871126    -0.00075405    -0.00043234    -0.00014348
H        -0.92999053     0.03858237     1.88209989    -0.00066510     0.00092142     0.00066611
H        -0.94275583     0.09224936    -0.61032345    -0.00003929    -0.00057537    -0.00000759
     6