    14
  Step:     0            Position(A)                                  Velocity(au)
C        -5.93821579    -0.92922740    -0.13374070    -0.00050284    -0.00018347     0.00002794
C        -4.64673020    -0.64322614     0.14098108     0.00040433     0.00014244     0.00006052
H        -6.72524461    -0.19309464    -0.43400230     0.00018797     0.00036538    -0.00068021
H        -6.25877348    -1.97689858     0.14248698    -0.00032803     0.00060911    -0.00046348
H        -4.02784724    -1.44074268     0.54125468    -0.00031859    -0.00021321    -0.00052612
C        -4.02171062     0.58205451    -0.07050862     0.00007368    -0.00002316     0.00020805
C        -2.65900830     0.64805023     0.22484850    -0.00008909    -0.00010607    -0.00006197
H        -4.56192974     1.50802231    -0.40097899     0.00038179    -0.00155080    -0.00014784
H        -2.21440798    -0.29556754     0.55219751    -0.00010321    -0.00007305    -0.00049039
C        -1.78311072     1.71117394    -0.06712199     0.00057767     0.00008780    -0.00003023
H        -2.19497894     2.59566576    -0.49770766     0.00011736     0.00056016    -0.00036217
N        -0.50911487     1.64841240     0.24906988    -0.00027831     0.00016935     0.00008820
H         0.09631861     2.40132449    -0.03897305    -0.00083900    -0.00070955    -0.00053456
H        -0.02536694     0.82425660     0.56276399    -0.00075685    -0.00035889    -0.00045555
    14
  Step:     1            Position(A)                                  Velocity(au)
C        -5.94409094    -0.93139801    -0.13340326    -0.00056475    -0.00020890     0.00003357
C        -4.64215011    -0.64165224     0.14165003     0.00042633     0.00014363     0.00006050
H        -6.72220942    -0.18980535    -0.44140561     0.00036230     0.00023419    -0.00067046
H        -6.26254452    -1.96885973     0.13669598    -0.00036973     0.00083073    -0.00058556
H        -4.03106793    -1.44326679     0.53551827    -0.00025978    -0.00025502    -0.00051598
C        -4.02128912     0.58195382    -0.06831157     0.00000414     0.00000143     0.00019418
C        -2.65949523     0.64692765     0.22419869     0.00000288    -0.00009683    -0.00005711
H        -4.55740495     1.48992196    -0.40241051     0.00042353    -0.00171559    -0.00012638
H        -2.21541104    -0.29616836     0.54723207    -0.00007673    -0.00004246    -0.00041556
C        -1.77712489     1.71198485    -0.06744067     0.00050885     0.00006148    -0.00002996
H        -2.19359301     2.60284022    -0.50200391     0.00014939     0.00072197    -0.00040876
N        -0.51190731     1.65033663     0.25004668    -0.00023036     0.00017940     0.00009225
H         0.08749045     2.39385190    -0.04478833    -0.00074241    -0.00062350    -0.00054006
H        -0.03380076     0.81973498     0.55799644    -0.00078312    -0.00046152    -0.00041662
    14
  Step:     2            Position(A)                                  Velocity(au)
C        -5.95057080    -0.93379749    -0.13300632    -0.00061310    -0.00022493     0.00003867
C        -4.63740344    -0.64008398     0.14230472     0.00043553     0.00014182     0.00005802
H        -6.71731871    -0.18797139    -0.44866982     0.00052193     0.00010427    -0.00065683
H        -6.26686199    -1.95872475     0.12967664    -0.00043068     0.00098218    -0.00068535
H        -4.03353052    -1.44632172     0.52996672    -0.00018184    -0.00030795    -0.00049370
C        -4.02162011     0.58208588    -0.06626046    -0.00006360     0.00001795     0.00018181
C        -2.65894528     0.64593190     0.22359920     0.00010023    -0.00008277    -0.00005278
H        -4.55266425     1.47049045    -0.40374387     0.00041543    -0.00178482    -0.00013396
H        -2.21608657    -0.29649645     0.54310638    -0.00004293    -0.00002347    -0.00033685
C        -1.77197863     1.71251888    -0.06777748     0.00042521     0.00003739    -0.00003340
H        -2.19171070     2.61146016    -0.50665001     0.00020774     0.00082209    -0.00042524
N        -0.51415433     1.65233719     0.25108797    -0.00017893     0.00018344     0.00009978
H         0.08007688     2.38768430    -0.05078800    -0.00058443    -0.00047646    -0.00056693
H        -0.04249920     0.81416002     0.55364974    -0.00080613    -0.00054786    -0.00037954
    14
  Step:     3            Position(A)                                  Velocity(au)
C        -5.95750369    -0.93631875    -0.13255736    -0.00064769    -0.00023097     0.00004291
C        -4.63262199    -0.63854965     0.14291930     0.00043388     0.00013791     0.00005338
H        -6.71079110    -0.18752428    -0.45577514     0.00065679    -0.00001452    -0.00064355
H        -6.27196650    -1.94737272     0.12170266    -0.00051606     0.00104435    -0.00075792
H        -4.03504600    -1.45000373     0.52471768    -0.00008929    -0.00036645    -0.00046241
C        -4.02268042     0.58234645    -0.06433405    -0.00012889     0.00002370     0.00017181
C        -2.65730254     0.64511698     0.22304411     0.00020215    -0.00006383    -0.00004900
H        -4.54831662     1.45087554    -0.40534105     0.00034745    -0.00174281    -0.00017790
H        -2.21635027    -0.29668172     0.53986291    -0.00000123    -0.00001611    -0.00025445
C        -1.76782254     1.71280285    -0.06817144     0.00032940     0.00001582    -0.00004008
H        -2.18904837     2.62082506    -0.51130689     0.00028995     0.00085899    -0.00041142
N        -0.51582184     1.65434963     0.25222964    -0.00012475     0.00018213     0.00011014
H         0.07470483     2.38342838    -0.05719107    -0.00037733    -0.00028422    -0.00061035
H        -0.05143633     0.80774958     0.54969322    -0.00082708    -0.00061172    -0.00034578
    14
  Step:     4            Position(A)                                  Velocity(au)
C        -5.96474035    -0.93885040    -0.13206766    -0.00066904    -0.00022695     0.00004600
C        -4.62791144    -0.63706693     0.14347252     0.00042388     0.00013270     0.00004709
H        -6.70295024    -0.18828903    -0.46274869     0.00075796    -0.00011268    -0.00063490
H        -6.27815188    -1.93587760     0.11309567    -0.00062977     0.00100282    -0.00079990
H        -4.03548392    -1.45433857     0.51985070     0.00001207    -0.00042354    -0.00042569
C        -4.02443976     0.58260436    -0.06250180    -0.00019080     0.00001692     0.00016493
C        -2.65452290     0.64453560     0.22252716     0.00030693    -0.00004043    -0.00004587
H        -4.54506310     1.43236322    -0.40763586     0.00021438    -0.00158246    -0.00026290
H        -2.21611341    -0.29684889     0.53753980     0.00004858    -0.00001940    -0.00016899
C        -1.76477231     1.71286496    -0.06865436     0.00022500    -0.00000308    -0.00004926
H        -2.18536742     2.63025231    -0.51565057     0.00039075     0.00083659    -0.00036985
N        -0.51688346     1.65632158     0.25349755    -0.00006844     0.00017691     0.00012224
H         0.07182203     2.38146654    -0.06414052    -0.00014052    -0.00007061    -0.00066161
H        -0.06059310     0.80077749     0.54608520    -0.00084596    -0.00064927    -0.00031593
    14
  Step:     5            Position(A)                                  Velocity(au)
C        -5.97214026    -0.94128373    -0.13155108    -0.00067802    -0.00021352     0.00004785
C        -4.62334886    -0.63564660     0.14394954     0.00040783     0.00012638     0.00003979
H        -6.69420929    -0.18998938    -0.46966488     0.00081823    -0.00018152    -0.00063509
H        -6.28574388    -1.92543419     0.10420325    -0.00077312     0.00085203    -0.00081043
H        -4.03478205    -1.45926947     0.51540481     0.00011587    -0.00047162    -0.00038714
C        -4.02685458     0.58271670    -0.06072586    -0.00024768    -0.00000227     0.00016165
C        -2.65058783     0.64423248     0.22204068     0.00041138    -0.00001371    -0.00004357
H        -4.54362660     1.41625623    -0.41109240     0.00001906    -0.00131026    -0.00038850
H        -2.21528741    -0.29710621     0.53616603     0.00010627    -0.00003132    -0.00008148
C        -1.76290016     1.71273549    -0.06924915     0.00011622    -0.00001895    -0.00006016
H        -2.18049991     2.63912703    -0.51939814     0.00050297     0.00076259    -0.00030511
N        -0.51731905     1.65821978     0.25490380    -0.00001051     0.00016966     0.00013476
H         0.07163067     2.38188367    -0.07166499     0.00010242     0.00013616    -0.00070942
H        -0.06994340     0.79354560     0.54278172    -0.00086159    -0.00065920    -0.00028994
    14
  Step:     6            Position(A)                                  Velocity(au)
C        -5.97957340    -0.94352160    -0.13102089    -0.00067552    -0.00019222     0.00004873
C        -4.61898948    -0.63430223     0.14434299     0.00038709     0.00011813     0.00003214
H        -6.68504979    -0.19226002    -0.47664256     0.00083275    -0.00021396    -0.00064789
H        -6.29506529    -1.91723779     0.09536598    -0.00094350     0.00059958    -0.00079201
H        -4.03294897    -1.46465613     0.51138133     0.00021594    -0.00050352    -0.00034992
C        -4.02985827     0.58255471    -0.05896549    -0.00029724    -0.00003127     0.00016187
C        -2.64552310     0.64423578     0.22157397     0.00051091     0.00001456    -0.00004243
H        -4.54464603     1.40369885    -0.41613498    -0.00022516    -0.00094964    -0.00054694
H        -2.21378863    -0.29753410     0.53575737     0.00017112    -0.00004884     0.00000679
C        -1.76222975     1.71245032    -0.06997055     0.00000755    -0.00003116    -0.00007210
H        -2.17436397     2.64693532    -0.52232549     0.00061846     0.00064702    -0.00022298
N        -0.51711328     1.66003326     0.25644563     0.00004859     0.00016238     0.00014641
H         0.07406263     2.38444526    -0.07966046     0.00032785     0.00030856    -0.00074203
H        -0.07944209     0.78635617     0.53974228    -0.00087189    -0.00064258    -0.00026739
    14
  Step:     7            Position(A)                                  Velocity(au)
C        -5.98691845    -0.94548890    -0.13048509    -0.00066234    -0.00016553     0.00004928
C        -4.61488054    -0.63306221     0.14465271     0.00036191     0.00010635     0.00002475
H        -6.67599129    -0.19467008    -0.48383872     0.00079977    -0.00020563    -0.00067616
H        -6.30638482    -1.91231716     0.08687643    -0.00113338     0.00026873    -0.00075084
H        -4.03005784    -1.47028483     0.50774961     0.00030693    -0.00051340    -0.00031661
C        -4.03335735     0.58203267    -0.05718456    -0.00033746    -0.00006526     0.00016479
C        -2.63941068     0.64455097     0.22111250     0.00060058     0.00004226    -0.00004272
H        -4.54855245     1.39548105    -0.42305781    -0.00049466    -0.00053998    -0.00072260
H        -2.21154380    -0.29817471     0.53631459     0.00024195    -0.00006805     0.00009440
C        -1.76273493     1.71205380    -0.07082653    -0.00009657    -0.00003899    -0.00008449
H        -2.16696981     2.65328179    -0.52427636     0.00072887     0.00050122    -0.00012985
N        -0.51625598     1.66177218     0.25810670     0.00010823     0.00015678     0.00015607
H         0.07880308     2.38863406    -0.08789836     0.00051620     0.00042466    -0.00074951
H        -0.08901770     0.77948787     0.53693215    -0.00087428    -0.00060246    -0.00024765
    14
  Step:     8            Position(A)                                  Velocity(au)
C        -5.99406340    -0.94714284    -0.12994272    -0.00063958    -0.00013673     0.00005039
C        -4.61107208    -0.63197571     0.14488435     0.00033186     0.00008922     0.00001805
H        -6.66755334    -0.19675854    -0.49143475     0.00072131    -0.00015591    -0.00072113
H        -6.31986005    -1.91135880     0.07893990    -0.00133033    -0.00010295    -0.00069602
H        -4.02623433    -1.47588774     0.50445481     0.00038474    -0.00049748    -0.00028899
C        -4.03724086     0.58112703    -0.05536035    -0.00036749    -0.00009843     0.00016888
C        -2.63238421     0.64516025     0.22063938     0.00067641     0.00006741    -0.00004455
H        -4.55546756     1.39188579    -0.43194329    -0.00075931    -0.00012996    -0.00089415
H        -2.20849544    -0.29902291     0.53782247     0.00031712    -0.00008441     0.00017985
C        -1.76434250     1.71159744    -0.07181889    -0.00019209    -0.00004195    -0.00009673
H        -2.15841859     2.65790038    -0.52516621     0.00082611     0.00033736    -0.00003232
N        -0.51474551     1.66346314     0.25985986     0.00016740     0.00015406     0.00016289
H         0.08535557     2.39373553    -0.09605734     0.00065483     0.00047143    -0.00072548
H        -0.09856870     0.77317618     0.53432451    -0.00086602    -0.00054341    -0.00022989
    14
  Step:     9            Position(A)                                  Velocity(au)
C        -6.00091059    -0.94848007    -0.12938274    -0.00060888    -0.00010940     0.00005285
C        -4.60762055    -0.63111038     0.14504748     0.00029643     0.00006537     0.00001232
H        -6.66021117    -0.19808099    -0.49961477     0.00060369    -0.00006894    -0.00078172
H        -6.33548843    -1.91456941     0.07164958    -0.00151869    -0.00046949    -0.00063783
H        -4.02164101    -1.48116806     0.50142729     0.00044673    -0.00045433    -0.00026797
C        -4.04139680     0.57987936    -0.05348990    -0.00038775    -0.00012531     0.00017230
C        -2.62461301     0.64602573     0.22013797     0.00073586     0.00008836    -0.00004777
H        -4.56516388     1.39263782    -0.44261905    -0.00098898     0.00023262    -0.00103893
H        -2.20460622    -0.30002134     0.54024914     0.00039467    -0.00009318     0.00026163
C        -1.76693723     1.71113599    -0.07294266    -0.00027544    -0.00003994    -0.00010819
H        -2.14889717     2.66066224    -0.52498343     0.00090273     0.00016822     0.00006296
N        -0.51259367     1.66514251     0.26167025     0.00022471     0.00015480     0.00016634
H         0.09312864     2.39894750    -0.10376953     0.00073892     0.00044569    -0.00066789
H        -0.10796363     0.76759981     0.53190286    -0.00084454    -0.00047092    -0.00021308
    14
  Step:    10            Position(A)                                  Velocity(au)
C        -6.00738386    -0.94953617    -0.12878655    -0.00057241    -0.00008668     0.00005714
C        -4.60458706    -0.63054553     0.14515384     0.00025534     0.00003411     0.00000769
H        -6.65434657    -0.19826672    -0.50853640     0.00045743     0.00004601    -0.00085407
H        -6.35308428    -1.92162977     0.06498617    -0.00168221    -0.00078564    -0.00058545
H        -4.01646120    -1.48582704     0.49859245     0.00049175    -0.00038498    -0.00025355
C        -4.04572366     0.57838562    -0.05159092    -0.00039937    -0.00014183     0.00017335
C        -2.61628584     0.64709325     0.21959433     0.00077772     0.00010375    -0.00005206
H        -4.57710331     1.39697474    -0.45467176    -0.00115990     0.00051079    -0.00113789
H        -2.19986119    -0.30106133     0.54354603     0.00047258    -0.00008998     0.00033823
C        -1.77036830     1.71072367    -0.07418586    -0.00034370    -0.00003310    -0.00011826
H        -2.13866963     2.66158049    -0.52378888     0.00095219     0.00000684     0.00014943
N        -0.50982945     1.66684961     0.26349888     0.00027852     0.00015899     0.00016620
H         0.10152093     2.40348575    -0.11066880     0.00077082     0.00035302    -0.00057887
H        -0.11704459     0.76287396     0.52966296    -0.00080769    -0.00039083    -0.00019607
    14
  Step:    11            Position(A)                                  Velocity(au)
C        -6.01343314    -0.95037645    -0.12813276    -0.00053257    -0.00007059     0.00006325
C        -4.60203442    -0.63036420     0.14521576     0.00020857    -0.00000459     0.00000416
H        -6.65020406    -0.19707445    -0.51829921     0.00029636     0.00017520    -0.00093166
H        -6.37229010    -1.93175669     0.05884183    -0.00180718    -0.00101573    -0.00054520
H        -4.01088311    -1.48959032     0.49588036     0.00051990    -0.00029270    -0.00024496
C        -4.05013377     0.57677664    -0.04969751    -0.00040351    -0.00014578     0.00017087
C        -2.60759893     0.64829545     0.21899898     0.00080168     0.00011253    -0.00005700
H        -4.59053893     1.40381231    -0.46751254    -0.00125868     0.00068412    -0.00117914
H        -2.19426764    -0.30198981     0.54764858     0.00054886    -0.00007133     0.00040833
C        -1.77445641     1.71041185    -0.07552980    -0.00039465    -0.00002177    -0.00012635
H        -2.12806623     2.66081192    -0.52171429     0.00096906    -0.00013381     0.00022084
N        -0.50650053     1.66862064     0.26530614     0.00032715     0.00016613     0.00016255
H         0.10999173     2.40667055    -0.11643342     0.00075840     0.00020569    -0.00046391
H        -0.12563346     0.75904957     0.52761352    -0.00075402    -0.00030871    -0.00017774
    14
  Step:    12            Position(A)                                  Velocity(au)
C        -6.01903488    -0.95108046    -0.12740291    -0.00049167    -0.00006170     0.00007069
C        -4.60002416    -0.63064598     0.14524480     0.00015638    -0.00005008     0.00000160
H        -6.64786308    -0.19443393    -0.52891828     0.00013586     0.00030223    -0.00100605
H        -6.39261972    -1.94385082     0.05305895    -0.00188443    -0.00113894    -0.00051985
H        -4.00508728    -1.49223046     0.49323349     0.00053238    -0.00018257    -0.00024080
C        -4.05455127     0.57519642    -0.04785277    -0.00040113    -0.00013686     0.00016438
C        -2.59874752     0.64955510     0.21834738     0.00080811     0.00011396    -0.00006212
H        -4.60463936     1.41194126    -0.48046770    -0.00128252     0.00074883    -0.00115884
H        -2.18785374    -0.30262186     0.55247905     0.00062179    -0.00003503     0.00047088
C        -1.77900207     1.71024736    -0.07695002    -0.00042686    -0.00000643    -0.00013200
H        -2.11746952     2.65865314    -0.51895763     0.00094933    -0.00024138     0.00027142
N        -0.50267241     1.67048409     0.26705495     0.00036912     0.00017540     0.00015575
H         0.11811233     2.40798571    -0.12081778     0.00071325     0.00002018    -0.00033088
H        -0.13354027     0.75612043     0.52577456    -0.00068287    -0.00022931    -0.00015716
    14
  Step:    13            Position(A)                                  Velocity(au)
C        -6.02418937    -0.95172625    -0.12658621    -0.00045164    -0.00005931     0.00007865
C        -4.59861330    -0.63145980     0.14525066     0.00009930    -0.00010112    -0.00000021
H        -6.64723192    -0.19046266    -0.54030856    -0.00000928     0.00041056    -0.00106810
H        -6.41351555    -1.95667317     0.04746913    -0.00191009    -0.00114993    -0.00050898
H        -3.99923619    -1.49358430     0.49061239     0.00053117    -0.00006097    -0.00023926
C        -4.05890927     0.57378255    -0.04610148    -0.00039298    -0.00011630     0.00015397
C        -2.58991991     0.65078861     0.21764000     0.00079786     0.00010765    -0.00006700
H        -4.61859654     1.42019430    -0.49286445    -0.00123677     0.00071373    -0.00107991
H        -2.18066488    -0.30275617     0.55794989     0.00068994     0.00001960     0.00052518
C        -1.78379478     1.71027109    -0.07841766    -0.00043972     0.00001235    -0.00013489
H        -2.10729781     2.65553124    -0.51577643     0.00089065    -0.00030503     0.00029636
N        -0.49842534     1.67245782     0.26871337     0.00040324     0.00018572     0.00014634
H         0.12559536     2.40711200    -0.12367216     0.00064903    -0.00018482    -0.00018906
H        -0.14057263     0.75403293     0.52417538    -0.00059451    -0.00015629    -0.00013363
    14
  Step:    14            Position(A)                                  Velocity(au)
C        -6.02891533    -0.95237806    -0.12568228    -0.00041388    -0.00006190     0.00008616
C        -4.59785175    -0.63285820     0.14524020     0.00003808    -0.00015599    -0.00000155
H        -6.64806605    -0.18545213    -0.55228503    -0.00012679     0.00048615    -0.00110934
H        -6.43440669    -1.96900775     0.04192395    -0.00188498    -0.00105590    -0.00051000
H        -3.99346697    -1.49356424     0.48799919     0.00051880     0.00006491    -0.00023828
C        -4.06314845     0.57265206    -0.04448440    -0.00037973    -0.00008640     0.00014018
C        -2.58129289     0.65191018     0.21688169     0.00077211     0.00009359    -0.00007127
H        -4.63169603     1.42755544    -0.50409286    -0.00113166     0.00059516    -0.00094977
H        -2.17276009    -0.30219310     0.56396843     0.00075228     0.00009162     0.00057099
C        -1.78862176     1.71051748    -0.07990103    -0.00043343     0.00003400    -0.00013485
H        -2.09798489     2.65198004    -0.51247429     0.00079273    -0.00031682     0.00029236
N        -0.49385084     1.67454698     0.27025649     0.00042864     0.00019589     0.00013505
H         0.13231116     2.40394238    -0.12495386     0.00058037    -0.00038982    -0.00004841
H        -0.14654635     0.75270122     0.52285106    -0.00049013    -0.00009196    -0.00010678
    14
  Step:    15            Position(A)                                  Velocity(au)
C        -6.03324376    -0.95308048    -0.12470126    -0.00037921    -0.00006763     0.00009234
C        -4.59778019    -0.63487229     0.14521680    -0.00002638    -0.00021260    -0.00000275
H        -6.65000572    -0.17982722    -0.56457746    -0.00020840     0.00051939    -0.00112330
H        -6.45475304    -1.97977295     0.03631183    -0.00181330    -0.00087213    -0.00051922
H        -3.98788640    -1.49216434     0.48539954     0.00049814     0.00018754    -0.00023573
C        -4.06721661     0.57189239    -0.04303482    -0.00036209    -0.00005003     0.00012377
C        -2.57302857     0.65283603     0.21608072     0.00073236     0.00007219    -0.00007471
H        -4.64335372     1.43321449    -0.51364247    -0.00097946     0.00041255    -0.00077813
H        -2.16420737    -0.30075177     0.57044135     0.00080815     0.00017858     0.00060847
C        -1.79327680     1.71101482    -0.08136773    -0.00040896     0.00005799    -0.00013190
H        -2.08995542     2.64860013    -0.50938050     0.00065759    -0.00027318     0.00025833
N        -0.48904798     1.67674330     0.27166784     0.00044480     0.00020468     0.00012267
H         0.13829197     2.39858390    -0.12473130     0.00052193    -0.00057573     0.00008100
H        -0.15129523     0.75202116     0.52183931    -0.00037179    -0.00003719    -0.00007655
    14
  Step:    16            Position(A)                                  Velocity(au)
C        -6.03721133    -0.95385757    -0.12366210    -0.00034791    -0.00007475     0.00009652
C        -4.59842889    -0.63750926     0.14517997    -0.00009311    -0.00026873    -0.00000418
H        -6.65262525    -0.17408939    -0.57685944    -0.00025030     0.00050604    -0.00110630
H        -6.47407605    -1.98808715     0.03056508    -0.00170138    -0.00061794    -0.00053269
H        -3.98256914    -1.48946136     0.48284205     0.00047213     0.00029956    -0.00022958
C        -4.07106976     0.57155748    -0.04177673    -0.00034081    -0.00001033     0.00010562
C        -2.56527108     0.65348938     0.21524731     0.00068035     0.00004429    -0.00007718
H        -4.65312365     1.43658072    -0.52111591    -0.00079266     0.00018572    -0.00057548
H        -2.15508031    -0.29828622     0.57727988     0.00085719     0.00027671     0.00063824
C        -1.79756848     1.71178610    -0.08278660    -0.00036797     0.00008395    -0.00012627
H        -2.08359875     2.64600367    -0.50682272     0.00048974    -0.00017629     0.00019596
N        -0.48411990     1.67902477     0.27294003     0.00045149     0.00021089     0.00011001
H         0.14372935     2.39134725    -0.12318173     0.00048761    -0.00072501     0.00018971
H        -0.15468006     0.75188770     0.52117642    -0.00024230     0.00000856    -0.00004321
    14
  Step:    17            Position(A)                                  Velocity(au)
C        -6.04085500    -0.95471583    -0.12258970    -0.00031980    -0.00008183     0.00009828
C        -4.59981723    -0.64075127     0.14512532    -0.00016113    -0.00032213    -0.00000618
H        -6.65548157    -0.16875666    -0.58877980    -0.00025272     0.00044688    -0.00105741
H        -6.49197400    -1.99329160     0.02465830    -0.00155664    -0.00031395    -0.00054673
H        -3.97755756    -1.48561082     0.48037710     0.00044362     0.00039417    -0.00021795
C        -4.07467244     0.57166649    -0.04072425    -0.00031668     0.00002959     0.00008663
C        -2.55814463     0.65380486     0.21439216     0.00061797     0.00001112    -0.00007873
H        -4.66069470     1.43727754    -0.52623216    -0.00058326    -0.00006627    -0.00035237
H        -2.14545479    -0.29469815     0.58440406     0.00089928     0.00038125     0.00066127
C        -1.80132679     1.71285129    -0.08413013    -0.00031267     0.00011171    -0.00011839
H        -2.07924145     2.64474335    -0.50509353     0.00029602    -0.00003503     0.00011002
N        -0.47917087     1.68135683     0.27407459     0.00044873     0.00021347     0.00009786
H         0.14895940     2.38272291    -0.12058102     0.00048931    -0.00082309     0.00026960
H        -0.15659595     0.75220838     0.52089410    -0.00010502     0.00004689    -0.00000729
    14
  Step:    18            Position(A)                                  Velocity(au)
C        -6.04420755    -0.95564773    -0.12151200    -0.00029435    -0.00008775     0.00009747
C        -4.60195396    -0.64455644     0.14504478    -0.00022950    -0.00037073    -0.00000905
H        -6.65815389    -0.16431299    -0.59999241    -0.00021908     0.00034689    -0.00097830
H        -6.50813052    -1.99495531     0.01860437    -0.00138702     0.00001941    -0.00055809
H        -3.97286419    -1.48083819     0.47807389     0.00041507     0.00046559    -0.00019935
C        -4.07799767     0.57220478    -0.03988157    -0.00029040     0.00006671     0.00006771
C        -2.55175174     0.65373268     0.21352498     0.00054726    -0.00002573    -0.00007949
H        -4.66588356     1.43513092    -0.52882479    -0.00036275    -0.00032528    -0.00011925
H        -2.13540677    -0.28994574     0.59174638     0.00093450     0.00048682     0.00067881
C        -1.80440866     1.71422989    -0.08537658    -0.00024569     0.00014131    -0.00010886
H        -2.07712266     2.64523729    -0.50441592     0.00008527     0.00013543     0.00000816
N        -0.47430309     1.68369482     0.27508090     0.00043691     0.00021172     0.00008682
H         0.15443385     2.37334053    -0.11728375     0.00053532    -0.00086013     0.00031501
H        -0.15697750     0.75291342     0.52101689     0.00003631     0.00008010     0.00003047
    14
  Step:    19            Position(A)                                  Velocity(au)
C        -6.04729437    -0.95663543    -0.12045741    -0.00027077    -0.00009167     0.00009413
C        -4.60483788    -0.64886160     0.14492724    -0.00029734    -0.00041277    -0.00001305
H        -6.66027435    -0.16116787    -0.61018203    -0.00015508     0.00021402    -0.00087265
H        -6.52231770    -1.99286699     0.01244909    -0.00120076     0.00036233    -0.00056394
H        -3.96847703    -1.47542521     0.47601603     0.00038836     0.00050953    -0.00017273
C        -4.08102552     0.57312589    -0.03924295    -0.00026253     0.00009826     0.00004977
C        -2.54617230     0.65324198     0.21265313     0.00047030    -0.00006443    -0.00007974
H        -4.66863054     1.43016147    -0.52884108    -0.00014246    -0.00057363     0.00011344
H        -2.12501075    -0.28404813     0.59925430     0.00096300     0.00058786     0.00069229
C        -1.80670176     1.71594271    -0.08651157    -0.00016993     0.00017289    -0.00009837
H        -2.07737593     2.64770624    -0.50491510    -0.00013245     0.00031540    -0.00009995
N        -0.46961267     1.68598850     0.27597389     0.00041679     0.00020540     0.00007724
H         0.16067060     2.36390590    -0.11368963     0.00062844    -0.00083300     0.00032395
H        -0.15580159     0.75396075     0.52156064     0.00017779     0.00011072     0.00006926
    14
  Step:    20            Position(A)                                  Velocity(au)
C        -6.05013109    -0.95765315    -0.11945274    -0.00024810    -0.00009292     0.00008847
C        -4.60845884    -0.65358661     0.14475933    -0.00036388    -0.00044697    -0.00001831
H        -6.66154648    -0.15963096    -0.61908324    -0.00006771     0.00005806    -0.00074553
H        -6.53439953    -1.98702872     0.00626717    -0.00100648     0.00069545    -0.00056184
H        -3.96436815    -1.46969131     0.47429515     0.00036435     0.00052359    -0.00013769
C        -4.08374098     0.57435435    -0.03879279    -0.00023338     0.00012172     0.00003370
C        -2.54146306     0.65232317     0.21178060     0.00038922    -0.00010297    -0.00007980
H        -4.66900012     1.42258173    -0.52634313     0.00006607    -0.00079365     0.00033503
H        -2.11433922    -0.27708522     0.60689161     0.00098495     0.00067904     0.00070321
C        -1.80812617     1.71801226    -0.08752853    -0.00008836     0.00020652    -0.00008761
H        -2.08002017     2.65213734    -0.50660255    -0.00034668     0.00048351    -0.00020391
N        -0.46518506     1.68818833     0.27677059     0.00038960     0.00019491     0.00006912