|===============================================================================
|
|  DFTB+ release 20.1
|
|  Copyright (C) 2006 - 2020  DFTB+ developers group
|
|===============================================================================
|
|  When publishing results obtained with DFTB+, please cite the following
|  reference:
|
|  * DFTB+, a software package for efficient approximate density functional
|    theory based atomistic simulations, J. Chem. Phys. 152, 124101 (2020).
|    [doi: 10.1063/1.5143190]
|
|  You should also cite additional publications crediting the parametrization
|  data you use. Please consult the documentation of the SK-files for the
|  references.
|
|===============================================================================

Reading input file 'dftb_in.hsd'
Parser version: 8

--------------------------------------------------------------------------------
Reading SK-files:
Done.


Processed input in HSD format written to 'dftb_pin.hsd'

Starting initialization...
--------------------------------------------------------------------------------
OpenMP threads:              1
Chosen random seed:          498894817
Mode:                        Static calculation
Self consistent charges:     Yes
SCC-tolerance:                 0.100000E-05
Max. scc iterations:                   1000
Shell resolved Hubbard:      No
Spin polarisation:           No
Nr. of up electrons:            16.000000
Nr. of down electrons:          16.000000
Periodic boundaries:         No
Electronic solver:           Relatively robust
Maximal SCC-cycles:                    1000
Initial charges:             Set automatically (system chrg:   0.100E+01)
Included shells:             C:  s, p
                             H:  s
                             N:  s, p
Spin coupling constants:     C   1(s)-1(s):  -0.455900E-01
                             C   1(s)-2(p):  -0.293000E-01
                             C   2(p)-1(s):  -0.293000E-01
                             C   2(p)-2(p):  -0.275500E-01
                             H   1(s)-1(s):  -0.792500E-01
                             N   1(s)-1(s):  -0.468700E-01
                             N   1(s)-2(p):  -0.317000E-01
                             N   2(p)-1(s):  -0.317000E-01
                             N   2(p)-2(p):  -0.307200E-01
Range separated hybrid:      Yes
  Screening parameter omega:   0.300000E+00
  Range separated algorithm:   MatrixBased
Extra options:
                             Mulliken analysis
                             Force calculation
Force type                   original
                             Eigenvector printing


REKS Calcuation:             Yes
SSR(2,2) Calcuation:         Yes
Energy Functional:           (PPS+OSS)/2
Number of Core Orbitals:                 15
Number of Active Orbitals:                2
Number of Basis:                         32
Number of States:                         2
State-Averaging Weight:          0.500000
                                 0.500000
State of Interest:                        1
Initial Guess:               Diagonalize H0 matrix
Newton-Raphson for FON opt:  Yes
NR max. Iterations:                      50
Level Shifting:              Yes
Shift Value:                     0.300000
W Scale Factor:              C  =    3.200000
                             H  =    3.200000
                             N  =    3.200000
Transition Dipole:           No
Gradient of Microstate:      No
CP-REKS Solver:              Preconditioned Conjugate-Gradient
CG max. Iterations:                     100
CG Tolerance:                  0.100000E-07
Memory for A and Hxc:        Direct Updating Without Saving
Non-Adiabatic Coupling:      Yes

--------------------------------------------------------------------------------

***  Geometry step: 0

  iSCC       reks energy        Diff energy         x_a       SCC error   
    1      -16.3813324192       0.0000000000     0.997255    1.22023006
    2      -16.3989922160      -0.0176597968     0.999462    0.06726902
    3      -16.4024619816      -0.0034697656     0.999748    0.02752352
    4      -16.4036851832      -0.0012232015     0.999840    0.01302850
    5      -16.4042477133      -0.0005625301     0.999882    0.00870340
    6      -16.4045431198      -0.0002954065     0.999906    0.00616285
    7      -16.4047102937      -0.0001671739     0.999921    0.00449714
    8      -16.4048092204      -0.0000989267     0.999931    0.00334797
    9      -16.4048695493      -0.0000603289     0.999938    0.00253125
   10      -16.4049072100      -0.0000376607     0.999942    0.00210095
   11      -16.4049311999      -0.0000239898     0.999946    0.00177906
   12      -16.4049467661      -0.0000155662     0.999949    0.00150745
   13      -16.4049570416      -0.0000102755     0.999951    0.00127830
   14      -16.4049639338      -0.0000068922     0.999952    0.00108490
   15      -16.4049686252      -0.0000046913     0.999954    0.00092156
   16      -16.4049718613      -0.0000032362     0.999955    0.00078352
   17      -16.4049741205      -0.0000022592     0.999955    0.00066676
   18      -16.4049757144      -0.0000015939     0.999956    0.00056793
   19      -16.4049768494      -0.0000011350     0.999957    0.00048418
   20      -16.4049776640      -0.0000008147     0.999957    0.00041316
   21      -16.4049782529      -0.0000005889     0.999957    0.00035287
   22      -16.4049786811      -0.0000004282     0.999958    0.00030165
   23      -16.4049789940      -0.0000003129     0.999958    0.00025808
   24      -16.4049792237      -0.0000002297     0.999958    0.00022099
   25      -16.4049793930      -0.0000001692     0.999958    0.00018938
   26      -16.4049795181      -0.0000001251     0.999958    0.00016242
   27      -16.4049796108      -0.0000000927     0.999959    0.00013940
   28      -16.4049796797      -0.0000000689     0.999959    0.00011974
   29      -16.4049797310      -0.0000000513     0.999959    0.00010292
   30      -16.4049797692      -0.0000000382     0.999959    0.00008852
   31      -16.4049797978      -0.0000000286     0.999959    0.00007618
   32      -16.4049798192      -0.0000000214     0.999959    0.00006560
   33      -16.4049798352      -0.0000000160     0.999959    0.00005653
   34      -16.4049798472      -0.0000000120     0.999959    0.00004874
   35      -16.4049798562      -0.0000000090     0.999959    0.00004204
   36      -16.4049798629      -0.0000000068     0.999959    0.00003628
   37      -16.4049798680      -0.0000000051     0.999959    0.00003132
   38      -16.4049798718      -0.0000000038     0.999959    0.00002706
   39      -16.4049798747      -0.0000000029     0.999959    0.00002338
   40      -16.4049798768      -0.0000000022     0.999959    0.00002021
   41      -16.4049798785      -0.0000000016     0.999959    0.00001748
   42      -16.4049798797      -0.0000000012     0.999959    0.00001512
   43      -16.4049798806      -0.0000000009     0.999959    0.00001309
   44      -16.4049798813      -0.0000000007     0.999959    0.00001133
   45      -16.4049798818      -0.0000000005     0.999959    0.00000981
   46      -16.4049798822      -0.0000000004     0.999959    0.00000850
   47      -16.4049798825      -0.0000000003     0.999959    0.00000736
   48      -16.4049798828      -0.0000000002     0.999959    0.00000638
   49      -16.4049798829      -0.0000000002     0.999959    0.00000553
   50      -16.4049798831      -0.0000000001     0.999959    0.00000480
   51      -16.4049798832      -0.0000000001     0.999959    0.00000416
   52      -16.4049798832      -0.0000000001     0.999959    0.00000361
   53      -16.4049798833      -0.0000000001     0.999959    0.00000313
   54      -16.4049798833      -0.0000000000     0.999959    0.00000272
   55      -16.4049798834      -0.0000000000     0.999959    0.00000236
   56      -16.4049798834      -0.0000000000     0.999959    0.00000205
   57      -16.4049798834      -0.0000000000     0.999959    0.00000178
   58      -16.4049798834      -0.0000000000     0.999959    0.00000154
   59      -16.4049798834      -0.0000000000     0.999959    0.00000134
   60      -16.4049798834      -0.0000000000     0.999959    0.00000116
   61      -16.4049798834      -0.0000000000     0.999959    0.00000101
   62      -16.4049798834      -0.0000000000     0.999959    0.00000088
  
--------------------------------------------------
 Final SA-REKS(2,2) energy:     -16.40497988
  
 State     Energy      FON(1)    FON(2)   Spin
  PPS  -16.46109999   1.999918  0.000082  0.00
  OSS  -16.34885977   1.000000  1.000000  0.00
 Trip  -16.38933316   1.000000  1.000000  1.00
--------------------------------------------------

 Lagrangian Wab:   0.01493368  0.01493411

--------------------------------------------------
 SSR: 2SI-2SA-REKS(2,2) Hamiltonian matrix
               PPS           OSS
   PPS   -16.46109999    0.02098411
   OSS     0.02098411  -16.34885977
--------------------------------------------------

----------------------------------------------------------------
 SSR: 2SI-2SA-REKS(2,2) states
                    E_n       C_{PPS}    C_{OSS}
 SSR state  1  -16.46489482  -0.984038   0.177956
 SSR state  2  -16.34506495  -0.177956  -0.984038
----------------------------------------------------------------

 unrelaxed SSR FONs for S0:  1.968253  0.031747

Total Energy:                      -16.4648948208 H         -448.0326 eV
Extrapolated to 0:                 -16.4648948208 H         -448.0326 eV

----------------------------------------------------------------------------------
 Solving CP-REKS equation for  1 state vector...
----------------------------------------------------------------------------------
  CG solver: Constructing Y initial guess
  CG solver: Iteration    1    eps =    0.004958695187
  CG solver: Iteration    2    eps =    0.000505090217
  CG solver: Iteration    3    eps =    0.000062772649
  CG solver: Iteration    4    eps =    0.000010083606
  CG solver: Iteration    5    eps =    0.000001336614
  CG solver: Iteration    6    eps =    0.000000198239
  CG solver: Iteration    7    eps =    0.000000041333
  CG solver: Iteration    8    eps =    0.000000008396
  Convergence reached in CG solver after    8 iterations
  CG solver: Calculating converged R, Z, Q2 matrix
----------------------------------------------------------------------------------

----------------------------------------------------------------------------------
 Solving CP-REKS equation for SI between  1 and  2 state vectors...
----------------------------------------------------------------------------------
  CG solver: Constructing Y initial guess
  CG solver: Iteration    1    eps =    0.041595182518
  CG solver: Iteration    2    eps =    0.004296784430
  CG solver: Iteration    3    eps =    0.001392531065
  CG solver: Iteration    4    eps =    0.000072928010
  CG solver: Iteration    5    eps =    0.000010483293
  CG solver: Iteration    6    eps =    0.000002168050
  CG solver: Iteration    7    eps =    0.000000197131
  CG solver: Iteration    8    eps =    0.000000042639
  CG solver: Iteration    9    eps =    0.000000008385
  Convergence reached in CG solver after    9 iterations
  CG solver: Calculating converged R, Z, Q2 matrix
----------------------------------------------------------------------------------

--------------------------------------------------
 Gradient Information
--------------------------------------------------
           1 st state (SSR)
    -0.00576375     0.01922380     0.03762046
    -0.00992854     0.02728711    -0.02145071
    -0.00105977    -0.00594458    -0.01736276
     0.01758725    -0.00476700    -0.00618049
    -0.00507720    -0.01117713    -0.00388341
    -0.05984052    -0.03655925     0.08135539
     0.02695608    -0.02939423    -0.10028502
    -0.00142350    -0.00844109    -0.00722429
     0.00751852     0.03071103     0.04297444
     0.06139147     0.07823048     0.00705908
     0.01871083    -0.02731516    -0.01065496
    -0.13877337    -0.02109631    -0.03785789
     0.06274535    -0.04959363    -0.01699603
     0.02695714     0.03883594     0.05288620

           2 st state (SSR)
     0.01225685     0.03903034     0.03145610
    -0.02260358    -0.01681218    -0.03115269
     0.00157146    -0.00573231    -0.01709245
     0.00926723    -0.00378706    -0.00558886
    -0.00567156    -0.01123177    -0.00291896
     0.03806485     0.02031426     0.06428558
    -0.08956787    -0.06847721    -0.06050257
    -0.00556351     0.00804202    -0.00469975
     0.01721358     0.00480924     0.04738016
     0.10760354     0.11761601    -0.00066964
     0.01971297    -0.03123893    -0.00614118
    -0.17268063    -0.04627423    -0.04669968
     0.06320709    -0.04815101    -0.01824299
     0.02718958     0.04189284     0.05058695
--------------------------------------------------
 Coupling Information
--------------------------------------------------
 between  1 and  2 states
--------------------------------------------------
 g vector - difference gradient
    -0.00978560    -0.01080542     0.00210005
     0.00934660     0.02706844     0.00990621
    -0.00042828     0.00015687    -0.00011847
     0.00304311    -0.00001920     0.00016015
     0.00173984    -0.00118633    -0.00083124
    -0.07430103    -0.03898125     0.00949937
     0.08101609     0.02878672    -0.02749694
     0.00395320    -0.01154123    -0.00169337
    -0.00554287     0.01698116    -0.00304029
    -0.01664002    -0.01803678     0.01029049
    -0.00025654     0.00225012    -0.00302931
     0.00765223     0.00577788     0.00354378
     0.00018552    -0.00003149    -0.00055998
     0.00001777    -0.00041949     0.00126956

 h vector - derivative coupling
    -0.00044401    -0.00062179    -0.00318402
     0.00690141     0.00943480     0.01264246
     0.00261101     0.00072257     0.00006908
    -0.00373935     0.00134764     0.00127292
     0.00380451    -0.00325075    -0.00084621
    -0.05893913    -0.02305774     0.00103590
     0.05031756     0.02119159    -0.01674362
     0.00466208    -0.00733425    -0.00092468
    -0.00098298     0.00843650    -0.00184125
     0.02147132     0.00799009     0.01648727
     0.00074459     0.00041606    -0.00165763
    -0.02794168    -0.02049224    -0.00314524
     0.00115533     0.00197531    -0.00327782
     0.00037935     0.00324222     0.00011285

 G vector - GDV
    -0.00901030    -0.00990327     0.00308218
     0.00633752     0.02204964     0.00485099
    -0.00131562    -0.00010613    -0.00013515
     0.00416001    -0.00048997    -0.00029581
     0.00029718     0.00002732    -0.00048222
    -0.04895268    -0.02843675     0.00853490
     0.05826197     0.01954149    -0.01989122
     0.00207001    -0.00824155    -0.00126227
    -0.00484753     0.01295090    -0.00220286
    -0.02310603    -0.01969277     0.00386436
    -0.00050107     0.00196188    -0.00225689
     0.01695363     0.01258896     0.00442089
    -0.00023087    -0.00072131     0.00062348
    -0.00011622    -0.00152845     0.00114963

 H vector - DCV - non-adiabatic coupling
    -0.03207145    -0.03644175    -0.01875038
     0.08126330     0.15286216     0.12777441
     0.01915750     0.00610655     0.00019370
    -0.02033483     0.01047785     0.01041796
     0.03482343    -0.02887718    -0.00904402
    -0.67786670    -0.29416542     0.03586142
     0.63010168     0.24978247    -0.21124474
     0.04799580    -0.09106101    -0.01217714
    -0.02388395     0.11557636    -0.02327834
     0.11919842     0.00973856     0.15895101
     0.00507033     0.00982872    -0.02181093
    -0.19604368    -0.14329256    -0.01422754
     0.00957297     0.01534817    -0.02725809
     0.00301717     0.02411708     0.00459267
--------------------------------------------------


--------------------------------------------------------------------------------
DFTB+ running times                          cpu [s]             wall clock [s]
--------------------------------------------------------------------------------
SCC                                    +     0.08  ( 24.9%)      0.08  ( 25.1%)
      Dense to sparse                        0.01  (  4.6%)      0.01  (  4.0%)
Post-SCC processing                    +     0.24  ( 74.4%)      0.24  ( 73.4%)
  Force calculation                          0.24  ( 74.3%)      0.24  ( 73.1%)
--------------------------------------------------------------------------------
Missing                                +     0.00  (  0.7%)      0.01  (  1.5%)
Total                                  =     0.32  (100.0%)      0.32  (100.0%)
--------------------------------------------------------------------------------
