     6
  Step:     0            Position(A)                                  Velocity(au)
C        -0.03856591     0.00908592     0.03760855     0.00010667     0.00003727    -0.00005951
N        -0.03726368    -0.05923724     1.28225352    -0.00008823     0.00004927     0.00007837
H         0.89341255     0.01476490    -0.52651604    -0.00092961    -0.00022640     0.00014836
H         0.78704057    -0.07976559     1.83197965     0.00089016    -0.00038565     0.00043475
H        -0.95250467    -0.02332315     1.82934380     0.00033417    -0.00028755    -0.00083031
H        -0.96350366     0.13345946    -0.50955749    -0.00033977    -0.00022917    -0.00013280
     6
  Step:     1            Position(A)                                  Velocity(au)
C        -0.03797614     0.00928508     0.03684695     0.00010780     0.00003557    -0.00021827
N        -0.03781087    -0.05900637     1.28305463    -0.00011024     0.00003511     0.00021435
H         0.88865205     0.01366376    -0.52572821    -0.00080254    -0.00017574     0.00013419
H         0.79254296    -0.08173530     1.83466729     0.00110654    -0.00033466     0.00053918
H        -0.95043181    -0.02477553     1.82462208     0.00041604    -0.00024258    -0.00089029
H        -0.96574238     0.13240141    -0.51036888    -0.00047279    -0.00015879    -0.00016095
     6
  Step:     2            Position(A)                                  Velocity(au)
C        -0.03738680     0.00947497     0.03522121     0.00010647     0.00003383    -0.00037502
N        -0.03846940    -0.05885319     1.28459802    -0.00012868     0.00002084     0.00034928
H         0.88463462     0.01284275    -0.52504832    -0.00065967    -0.00012365     0.00010894
H         0.79914358    -0.08342600     1.83787698     0.00128957    -0.00028326     0.00062512
H        -0.94795420    -0.02597645     1.81960608     0.00048069    -0.00019531    -0.00093628
H        -0.96867484     0.13172269    -0.51131787    -0.00059116    -0.00009046    -0.00018280
     6
  Step:     3            Position(A)                                  Velocity(au)
C        -0.03681153     0.00965512     0.03274489     0.00010259     0.00003198    -0.00052842
N        -0.03921841    -0.05877844     1.28687513    -0.00014299     0.00000645     0.00048175
H         0.88143653     0.01231126    -0.52453659    -0.00050484    -0.00006981     0.00007283
H         0.80664842    -0.08483364     1.84150492     0.00143433    -0.00023095     0.00069150
H        -0.94517393    -0.02691191     1.81438095     0.00052493    -0.00014542    -0.00096427
H        -0.97220857     0.13141199    -0.51236842    -0.00068994    -0.00002446    -0.00019794
     6
  Step:     4            Position(A)                                  Velocity(au)
C        -0.03626411     0.00982495     0.02943836     0.00009620     0.00003010    -0.00067666
N        -0.04003418    -0.05878265     1.28987006    -0.00015263    -0.00000790     0.00060991
H         0.87910991     0.01207882    -0.52425125    -0.00034304    -0.00001494     0.00002650
H         0.81484030    -0.08595340     1.84544441     0.00153663    -0.00017829     0.00073785
H        -0.94220956    -0.02756786     1.80905351     0.00054573    -0.00009362    -0.00097022
H        -0.97622527     0.13145497    -0.51348405    -0.00076473     0.00003798    -0.00020658
     6
  Step:     5            Position(A)                                  Velocity(au)
C        -0.03575758     0.00998485     0.02533182     0.00008753     0.00002842    -0.00081710
N        -0.04089053    -0.05886497     1.29355690    -0.00015719    -0.00002180     0.00073124
H         0.87767840     0.01214758    -0.52424632    -0.00017940     0.00003880    -0.00002888
H         0.82348272    -0.08678692     1.84958835     0.00159330    -0.00012714     0.00076399
H        -0.93919527    -0.02793751     1.80375186     0.00054028    -0.00004196    -0.00095066
H        -0.98058638     0.13182802    -0.51463159    -0.00081291     0.00009464    -0.00020953
     6
  Step:     6            Position(A)                                  Velocity(au)
C        -0.03530350     0.01013684     0.02047116     0.00007689     0.00002719    -0.00094596
N        -0.04175922    -0.05902192     1.29789504    -0.00015635    -0.00003474     0.00084231
H         0.87714107     0.01250464    -0.52456814    -0.00001779     0.00008854    -0.00009134
H         0.83232590    -0.08734873     1.85382876     0.00160280    -0.00007984     0.00076967
H        -0.93628023    -0.02802832     1.79862055     0.00050605     0.00000689    -0.00090344
H        -0.98514659     0.13249360    -0.51578356    -0.00083472     0.00014313    -0.00020783
     6
  Step:     7            Position(A)                                  Velocity(au)
C        -0.03491161     0.01028404     0.01492447     0.00006466     0.00002649    -0.00105878
N        -0.04261062    -0.05924717     1.30282386    -0.00014999    -0.00004625     0.00093913
H         0.87748269     0.01312171    -0.52525126     0.00013937     0.00013206    -0.00015830
H         0.84111648    -0.08766534     1.85805616     0.00156575    -0.00003800     0.00075496
H        -0.93362773    -0.02786170     1.79381233     0.00044131     0.00005096    -0.00082827
H        -0.98976989     0.13340268    -0.51691811    -0.00083273     0.00018202    -0.00020246
     6
  Step:     8            Position(A)                                  Velocity(au)
C        -0.03458976     0.01042924     0.00878470     0.00005125     0.00002616    -0.00115131
N        -0.04341473    -0.05953240     1.30826083    -0.00013826    -0.00005606     0.00101798
H         0.87867935     0.01396230    -0.52631543     0.00028996     0.00016849    -0.00022682
H         0.84960811    -0.08776813     1.86216177     0.00148500    -0.00000201     0.00072079
H        -0.93140921    -0.02746586     1.78947839     0.00034614     0.00008956    -0.00072679
H        -0.99433792     0.13450267    -0.51801821    -0.00081048     0.00021126    -0.00019435
     6
  Step:     9            Position(A)                                  Velocity(au)
C        -0.03434370     0.01057390     0.00216670     0.00003712     0.00002595    -0.00122054
N        -0.04414273    -0.05986833     1.31410416    -0.00012167    -0.00006405     0.00107622
H         0.88069580     0.01498876    -0.52776466     0.00043133     0.00019796    -0.00029403
H         0.85757187    -0.08768760     1.86604325     0.00136562     0.00002846     0.00066936
H        -0.92979213    -0.02686934     1.78575876     0.00022324     0.00012286    -0.00060252
H        -0.99875088     0.13574362    -0.51907175    -0.00077168     0.00023164    -0.00018452
     6
  Step:    10            Position(A)                                  Velocity(au)
C        -0.03417664     0.01071804    -0.00480010     0.00002280     0.00002564    -0.00126539
N        -0.04476899    -0.06024533     1.32023942    -0.00010110    -0.00007026     0.00111298
H         0.88348019     0.01616566    -0.52958800     0.00056040     0.00022112    -0.00035747
H         0.86480775    -0.08745135     1.86961193     0.00121495     0.00005397     0.00060425
H        -0.92892446    -0.02609837     1.78277227     0.00007807     0.00015139    -0.00046078
H        -1.00292691     0.13708090    -0.52007198    -0.00072014     0.00024438    -0.00017402
     6
  Step:    11            Position(A)                                  Velocity(au)
C        -0.03408881     0.01086062    -0.01198202     0.00000884     0.00002511    -0.00128720
N        -0.04527319    -0.06065396     1.32654877    -0.00007774    -0.00007482     0.00112948
H         0.88696185     0.01746118    -0.53176167     0.00067451     0.00023888    -0.00041538
H         0.87115665    -0.08708412     1.87279953     0.00104216     0.00007510     0.00052999
H        -0.92891925    -0.02517656     1.78060665    -0.00008186     0.00017576    -0.00030819
H        -1.00680295     0.13847611    -0.52101756    -0.00065987     0.00025086    -0.00016383
     6
  Step:    12            Position(A)                                  Velocity(au)
C        -0.03407739     0.01099999    -0.01925385    -0.00000427     0.00002431    -0.00128971
N        -0.04564193    -0.06108552     1.33292219    -0.00005292    -0.00007799     0.00112906
H         0.89105418     0.01884797    -0.53425225     0.00077220     0.00025237    -0.00046677
H         0.87651006    -0.08660802     1.87556306     0.00085719     0.00009248     0.00045153
H        -0.92984363    -0.02412477     1.77931166    -0.00024821     0.00019669    -0.00015167
H        -1.01033644     0.13989778    -0.52191164    -0.00059499     0.00025263    -0.00015473
     6
  Step:    13            Position(A)                                  Velocity(au)
C        -0.03413688     0.01113447    -0.02651185    -0.00002588     0.00003724    -0.00204566
N        -0.04586938    -0.06153262     1.33926874    -0.00004460    -0.00012820     0.00178668
H         0.89566150     0.02030434    -0.53702028     0.00136585     0.00042068    -0.00081826
H         0.88081377    -0.08604222     1.87788647     0.00107092     0.00017093     0.00059764
H        -0.93171558    -0.02296062     1.77889790    -0.00066148     0.00034411     0.00000437
H        -1.01350610     0.14132225    -0.52276076    -0.00084720     0.00040216    -0.00023597
     6
  Step:    14            Position(A)                                  Velocity(au)
C        -0.03430128     0.01132776    -0.03760681    -0.00003099     0.00003042    -0.00184515
N        -0.04605090    -0.06223409     1.34900095    -0.00001966    -0.00011779     0.00162539
H         0.90369936     0.02263253    -0.54206811     0.00144006     0.00039657    -0.00094093
H         0.88629922    -0.08508561     1.88103193     0.00085573     0.00016451     0.00050805
H        -0.93590276    -0.02107730     1.77939661    -0.00080024     0.00031720     0.00016458
H        -1.01836099     0.14359876    -0.52439173    -0.00085318     0.00039609    -0.00033187
     6
  Step:    15            Position(A)                                  Velocity(au)
C        -0.03449064     0.01148173    -0.04757520    -0.00003460     0.00002353    -0.00165052
N        -0.04609375    -0.06287724     1.35782341     0.00000365    -0.00010770     0.00146756
H         0.91210053     0.02483137    -0.54776152     0.00149072     0.00037477    -0.00104323
H         0.89058238    -0.08416420     1.88368608     0.00065027     0.00015845     0.00042551
H        -0.94085075    -0.01933964     1.78077669    -0.00092369     0.00029248     0.00031116
H        -1.02324563     0.14584383    -0.52654918    -0.00085573     0.00039060    -0.00041967
     6
  Step:    16            Position(A)                                  Velocity(au)
C        -0.03469641     0.01159648    -0.05645705    -0.00001752     0.00000798    -0.00069785
N        -0.04600927    -0.06346412     1.36576173     0.00001175    -0.00004671     0.00062693
H         0.92072466     0.02691273    -0.55398265     0.00072283     0.00016917    -0.00053618
H         0.89372582    -0.08327603     1.88589163     0.00021791     0.00007280     0.00016726
H        -0.94645211    -0.01773690     1.78295027    -0.00048876     0.00012841     0.00021014
H        -1.02813412     0.14805978    -0.52918470    -0.00040654     0.00018370    -0.00023767
     6
  Step:    17            Position(A)                                  Velocity(au)
C        -0.03481549     0.01163862    -0.06037214    -0.00002429     0.00000700    -0.00069370
N        -0.04588007    -0.06373349     1.36926585     0.00003317    -0.00004895     0.00061862
H         0.92485538     0.02790299    -0.55704278     0.00074030     0.00018260    -0.00054932
H         0.89445765    -0.08283447     1.88666675     0.00004782     0.00008378     0.00011121
H        -0.94959416    -0.01695297     1.78451158    -0.00061966     0.00014964     0.00033924
H        -1.03023103     0.14908517    -0.53050332    -0.00034000     0.00018081    -0.00023149
     6
  Step:    18            Position(A)                                  Velocity(au)
C        -0.03496956     0.01167516    -0.06425683    -0.00003026     0.00000605    -0.00069476
N        -0.04563627    -0.06401448     1.37271727     0.00005284    -0.00005141     0.00061505
H         0.92904834     0.02896582    -0.56015908     0.00075342     0.00019716    -0.00056242
H         0.89426354    -0.08233408     1.88714199    -0.00011127     0.00009479     0.00006193
H        -0.95341934    -0.01605438     1.78676458    -0.00073779     0.00017098     0.00046030
H        -1.03195696     0.15009273    -0.53178746    -0.00027809     0.00017942    -0.00022809
     6
  Step:    19            Position(A)                                  Velocity(au)
C        -0.03515388     0.01170629    -0.06814005    -0.00003532     0.00000509    -0.00069771
N        -0.04528923    -0.06430833     1.37614262     0.00007033    -0.00005389     0.00061330
H         0.93327917     0.03010740    -0.56333102     0.00075888     0.00021213    -0.00057297
H         0.89321360    -0.08177467     1.88735918    -0.00025857     0.00010558     0.00001967
H        -0.95784319    -0.01504129     1.78965811    -0.00083745     0.00019173     0.00057123
H        -1.03334028     0.15109121    -0.53305357    -0.00021928     0.00017879    -0.00022665
     6
  Step:    20            Position(A)                                  Velocity(au)
C        -0.03536319     0.01173192    -0.07203258    -0.00003935     0.00000409    -0.00070055
N        -0.04485251    -0.06461509     1.37955230     0.00008513    -0.00005624     0.00061159
H         0.93750585     0.03132992    -0.56654468     0.00075475     0.00022699    -0.00057949
H         0.89138189    -0.08115747     1.88736124    -0.00039181     0.00011594    -0.00001470
H        -0.96275244    -0.01391761     1.79313072    -0.00091386     0.00021131     0.00066983
H        -1.03440075     0.15208524    -0.53431336    -0.00016320     0.00017851    -0.00022675
     6
  Step:    21            Position(A)                                  Velocity(au)
C        -0.03559171     0.01175183    -0.07593416    -0.00004229     0.00000304    -0.00070212
N        -0.04434207    -0.06493402     1.38294698     0.00009684    -0.00005836     0.00060891
H         0.94167624     0.03263278    -0.56977817     0.00074012     0.00024138    -0.00058117
H         0.88885448    -0.08048481     1.88719558    -0.00050821     0.00012572    -0.00004012
H        -0.96801046    -0.01269031     1.79711044    -0.00096363     0.00022928     0.00075437
H        -1.03515595     0.15307721    -0.53557630    -0.00011008     0.00017839    -0.00022826
     6
  Step:    22            Position(A)                                  Velocity(au)
C        -0.03583330     0.01176571    -0.07983812    -0.00004408     0.00000192    -0.00070176
N        -0.04377598    -0.06526387     1.38632163     0.00010511    -0.00006020     0.00060468
H         0.94573385     0.03401338    -0.57300555     0.00071488     0.00025507    -0.00057773
H         0.88573212    -0.07975979     1.88691521    -0.00060500     0.00013485    -0.00005551
H        -0.97346515    -0.01136870     1.80151716    -0.00098487     0.00024531     0.00082372
H        -1.03562453     0.15406844    -0.53685096    -0.00006044     0.00017838    -0.00023117
     6
  Step:    23            Position(A)                                  Velocity(au)
C        -0.03608162     0.01177321    -0.08373419    -0.00004471     0.00000075    -0.00069915
N        -0.04317379    -0.06560310     1.38966800     0.00010975    -0.00006172     0.00059861
H         0.94962210     0.03546784    -0.57619959     0.00067947     0.00026789    -0.00056924
H         0.88212988    -0.07898597     1.88657856    -0.00067983     0.00014327    -0.00006000
H        -0.97895727    -0.00996370     1.80626602    -0.00097716     0.00025921     0.00087739
H        -1.03582774     0.15505984    -0.53814578    -0.00001487     0.00017845    -0.00023553
     6
  Step:    24            Position(A)                                  Velocity(au)
C        -0.03633035     0.01177399    -0.08761034    -0.00007925    -0.00000088    -0.00124409
N        -0.04255589    -0.06595000     1.39297616     0.00019840    -0.00011277     0.00105840
H         0.95328732     0.03699142    -0.57933366     0.00113757     0.00050137    -0.00099650
H         0.87817467    -0.07816712     1.88624825    -0.00130990     0.00027057    -0.00009493
H        -0.98432797    -0.00848716     1.81127079    -0.00168706     0.00048548     0.00164075
H        -1.03578984     0.15605225    -0.53946933     0.00004670     0.00032019    -0.00043265
     6
  Step:    25            Position(A)                                  Velocity(au)
C        -0.03676154     0.01175080    -0.09421493    -0.00007436    -0.00000737    -0.00111765
N        -0.04146203    -0.06655957     1.39862479     0.00018970    -0.00010505     0.00096104
H         0.95969374     0.03976769    -0.58512503     0.00114425     0.00049084    -0.00106643
H         0.87086246    -0.07666971     1.88578936    -0.00128336     0.00026448    -0.00005854
H        -0.99355032    -0.00585434     1.82044094    -0.00158773     0.00045459     0.00162435
H        -1.03572438     0.15789297    -0.54218423    -0.00002329     0.00033780    -0.00053638
     6
  Step:    26            Position(A)                                  Velocity(au)
C        -0.03716282     0.01169148    -0.10012240    -0.00006823    -0.00001367    -0.00098914
N        -0.04043216    -0.06712608     1.40373495     0.00017474    -0.00009680     0.00086080
H         0.96609716     0.04248634    -0.59127232     0.00112938     0.00047773    -0.00111678
H         0.86380746    -0.07520626     1.88559290    -0.00121147     0.00025693    -0.00000191
H        -1.00210255    -0.00339806     1.82945540    -0.00144182     0.00041985     0.00157682
H        -1.03605054     0.15983388    -0.54547410    -0.00009133     0.00035357    -0.00063345
     6
  Step:    27            Position(A)                                  Velocity(au)
C        -0.03752778     0.01159728    -0.10532346    -0.00006129    -0.00001969    -0.00086299
N        -0.03949963    -0.06764669     1.40829196     0.00015482    -0.00008840     0.00076126
H         0.97237729     0.04513288    -0.59766706     0.00109645     0.00046336    -0.00115052
H         0.85725701    -0.07378425     1.88576791    -0.00110145     0.00024887     0.00007227
H        -1.00974265    -0.00113921     1.83814939    -0.00126160     0.00038295     0.00150624
H        -1.03675005     0.16186373    -0.54929817    -0.00015451     0.00036788    -0.00072333
     6
  Step:    28            Position(A)                                  Velocity(au)
C        -0.03785248     0.01146990    -0.10983262    -0.00005393    -0.00002540    -0.00074218
N        -0.03869013    -0.06812070     1.41230053     0.00013124    -0.00008014     0.00066492
H         0.97843436     0.04770004    -0.60421785     0.00104900     0.00044882    -0.00117097
H         0.85141402    -0.07240601     1.88640612    -0.00096126     0.00024108     0.00016093
H        -1.01629792     0.00091090     1.84640347    -0.00105813     0.00034529     0.00142006
H        -1.03778906     0.16397319    -0.55361296    -0.00021073     0.00038112    -0.00080621
     6
  Step:    29            Position(A)                                  Velocity(au)
C        -0.03813504     0.01131123    -0.11368041    -0.00004643    -0.00003081    -0.00062832
N        -0.03802188    -0.06854902     1.41577900     0.00010513    -0.00007221     0.00057323
H         0.98418906     0.05018664    -0.61085226     0.00099002     0.00043491    -0.00118120
H         0.84643317    -0.07106972     1.88757995    -0.00079878     0.00023411     0.00026077
H        -1.02165725     0.00274883     1.85413934    -0.00084037     0.00030788     0.00132429
H        -1.03912291     0.16615519    -0.55837618    -0.00025859     0.00039364    -0.00088260
     6
  Step:    30            Position(A)                                  Velocity(au)
C        -0.03837516     0.01112309    -0.11690585    -0.00003899    -0.00003593    -0.00052192
N        -0.03750661    -0.06893357     1.41875357     0.00007747    -0.00006471     0.00048676
H         0.98957944     0.05259595    -0.61751511     0.00092180     0.00042208    -0.00118367
H         0.84242186    -0.06977057     1.88934173    -0.00062152     0.00022829     0.00036839
H        -1.02575829     0.00437679     1.86131156    -0.00061498     0.00027132     0.00122333
H        -1.04070015     0.16840454    -0.56354871    -0.00029718     0.00040562    -0.00095299
     6
  Step:    31            Position(A)                                  Velocity(au)
C        -0.03857359     0.01090717    -0.11955053    -0.00003175    -0.00004079    -0.00042280
N        -0.03715061    -0.06927679     1.42125362     0.00004906    -0.00005766     0.00040554
H         0.99455661     0.05493380    -0.62416504     0.00084586     0.00041053    -0.00118011
H         0.83944285    -0.06850210     1.89172329    -0.00043664     0.00022376     0.00048022
H        -1.02857395     0.00580038     1.86789817    -0.00038674     0.00023595     0.00112012
H        -1.04246526     0.17071723    -0.56909453    -0.00032587     0.00041711    -0.00101771
     6
  Step:    32            Position(A)                                  Velocity(au)
C        -0.03873177     0.01066497    -0.12165478    -0.00002477    -0.00004541    -0.00033036
N        -0.03695560    -0.06958126     1.42330867     0.00002062    -0.00005106     0.00032929
H         0.99908028     0.05720713    -0.63077036     0.00076315     0.00040027    -0.00117167
H         0.83751743    -0.06725726     1.89473563    -0.00025095     0.00022049     0.00059255
H        -1.03010224     0.00702701     1.87389295    -0.00015925     0.00020191     0.00101664
H        -1.04436039     0.17308963    -0.57497981    -0.00034428     0.00042805    -0.00107684
     6
  Step:    33            Position(A)                                  Velocity(au)
C        -0.03885145     0.01039784    -0.12325565    -0.00001811    -0.00004982    -0.00024391
N        -0.03691936    -0.06984946     1.42494669    -0.00000719    -0.00004486     0.00025761
H         1.00311555     0.05942295    -0.63730562     0.00067430     0.00039118    -0.00115901
H         0.83662838    -0.06602922     1.89836886    -0.00007095     0.00021837     0.00070162
H        -1.03035999     0.00806490     1.87930009     0.00006455     0.00016928     0.00091426
H        -1.04632646     0.17551790    -0.58117162    -0.00035216     0.00043828    -0.00113027
     6
  Step:    34            Position(A)                                  Velocity(au)
C        -0.03893458     0.01010706    -0.12438610    -0.00001178    -0.00005402    -0.00016272
N        -0.03703613    -0.07008364     1.42619339    -0.00003377    -0.00003902     0.00019008
H         1.00663123     0.06158767    -0.64374916     0.00057980     0.00038310    -0.00114254
H         0.83672293    -0.06481190     1.90259248     0.00009729     0.00021721     0.00080375
H        -1.02937946     0.00892261     1.88413101     0.00028199     0.00013808     0.00081404
H        -1.04830397     0.17799750    -0.58763677    -0.00034943     0.00044761    -0.00117774
     6
  Step:    35            Position(A)                                  Velocity(au)
C        -0.03898323     0.00979381    -0.12507512    -0.00000581    -0.00005801    -0.00008615
N        -0.03729695    -0.07028583     1.42707213    -0.00005855    -0.00003350     0.00012634
H         1.00959889     0.06370678    -0.65008147     0.00048009     0.00037583    -0.00112245
H         0.83771632    -0.06360034     1.90735638     0.00024832     0.00021679     0.00089547
H        -1.02720677     0.00960886     1.88840261     0.00049053     0.00010835     0.00071687
H        -1.05023375     0.18052303    -0.59434105    -0.00033612     0.00045585    -0.00121889
     6
  Step:    36            Position(A)                                  Velocity(au)
C        -0.03899947     0.00945925    -0.12534821    -0.00000020    -0.00006179    -0.00001370
N        -0.03768996    -0.07045779     1.42760422    -0.00008102    -0.00002826     0.00006607
H         1.01199261     0.06578476    -0.65628407     0.00037564     0.00036919    -0.00109885
H         0.83949608    -0.06239087     1.91259254     0.00037750     0.00021687     0.00097366
H        -1.02390156     0.01013262     1.89213656     0.00068756     0.00008017     0.00062365
H        -1.05205758     0.18308812    -0.60124867    -0.00031244     0.00046279    -0.00125336
     6
  Step:    37            Position(A)                                  Velocity(au)
C        -0.03898541     0.00910457    -0.12522796     0.00000505    -0.00006535     0.00005505
N        -0.03820077    -0.07060110     1.42780915    -0.00010075    -0.00002327     0.00000903
H         1.01378916     0.06782501    -0.66233899     0.00026701     0.00036297    -0.00107177
H         0.84192733    -0.06118116     1.91821749     0.00048120     0.00021720     0.00103574
H        -1.01953712     0.01050319     1.89535931     0.00087045     0.00005364     0.00053530
H        -1.05371901     0.18568545    -0.60832217    -0.00027875     0.00046828    -0.00128078
     6
  Step:    38            Position(A)                                  Velocity(au)
C        -0.03894317     0.00873097    -0.12473470     0.00000993    -0.00006868     0.00012041
N        -0.03881282    -0.07071714     1.42770488    -0.00011737    -0.00001850    -0.00004499
H         1.01496835     0.06982993    -0.66822843     0.00015485     0.00035703    -0.00104125
H         0.84485882    -0.05997028     1.92413536     0.00055692     0.00021754     0.00107971
H        -1.01420079     0.01073041     1.89810218     0.00103651     0.00002888     0.00045279
H        -1.05516407     0.18830683    -0.61552235    -0.00023554     0.00047214    -0.00130082
     6
  Step:    39            Position(A)                                  Velocity(au)
C        -0.03887486     0.00833969    -0.12388705     0.00001443    -0.00007178     0.00018259
N        -0.03950785    -0.07080717     1.42730809    -0.00013059    -0.00001395    -0.00009618
H         1.01551360     0.07180103    -0.67393472     0.00003989     0.00035121    -0.00100733
H         0.84812940    -0.05875857     1.93024149     0.00060337     0.00021767     0.00110426
H        -1.00799415     0.01082479     1.90040178     0.00118307     0.00000604     0.00037717
H        -1.05634212     0.19094337    -0.62280857    -0.00018349     0.00047427    -0.00131323
     6
  Step:    40            Position(A)                                  Velocity(au)
C        -0.03878261     0.00793203    -0.12270245     0.00001854    -0.00007463     0.00024173
N        -0.04026633    -0.07087239     1.42663432    -0.00014021    -0.00000959    -0.00014470
H         1.01541231     0.07373896    -0.67944031    -0.00007704     0.00034537    -0.00097008
H         0.85157448    -0.05754753     1.93642610     0.00062037     0.00021741     0.00110876
H        -1.00103288     0.01079761     1.90230021     0.00130754    -0.00001472     0.00030950
H        -1.05720637     0.19358561    -0.63013898    -0.00012333     0.00047458    -0.00131782
     6
  Step:    41            Position(A)                                  Velocity(au)
C        -0.03866857     0.00750932    -0.12119755     0.00002227    -0.00007723     0.00029791
N        -0.04106791    -0.07091391     1.42569812    -0.00014613    -0.00000544    -0.00019069
H         1.01465642     0.07564371    -0.68472798    -0.00019502     0.00033942    -0.00092960
H         0.85503172    -0.05633966     1.94257774     0.00060878     0.00021659     0.00109321
H        -0.99344624     0.01066106     1.90384533     0.00140746    -0.00003321     0.00025088
H        -1.05771436     0.19622363    -0.63747086    -0.00005593     0.00047301    -0.00131449
     6
  Step:    42            Position(A)                                  Velocity(au)
C        -0.03853493     0.00707296    -0.11938854     0.00002559    -0.00007956     0.00035118
N        -0.04189182    -0.07093287     1.42451309    -0.00014829    -0.00000148    -0.00023430
H         1.01324289     0.07751469    -0.68978111    -0.00031307     0.00033328    -0.00088608
H         0.85834653    -0.05513826     1.94858683     0.00057043     0.00021509     0.00105824
H        -0.98537650     0.01042820     1.90509095     0.00148064    -0.00004928     0.00020237
H        -1.05782857     0.19884730    -0.64476121     0.00001774     0.00046955    -0.00130327
     6
  Step:    43            Position(A)                                  Velocity(au)
C        -0.03838391     0.00662437    -0.11729136     0.00002851    -0.00008163     0.00040154
N        -0.04271736    -0.07093040     1.42309196    -0.00014676     0.00000227    -0.00027566
H         1.01117407     0.07935085    -0.69458400    -0.00043016     0.00032688    -0.00083974
H         0.86137665    -0.05394719     1.95434873     0.00050782     0.00021283     0.00100500
H        -0.97697683     0.01011292     1.90609637     0.00152540    -0.00006279     0.00016492
H        -1.05751700     0.20144651    -0.65196734     0.00009665     0.00046423    -0.00128430
     6
  Step:    44            Position(A)                                  Velocity(au)
C        -0.03821777     0.00616498    -0.11492190     0.00003102    -0.00008343     0.00044899
N        -0.04352436    -0.07090765     1.42144672    -0.00014168     0.00000581    -0.00031488
H         1.00845793     0.08115087    -0.69912220    -0.00054523     0.00032020    -0.00079087
H         0.86399537    -0.05277074     1.95976616     0.00042405     0.00020978     0.00093503
H        -0.96840828     0.00972974     1.90692543     0.00154073    -0.00007366     0.00013918
H        -1.05675347     0.20401130    -0.65904750     0.00017969     0.00045712    -0.00125784
     6