|===============================================================================
|
|  DFTB+ release 20.1
|
|  Copyright (C) 2006 - 2020  DFTB+ developers group
|
|===============================================================================
|
|  When publishing results obtained with DFTB+, please cite the following
|  reference:
|
|  * DFTB+, a software package for efficient approximate density functional
|    theory based atomistic simulations, J. Chem. Phys. 152, 124101 (2020).
|    [doi: 10.1063/1.5143190]
|
|  You should also cite additional publications crediting the parametrization
|  data you use. Please consult the documentation of the SK-files for the
|  references.
|
|===============================================================================

Reading input file 'dftb_in.hsd'
Parser version: 8

--------------------------------------------------------------------------------
Reading SK-files:
Done.


Processed input in HSD format written to 'dftb_pin.hsd'

Starting initialization...
--------------------------------------------------------------------------------
OpenMP threads:              1
Chosen random seed:          500861814
Mode:                        Static calculation
Self consistent charges:     Yes
SCC-tolerance:                 0.100000E-05
Max. scc iterations:                   1000
Shell resolved Hubbard:      No
Spin polarisation:           No
Nr. of up electrons:            16.000000
Nr. of down electrons:          16.000000
Periodic boundaries:         No
Electronic solver:           Relatively robust
Maximal SCC-cycles:                    1000
Initial charges:             Set automatically (system chrg:   0.100E+01)
Included shells:             C:  s, p
                             H:  s
                             N:  s, p
Spin coupling constants:     C   1(s)-1(s):  -0.455900E-01
                             C   1(s)-2(p):  -0.293000E-01
                             C   2(p)-1(s):  -0.293000E-01
                             C   2(p)-2(p):  -0.275500E-01
                             H   1(s)-1(s):  -0.792500E-01
                             N   1(s)-1(s):  -0.468700E-01
                             N   1(s)-2(p):  -0.317000E-01
                             N   2(p)-1(s):  -0.317000E-01
                             N   2(p)-2(p):  -0.307200E-01
Range separated hybrid:      Yes
  Screening parameter omega:   0.300000E+00
  Range separated algorithm:   MatrixBased
Extra options:
                             Mulliken analysis
                             Force calculation
Force type                   original
                             Eigenvector printing


REKS Calcuation:             Yes
SSR(2,2) Calcuation:         Yes
Energy Functional:           (PPS+OSS)/2
Number of Core Orbitals:                 15
Number of Active Orbitals:                2
Number of Basis:                         32
Number of States:                         2
State-Averaging Weight:          0.500000
                                 0.500000
State of Interest:                        1
Initial Guess:               Diagonalize H0 matrix
Newton-Raphson for FON opt:  Yes
NR max. Iterations:                      50
Level Shifting:              Yes
Shift Value:                     0.300000
W Scale Factor:              C  =    3.200000
                             H  =    3.200000
                             N  =    3.200000
Transition Dipole:           No
Gradient of Microstate:      No
CP-REKS Solver:              Preconditioned Conjugate-Gradient
CG max. Iterations:                     100
CG Tolerance:                  0.100000E-07
Memory for A and Hxc:        Direct Updating Without Saving
Non-Adiabatic Coupling:      Yes

--------------------------------------------------------------------------------

***  Geometry step: 0

  iSCC       reks energy        Diff energy         x_a       SCC error   
    1      -16.4257067766       0.0000000000     0.999820    1.18590363
    2      -16.4380233045      -0.0123165279     0.999974    0.04113208
    3      -16.4406041139      -0.0025808094     0.999990    0.01942755
    4      -16.4415367703      -0.0009326565     0.999995    0.01179904
    5      -16.4419700784      -0.0004333081     0.999997    0.00784598
    6      -16.4422043208      -0.0002342424     0.999998    0.00546035
    7      -16.4423462650      -0.0001419442     0.999998    0.00391785
    8      -16.4424407748      -0.0000945098     0.999998    0.00292261
    9      -16.4425086297      -0.0000678549     0.999999    0.00239837
   10      -16.4425601414      -0.0000515117     0.999999    0.00200075
   11      -16.4426007678      -0.0000406264     0.999999    0.00169122
   12      -16.4426336085      -0.0000328407     0.999999    0.00144525
   13      -16.4426605646      -0.0000269561     0.999999    0.00124640
   14      -16.4426828956      -0.0000223310     0.999999    0.00108323
   15      -16.4427014961      -0.0000186005     0.999999    0.00094759
   16      -16.4427170375      -0.0000155414     0.999999    0.00086970
   17      -16.4427300447      -0.0000130072     0.999999    0.00081247
   18      -16.4427409398      -0.0000108950     0.999999    0.00075585
   19      -16.4427500680      -0.0000091283     0.999999    0.00070084
   20      -16.4427577156      -0.0000076476     0.999999    0.00064809
   21      -16.4427641210      -0.0000064054     0.999999    0.00059799
   22      -16.4427694840      -0.0000053630     0.999999    0.00055078
   23      -16.4427739723      -0.0000044883     0.999999    0.00050654
   24      -16.4427777269      -0.0000037545     0.999999    0.00046528
   25      -16.4427808661      -0.0000031393     0.999999    0.00042694
   26      -16.4427834897      -0.0000026236     0.999999    0.00039141
   27      -16.4427856813      -0.0000021916     0.999999    0.00035857
   28      -16.4427875113      -0.0000018300     0.999999    0.00032829
   29      -16.4427890387      -0.0000015274     0.999999    0.00030039
   30      -16.4427903131      -0.0000012744     0.999999    0.00027474
   31      -16.4427913760      -0.0000010629     0.999999    0.00025118
   32      -16.4427922621      -0.0000008862     0.999999    0.00022955
   33      -16.4427930008      -0.0000007386     0.999999    0.00020973
   34      -16.4427936162      -0.0000006155     0.999999    0.00019156
   35      -16.4427941289      -0.0000005127     0.999999    0.00017492
   36      -16.4427945559      -0.0000004270     0.999999    0.00015970
   37      -16.4427949115      -0.0000003555     0.999999    0.00014577
   38      -16.4427952075      -0.0000002960     0.999999    0.00013303
   39      -16.4427954538      -0.0000002463     0.999999    0.00012139
   40      -16.4427956588      -0.0000002050     0.999999    0.00011076
   41      -16.4427958294      -0.0000001706     0.999999    0.00010104
   42      -16.4427959712      -0.0000001419     0.999999    0.00009216
   43      -16.4427960893      -0.0000001180     0.999999    0.00008406
   44      -16.4427961874      -0.0000000982     0.999999    0.00007666
   45      -16.4427962691      -0.0000000816     0.999999    0.00006991
   46      -16.4427963369      -0.0000000679     0.999999    0.00006375
   47      -16.4427963934      -0.0000000564     0.999999    0.00005813
   48      -16.4427964403      -0.0000000469     0.999999    0.00005300
   49      -16.4427964793      -0.0000000390     0.999999    0.00004832
   50      -16.4427965117      -0.0000000324     0.999999    0.00004405
   51      -16.4427965387      -0.0000000269     0.999999    0.00004016
   52      -16.4427965611      -0.0000000224     0.999999    0.00003661
   53      -16.4427965797      -0.0000000186     0.999999    0.00003337
   54      -16.4427965952      -0.0000000155     0.999999    0.00003042
   55      -16.4427966080      -0.0000000129     0.999999    0.00002773
   56      -16.4427966187      -0.0000000107     0.999999    0.00002527
   57      -16.4427966276      -0.0000000089     0.999999    0.00002304
   58      -16.4427966349      -0.0000000074     0.999999    0.00002100
   59      -16.4427966411      -0.0000000061     0.999999    0.00001914
   60      -16.4427966462      -0.0000000051     0.999999    0.00001744
   61      -16.4427966504      -0.0000000042     0.999999    0.00001590
   62      -16.4427966539      -0.0000000035     0.999999    0.00001449
   63      -16.4427966568      -0.0000000029     0.999999    0.00001321
   64      -16.4427966593      -0.0000000024     0.999999    0.00001204
   65      -16.4427966613      -0.0000000020     0.999999    0.00001097
   66      -16.4427966629      -0.0000000017     0.999999    0.00001000
   67      -16.4427966643      -0.0000000014     0.999999    0.00000911
   68      -16.4427966655      -0.0000000012     0.999999    0.00000830
   69      -16.4427966665      -0.0000000010     0.999999    0.00000757
   70      -16.4427966673      -0.0000000008     0.999999    0.00000690
   71      -16.4427966679      -0.0000000007     0.999999    0.00000629
   72      -16.4427966685      -0.0000000006     0.999999    0.00000573
   73      -16.4427966689      -0.0000000005     0.999999    0.00000522
   74      -16.4427966693      -0.0000000004     0.999999    0.00000476
   75      -16.4427966696      -0.0000000003     0.999999    0.00000434
   76      -16.4427966699      -0.0000000003     0.999999    0.00000395
   77      -16.4427966701      -0.0000000002     0.999999    0.00000360
   78      -16.4427966703      -0.0000000002     0.999999    0.00000328
   79      -16.4427966704      -0.0000000002     0.999999    0.00000299
   80      -16.4427966706      -0.0000000001     0.999999    0.00000273
   81      -16.4427966707      -0.0000000001     0.999999    0.00000248
   82      -16.4427966707      -0.0000000001     0.999999    0.00000226
   83      -16.4427966708      -0.0000000001     0.999999    0.00000206
   84      -16.4427966709      -0.0000000001     0.999999    0.00000188
   85      -16.4427966709      -0.0000000000     0.999999    0.00000171
   86      -16.4427966710      -0.0000000000     0.999999    0.00000156
   87      -16.4427966710      -0.0000000000     0.999999    0.00000142
   88      -16.4427966710      -0.0000000000     0.999999    0.00000130
   89      -16.4427966711      -0.0000000000     0.999999    0.00000118
   90      -16.4427966711      -0.0000000000     0.999999    0.00000108
   91      -16.4427966711      -0.0000000000     0.999999    0.00000098
  
--------------------------------------------------
 Final SA-REKS(2,2) energy:     -16.44279667
  
 State     Energy      FON(1)    FON(2)   Spin
  PPS  -16.50951241   1.999999  0.000001  0.00
  OSS  -16.37608093   1.000000  1.000000  0.00
 Trip  -16.40703918   1.000000  1.000000  1.00
--------------------------------------------------

 Lagrangian Wab:   0.00240161  0.00240183

--------------------------------------------------
 SSR: 2SI-2SA-REKS(2,2) Hamiltonian matrix
               PPS           OSS
   PPS   -16.50951241    0.00339383
   OSS     0.00339383  -16.37608093
--------------------------------------------------

----------------------------------------------------------------
 SSR: 2SI-2SA-REKS(2,2) states
                    E_n       C_{PPS}    C_{OSS}
 SSR state  1  -16.50959867  -0.999677   0.025410
 SSR state  2  -16.37599467  -0.025410  -0.999677
----------------------------------------------------------------

 unrelaxed SSR FONs for S0:  1.999353  0.000647

Total Energy:                      -16.5095986740 H         -449.2490 eV
Extrapolated to 0:                 -16.5095986740 H         -449.2490 eV

----------------------------------------------------------------------------------
 Solving CP-REKS equation for  1 state vector...
----------------------------------------------------------------------------------
  CG solver: Constructing Y initial guess
  CG solver: Iteration    1    eps =    0.000512468091
  CG solver: Iteration    2    eps =    0.000104277250
  CG solver: Iteration    3    eps =    0.000025350606
  CG solver: Iteration    4    eps =    0.000003911136
  CG solver: Iteration    5    eps =    0.000002782797
  CG solver: Iteration    6    eps =    0.000000629484
  CG solver: Iteration    7    eps =    0.000000030858
  CG solver: Iteration    8    eps =    0.000000007970
  Convergence reached in CG solver after    8 iterations
  CG solver: Calculating converged R, Z, Q2 matrix
----------------------------------------------------------------------------------

----------------------------------------------------------------------------------
 Solving CP-REKS equation for SI between  1 and  2 state vectors...
----------------------------------------------------------------------------------
  CG solver: Constructing Y initial guess
  CG solver: Iteration    1    eps =    0.034487882828
  CG solver: Iteration    2    eps =    0.001262250590
  CG solver: Iteration    3    eps =    0.000311330411
  CG solver: Iteration    4    eps =    0.000346383521
  CG solver: Iteration    5    eps =    0.000033916204
  CG solver: Iteration    6    eps =    0.000019282026
  CG solver: Iteration    7    eps =    0.000002640182
  CG solver: Iteration    8    eps =    0.000000289930
  CG solver: Iteration    9    eps =    0.000000105507
  CG solver: Iteration   10    eps =    0.000000029914
  CG solver: Iteration   11    eps =    0.000000002893
  Convergence reached in CG solver after   11 iterations
  CG solver: Calculating converged R, Z, Q2 matrix
----------------------------------------------------------------------------------

--------------------------------------------------
 Gradient Information
--------------------------------------------------
           1 st state (SSR)
    -0.00847039    -0.03043638    -0.01076984
    -0.02690433    -0.02308390     0.01241998
    -0.00176465    -0.01177012    -0.00752770
     0.03398946     0.02017497     0.01972793
    -0.02023856     0.03516264    -0.00489394
     0.04397841    -0.01838567    -0.06204899
    -0.03418379     0.03062794     0.03993447
     0.02153002     0.01844433     0.02432167
    -0.01216843    -0.01055148     0.00427713
     0.00673541    -0.04093909     0.01247489
    -0.01574809     0.01680522    -0.02064283
     0.00989939     0.03128461     0.00381597
     0.02236363    -0.01099274    -0.00111683
    -0.01901808    -0.00634032    -0.00997192

           2 st state (SSR)
    -0.01521879     0.02775248     0.00073454
    -0.02120850    -0.09180440    -0.02986340
    -0.00203318    -0.00952617    -0.00949929
     0.03149229     0.01907423     0.02851196
    -0.01527050     0.03723593    -0.00327636
     0.05174957     0.00063945    -0.02484051
    -0.04875777     0.02935732     0.03187823
     0.02424681     0.01069016     0.02043393
    -0.01247798    -0.00600758     0.00147632
     0.07967227    -0.02596399     0.03390497
    -0.01501008     0.01350761    -0.02290705
    -0.06495824     0.00349521    -0.01662152
     0.02681240    -0.00294338    -0.00357754
    -0.01903830    -0.00550687    -0.00635427
--------------------------------------------------
 Coupling Information
--------------------------------------------------
 between  1 and  2 states
--------------------------------------------------
 g vector - difference gradient
     0.00354684    -0.03010794    -0.00590641
    -0.00289229     0.03588691     0.02176639
     0.00016898    -0.00111372     0.00093941
     0.00125205     0.00054655    -0.00444549
    -0.00255171    -0.00108813    -0.00085807
    -0.00325224    -0.00959522    -0.01921005
     0.00658546     0.00050617     0.00419040
    -0.00128058     0.00362466     0.00205382
     0.00008834    -0.00202098     0.00132619
    -0.03684429    -0.00794305    -0.01069926
    -0.00035573     0.00168621     0.00114460
     0.03780689     0.01407329     0.01029776
    -0.00226823    -0.00395269     0.00124300
    -0.00000349    -0.00050207    -0.00184228

 h vector - derivative coupling
     0.00330807    -0.01918405    -0.00288553
    -0.00079995     0.02913767     0.01174294
     0.00067897     0.00019082    -0.00093699
     0.00003632    -0.00008906    -0.00093963
    -0.00126730    -0.00098563    -0.00094814
     0.01254876    -0.00138323    -0.01143611
    -0.01397574    -0.00255483     0.00308779
     0.00156435    -0.00506067     0.00211199
    -0.00130984     0.00499131    -0.00149460
    -0.00646175    -0.00876375     0.00058257
     0.00027038     0.00069329     0.00021666
     0.00648077     0.00315762     0.00129353
    -0.00080546     0.00151748     0.00021729
    -0.00026759    -0.00166697    -0.00061176

 G vector - GDV
     0.00337420    -0.02909443    -0.00575219
    -0.00284791     0.03436025     0.02114169
     0.00013426    -0.00112198     0.00098580
     0.00124858     0.00055037    -0.00439201
    -0.00248403    -0.00103665    -0.00080879
    -0.00388558    -0.00951256    -0.01860424
     0.00728699     0.00063531     0.00402812
    -0.00135840     0.00387708     0.00194387
     0.00015477    -0.00227195     0.00140041
    -0.03646843    -0.00748755    -0.01071504
    -0.00036901     0.00164881     0.00113211
     0.03742882     0.01389470     0.01021875
    -0.00222438    -0.00402468     0.00123035
     0.00001011    -0.00041673    -0.00180882

 H vector - DCV - non-adiabatic coupling
     0.02607700    -0.15485235    -0.02381570
    -0.00707954     0.23145453     0.09605703
     0.00513966     0.00100288    -0.00664691
     0.00074758    -0.00045789    -0.00871433
    -0.01044357    -0.00778147    -0.00741376
     0.09256707    -0.01398852    -0.09279133
    -0.10196640    -0.01890521     0.02467508
     0.01120677    -0.03645089     0.01656838
    -0.00975766     0.03654222    -0.01066808
    -0.06231294    -0.06853069     0.00028626
     0.00188588     0.00582362     0.00205483
     0.06282118     0.02895519     0.01358515
    -0.00688344     0.00984035     0.00209691
    -0.00200157    -0.01265176    -0.00527352
--------------------------------------------------


--------------------------------------------------------------------------------
DFTB+ running times                          cpu [s]             wall clock [s]
--------------------------------------------------------------------------------
SCC                                    +     0.13  ( 31.1%)      0.13  ( 30.9%)
      Sparse to dense                        0.01  (  1.6%)      0.01  (  2.3%)
      Dense to sparse                        0.02  (  5.9%)      0.03  (  6.5%)
      Range separated Hamiltonian            0.01  (  2.7%)      0.01  (  2.3%)
  Density matrix creation                    0.01  (  3.4%)      0.02  (  3.5%)
Post-SCC processing                    +     0.29  ( 68.4%)      0.29  ( 67.3%)
  Force calculation                          0.29  ( 68.4%)      0.29  ( 67.1%)
--------------------------------------------------------------------------------
Missing                                +     0.00  (  0.4%)      0.01  (  1.9%)
Total                                  =     0.42  (100.0%)      0.43  (100.0%)
--------------------------------------------------------------------------------
