     6
  Step:     0            Position(A)                                  Velocity(au)
C        -0.04104358     0.02362603     0.02160572     0.00013056    -0.00001758     0.00021062
N        -0.04157779    -0.06028713     1.29833946     0.00009435    -0.00007904    -0.00030748
H         0.92589814    -0.03572128    -0.51554533    -0.00092879     0.00022722     0.00054253
H         0.82517578    -0.03813923     1.79626103    -0.00098223     0.00047276    -0.00041270
H        -0.94433075    -0.05496698     1.86906748    -0.00094435     0.00052729     0.00136612
H        -0.95282343     0.01529152    -0.55737902    -0.00001150     0.00008060     0.00026724
     6
  Step:     1            Position(A)                                  Velocity(au)
C        -0.03957792     0.02349840     0.02338063     0.00013401    -0.00000511     0.00011038
N        -0.04073513    -0.06121047     1.29551143     0.00005331    -0.00009042    -0.00020470
H         0.91618682    -0.03336443    -0.51039293    -0.00081367     0.00020150     0.00038018
H         0.81585903    -0.03280654     1.79318894    -0.00067715     0.00050603    -0.00012231
H        -0.95327213    -0.04916474     1.88343228    -0.00064298     0.00053328     0.00122195
H        -0.95402857     0.01615175    -0.55567364    -0.00020387     0.00007672     0.00004950
     6
  Step:     2            Position(A)                                  Velocity(au)
C        -0.03811178     0.02351416     0.02402057     0.00013061     0.00000846     0.00000497
N        -0.04041161    -0.06226534     1.29386129     0.00000231    -0.00010293    -0.00009404
H         0.90809748    -0.03131307    -0.50722812    -0.00063687     0.00017171     0.00018150
H         0.81036190    -0.02706887     1.79358526    -0.00030745     0.00054669     0.00020642
H        -0.95839714    -0.04330051     1.89580005    -0.00026517     0.00053820     0.00101307
H        -0.95728338     0.01696984    -0.55629617    -0.00037897     0.00007293    -0.00015331
     6
  Step:     3            Position(A)                                  Velocity(au)
C        -0.03672054     0.02368343     0.02348928     0.00012073     0.00002275    -0.00010178
N        -0.04068461    -0.06346216     1.29345419    -0.00005275    -0.00011616     0.00002076
H         0.90225410    -0.02960799    -0.50642217    -0.00041124     0.00013870    -0.00004652
H         0.80913299    -0.02084655     1.79770475     0.00007572     0.00059371     0.00054028
H        -0.95907317    -0.03739059     1.90559520     0.00015388     0.00054153     0.00076300
H        -0.96231926     0.01774719    -0.55902768    -0.00052400     0.00006926    -0.00033238
     6
  Step:     4            Position(A)                                  Velocity(au)
C        -0.03547060     0.02401176     0.02179392     0.00010558     0.00003731    -0.00020592
N        -0.04156551    -0.06480659     1.29431555    -0.00010604    -0.00012966     0.00013604
H         0.89910076    -0.02827871    -0.50824588    -0.00015617     0.00010364    -0.00029281
H         0.81201852    -0.01408036     1.80540483     0.00041935     0.00064450     0.00084370
H        -0.95503061    -0.03145352     1.91249210     0.00058230     0.00054336     0.00049417
H        -0.96874682     0.01848513    -0.56356760    -0.00063002     0.00006569    -0.00048177
     6
  Step:     5            Position(A)                                  Velocity(au)
C        -0.03441082     0.02449969     0.01898446     0.00008701     0.00005170    -0.00030369
N        -0.04300434    -0.06629869     1.29643041    -0.00015243    -0.00014291     0.00024794
H         0.89883769    -0.02734067    -0.51282784     0.00010449     0.00006787    -0.00054316
H         0.81830710    -0.00674696     1.81616231     0.00067969     0.00069544     0.00108625
H        -0.94633431    -0.02550357     1.91640617     0.00098949     0.00054443     0.00022896
H        -0.97610218     0.01918436    -0.56956737    -0.00069233     0.00006214    -0.00059857
     6
  Step:     6            Position(A)                                  Velocity(au)
C        -0.03356699     0.02514270     0.01515001     0.00006720     0.00006545    -0.00039182
N        -0.04490014    -0.06793294     1.29973970    -0.00018780    -0.00015545     0.00035221
H         0.90138660    -0.02679391    -0.52012863     0.00034561     0.00003278    -0.00078220
H         0.82688801     0.00113380     1.82916864     0.00082980     0.00074271     0.00124806
H        -0.93338369    -0.01954306     1.91750111     0.00134369     0.00054630    -0.00000887
H        -0.98389286     0.01984459    -0.57666249    -0.00071000     0.00005851    -0.00068247
     6
  Step:     7            Position(A)                                  Velocity(au)
C        -0.03294080     0.02593152     0.01041273     0.00004817     0.00007818    -0.00046762
N        -0.04711288    -0.06969945     1.30413573    -0.00020908    -0.00016699     0.00044432
H         0.90639849    -0.02662356    -0.52994002     0.00054469    -0.00000038    -0.00099560
H         0.83646052     0.00950121     1.84346610     0.00086143     0.00078303     0.00132172
H        -0.91693847    -0.01355210     1.91621201     0.00161037     0.00055164    -0.00019323
H        -0.99163477     0.02046445    -0.58449759    -0.00068502     0.00005471    -0.00073507
     6
  Step:     8            Position(A)                                  Velocity(au)
C        -0.03251318     0.02685295     0.00491993     0.00003157     0.00008956    -0.00052919
N        -0.04947416    -0.07158615     1.30946010    -0.00021407    -0.00017745     0.00051978
H         0.91330283    -0.02680212    -0.54190931     0.00068497    -0.00003060    -0.00117205
H         0.84573355     0.01826410     1.85808373     0.00078203     0.00081426     0.00131068
H        -0.89815380    -0.00747486     1.91327378     0.00175311     0.00056443    -0.00029641
H        -0.99887895     0.02104149    -0.59274365    -0.00062150     0.00005064    -0.00075935
     6
  Step:     9            Position(A)                                  Velocity(au)
C        -0.03225017     0.02789085    -0.00116428     0.00001843     0.00009939    -0.00057539
N        -0.05179602    -0.07358153     1.31550691    -0.00020146    -0.00018701     0.00057473
H         0.92138355    -0.02729303    -0.55558087     0.00075701    -0.00005725    -0.00130433
H         0.85356886     0.02731468     1.87213981     0.00060935     0.00083552     0.00122601
H        -0.87858576    -0.00120421     1.90972750     0.00173853     0.00058989    -0.00029272
H        -1.00523134     0.02157234    -0.60110992    -0.00052497     0.00004624    -0.00075906
     6
  Step:    10            Position(A)                                  Velocity(au)
C        -0.03210994     0.02902735    -0.00766793     0.00000917     0.00010757    -0.00060590
N        -0.05388144    -0.07567733     1.32203336    -0.00017116    -0.00019603     0.00060667
H         0.92986377    -0.02805463    -0.57044402     0.00075887    -0.00008002    -0.00138951
H         0.85906429     0.03654272     1.88490499     0.00036637     0.00084713     0.00108283
H        -0.86012003     0.00543021     1.90686991     0.00154568     0.00063371    -0.00016551
H        -1.01036363     0.02205309    -0.60934952    -0.00040165     0.00004146    -0.00073827
     6
  Step:    11            Position(A)                                  Velocity(au)
C        -0.03204950     0.03024415    -0.01441945     0.00000369     0.00011411    -0.00062109
N        -0.05554054    -0.07787003     1.32877889    -0.00012493    -0.00020494     0.00061515
H         0.93798535    -0.02904358    -0.58597907     0.00069487    -0.00009898    -0.00142824
H         0.86158389     0.04584718     1.89582888     0.00007773     0.00085048     0.00089795
H        -0.84477112     0.01265949     1.90610672     0.00117770     0.00070031     0.00008398
H        -1.01401819     0.02247942    -0.61726098    -0.00025809     0.00003635    -0.00070109
     6
  Step:    12            Position(A)                                  Velocity(au)
C        -0.03202930     0.03152366    -0.02125536     0.00000005     0.00012243    -0.00072789
N        -0.05661456    -0.08016068     1.33549099    -0.00006325    -0.00022035     0.00068645
H         0.94506528    -0.03022007    -0.60168955     0.00052205    -0.00018295    -0.00134010
H         0.86076471     0.05514856     1.90454933    -0.00028931     0.00095065     0.00064970
H        -0.83435554     0.02075090     1.90870723     0.00067949     0.00069301     0.00038720
H        -1.01600995     0.02284840    -0.62468730    -0.00003387     0.00014254    -0.00056229
     6
  Step:    13            Position(A)                                  Velocity(au)
C        -0.03204838     0.03292248    -0.03034337    -0.00000309     0.00013246    -0.00092975
N        -0.05692427    -0.08269063     1.34379623     0.00000825    -0.00024164     0.00082753
H         0.94940626    -0.03304600    -0.61529632     0.00025815    -0.00029643    -0.00113075
H         0.85525474     0.06664451     1.91004230    -0.00070977     0.00110636     0.00035275
H        -0.82990605     0.02782037     1.91457748     0.00011317     0.00064121     0.00068598
H        -1.01475911     0.02559782    -0.62956213     0.00026068     0.00032834    -0.00032859
     6
  Step:    14            Position(A)                                  Velocity(au)
C        -0.03209686     0.03442148    -0.04159544    -0.00000472     0.00014027    -0.00111474
N        -0.05643417    -0.08544694     1.35359479     0.00007858    -0.00026139     0.00095350
H         0.95071284    -0.03670506    -0.62642687    -0.00002209    -0.00035711    -0.00089913
H         0.84523713     0.07935237     1.91226648    -0.00109106     0.00120216     0.00006938
H        -0.83187975     0.03477863     1.92371426    -0.00045988     0.00064513     0.00096752
H        -1.01030713     0.03003143    -0.63187574     0.00053737     0.00047073    -0.00010455
     6
  Step:    15            Position(A)                                  Velocity(au)
C        -0.03215164     0.03599107    -0.05473052    -0.00000391     0.00014524    -0.00127154
N        -0.05520528    -0.08840895     1.36465592     0.00013928    -0.00027909     0.00105796
H         0.94892297    -0.04085840    -0.63496653    -0.00029788    -0.00039373    -0.00066558
H         0.83138579     0.09294413     1.91156016    -0.00139020     0.00128085    -0.00016884
H        -0.83996671     0.04193372     1.93574381    -0.00097059     0.00066424     0.00119356
H        -1.00300310     0.03589604    -0.63184944     0.00076977     0.00059637     0.00009080
     6
  Step:    16            Position(A)                                  Velocity(au)
C        -0.03218237     0.03759886    -0.06941275     0.00000000     0.00014729    -0.00139685
N        -0.05338714    -0.09155264     1.37673979     0.00018307    -0.00029472     0.00114104
H         0.94419606    -0.04531863    -0.64098776    -0.00054895    -0.00041699    -0.00044639
H         0.81482386     0.10737336     1.90857275    -0.00156699     0.00136548    -0.00033461
H        -0.85311327     0.04931013     1.94982559    -0.00136094     0.00067707     0.00132869
H        -0.99346693     0.04307816    -0.62988922     0.00093285     0.00071482     0.00024106
     6
  Step:    17            Position(A)                                  Velocity(au)
C        -0.03215153     0.03921334    -0.08528935     0.00000759     0.00014657    -0.00149002
N        -0.05120030    -0.09485644     1.38961837     0.00020473    -0.00030877     0.00120395
H         0.93691359    -0.04998085    -0.64473221    -0.00075455    -0.00043342    -0.00025672
H         0.79710489     0.12281671     1.90423996    -0.00158621     0.00147601    -0.00040481
H        -0.86973980     0.05674581     1.96481151    -0.00159643     0.00067012     0.00135504
H        -0.98259533     0.05153415    -0.62657582     0.00100170     0.00083155     0.00033114
     6
  Step:    18            Position(A)                                  Velocity(au)
C        -0.03201633     0.04080536    -0.10200973     0.00001909     0.00014334    -0.00155176
N        -0.04890817    -0.09830758     1.40307857     0.00020201    -0.00032222     0.00124818
H         0.92768873    -0.05480047    -0.64660408    -0.00089345    -0.00044823    -0.00011092
H         0.78012239     0.13966391     1.89971672    -0.00142690     0.00163033    -0.00036609
H        -0.88803819     0.06397026     1.97946969    -0.00166867     0.00063666     0.00127378
H        -0.97155282     0.06126999    -0.62264480     0.00095435     0.00095084     0.00034905
     6
  Step:    19            Position(A)                                  Velocity(au)
C        -0.03173396     0.04234918    -0.11923712     0.00003403     0.00013793    -0.00158376
N        -0.04678091    -0.10190552     1.41692467     0.00017614    -0.00033604     0.00127565
H         0.91736773    -0.05978683    -0.64715868    -0.00094498    -0.00046630    -0.00002182
H         0.76588878     0.15848331     1.89623107    -0.00109471     0.00184034    -0.00022207
H        -0.90624522     0.07067387     1.99267788    -0.00159065     0.00057558     0.00110043
H        -0.96171700     0.07233560    -0.61893964     0.00077722     0.00107662     0.00028880
     6
  Step:    20            Position(A)                                  Velocity(au)
C        -0.03127192     0.04382274    -0.13665743     0.00005084     0.00013067    -0.00158850
N        -0.04505484    -0.10565910     1.43098582     0.00013197    -0.00035065     0.00128912
H         0.90701556    -0.06500176    -0.64708141    -0.00089176    -0.00049222     0.00000073
H         0.75617348     0.17992479     1.89485842    -0.00063139     0.00210567     0.00000187
H        -0.92283664     0.07656211     2.00354376    -0.00138890     0.00048984     0.00085814
H        -0.95454972     0.08482315    -0.61632667     0.00047233     0.00121240     0.00015388
     6
  Step:    21            Position(A)                                  Velocity(au)
C        -0.03062179     0.04520785    -0.15398861     0.00006672     0.00012193    -0.00156934
N        -0.04389373    -0.10957665     1.44512672     0.00007736    -0.00036538     0.00129212
H         0.89785868    -0.07055501    -0.64714263    -0.00072412    -0.00052989    -0.00004781
H         0.75207594     0.20454897     1.89627201    -0.00011290     0.00240911     0.00026114
H        -0.93663014     0.08139011     2.01145130    -0.00109651     0.00038486     0.00057213
H        -0.95138393     0.09885920    -0.61557331     0.00006339     0.00136048    -0.00004079
     6
  Step:    22            Position(A)                                  Velocity(au)
C        -0.02981226     0.04649025    -0.17098980     0.00007808     0.00011208    -0.00153044
N        -0.04336233    -0.11365252     1.45925344     0.00002158    -0.00037847     0.00128822
H         0.89117405    -0.07659419    -0.64812741    -0.00044538    -0.00058172    -0.00016431
H         0.75370367     0.23262865     1.90057143     0.00036729     0.00271748     0.00050310
H        -0.94682495     0.08498156     2.01606018    -0.00074849     0.00026731     0.00026660
H        -0.95316290     0.11458620    -0.61721897    -0.00040363     0.00152072    -0.00027002
     6
  Step:    23            Position(A)                                  Velocity(au)
C        -0.02891371     0.04765989    -0.18746995     0.00008151     0.00010152    -0.00147671
N        -0.04342166    -0.11785642     1.47330896    -0.00002672    -0.00038759     0.00128022
H         0.88811512    -0.08328128    -0.65073726    -0.00007632    -0.00064744    -0.00033630
H         0.76011111     0.26399913     1.90727829     0.00072393     0.00298979     0.00068246
H        -0.95300480     0.08723813     2.01728361    -0.00037966     0.00014456    -0.00003642
H        -0.96021410     0.13212775    -0.62148060    -0.00086788     0.00168954    -0.00050343
     6
  Step:    24            Position(A)                                  Velocity(au)
C        -0.02802897     0.04871116    -0.20329567     0.00007506     0.00009061    -0.00141346
N        -0.04394699    -0.12213185     1.48726061    -0.00006111    -0.00039072     0.00126956
H         0.88950429    -0.09075811    -0.65548468     0.00034437    -0.00072341    -0.00054271
H         0.76954099     0.29803596     1.91550166     0.00090197     0.00318894     0.00077284
H        -0.95513068     0.08814408     2.01526338    -0.00002432     0.00002431    -0.00031695
H        -0.97214950     0.15154811    -0.62823245    -0.00126724     0.00186005    -0.00071244
     6
  Step:    25            Position(A)                                  Velocity(au)
C        -0.02727153     0.04964213    -0.21839214     0.00005891     0.00007961    -0.00134568
N        -0.04475861    -0.12640412     1.50108296    -0.00007794    -0.00038677     0.00125618
H         0.89564894    -0.09910729    -0.66261002     0.00076557    -0.00080283    -0.00075731
H         0.77984344     0.33376331     1.92418565     0.00088451     0.00329097     0.00076934
H        -0.95353677     0.08776998     2.01034978     0.00028347    -0.00008540    -0.00055672
H        -0.98793739     0.17281985    -0.63706653    -0.00155243     0.00202332    -0.00087634
     6
  Step:    26            Position(A)                                  Velocity(au)
C        -0.02674015     0.05045282    -0.23273508     0.00003526     0.00006862    -0.00127736
N        -0.04565210    -0.13059317     1.51474199    -0.00007594    -0.00037581     0.00123890
H         0.90625257    -0.10832149    -0.67205232     0.00113398    -0.00087697    -0.00095416
H         0.78889137     0.37003212     1.93233251     0.00068666     0.00328780     0.00068351
H        -0.94892921     0.08627570     2.00308405     0.00051030    -0.00017649    -0.00073944
H        -1.00611192     0.19581211    -0.64740413    -0.00169576     0.00217042    -0.00098498
     6
  Step:    27            Position(A)                                  Velocity(au)
C        -0.02650008     0.05114325    -0.24633685     0.00000744     0.00005756    -0.00121113
N        -0.04642004    -0.13462565     1.52818633    -0.00005544    -0.00035879     0.00121609
H         0.92045694    -0.11829271    -0.68348414     0.00140556    -0.00093724    -0.00111279
H         0.79486544     0.40569032     1.93913876     0.00034244     0.00318457     0.00053526
H        -0.94237298     0.08390883     1.99417312     0.00062557    -0.00024147    -0.00085199
H        -1.02503542     0.22030185    -0.65861477    -0.00169179     0.00229412    -0.00103770
     6
  Step:    28            Position(A)                                  Velocity(au)
C        -0.02657740     0.05171212    -0.25923091    -0.00002124     0.00004633    -0.00114830
N        -0.04686494    -0.13844240     1.54134629    -0.00001778    -0.00033711     0.00118633
H         0.93700179    -0.12882530    -0.69639677     0.00155331    -0.00097701    -0.00122130
H         0.79638293     0.43970078     1.94404224    -0.00010748     0.00299457     0.00034614
H        -0.93524377     0.08099301     1.98444503     0.00060623    -0.00027482    -0.00088687
H        -1.04312297     0.24600044    -0.67010588    -0.00155196     0.00238982    -0.00104029
     6
  Step:    29            Position(A)                                  Velocity(au)
C        -0.02696466     0.05215681    -0.27145820    -0.00004820     0.00003483    -0.00108912
N        -0.04680893    -0.14200059     1.55413956     0.00003471    -0.00031215     0.00114892
H         0.95443850    -0.13966668    -0.71020252     0.00156908    -0.00099274    -0.00127652
H         0.79251401     0.47120219     1.94671123    -0.00062351     0.00273489     0.00013563
H        -0.92911055     0.07789669     1.97477104     0.00044384    -0.00027494    -0.00084515
H        -1.05898741     0.27258382    -0.68137306    -0.00129738     0.00245549    -0.00100156
     6
  Step:    30            Position(A)                                  Velocity(au)
C        -0.02763190     0.05247419    -0.28305759    -0.00007188     0.00002307    -0.00103315
N        -0.04610556    -0.14527131     1.56648102     0.00009843    -0.00028498     0.00110408
H         0.97132842    -0.15054329    -0.72432301     0.00146015    -0.00098391    -0.00128191
H         0.78274245     0.49953178     1.94700936    -0.00117003     0.00242416    -0.00008005
H        -0.92553390     0.07497807     1.96595573     0.00015143    -0.00024617    -0.00073855
H        -1.07150566     0.29971897    -0.69201698    -0.00095283     0.00249122    -0.00093102
     6
  Step:    31            Position(A)                                  Velocity(au)
C        -0.02853712     0.05266148    -0.29406035    -0.00009153     0.00001110    -0.00097959
N        -0.04465562    -0.14823504     1.57829341     0.00016828    -0.00025625     0.00105292
H         0.98638199    -0.16119164    -0.73824671     0.00124359    -0.00095245    -0.00124487
H         0.76691746     0.52423541     1.94496002    -0.00171516     0.00208216    -0.00028743
H        -0.92579774     0.07251121     1.95861374    -0.00023332    -0.00019960    -0.00058902
H        -1.07983232     0.32708402    -0.70174088    -0.00054287     0.00249866    -0.00083747
     6
  Step:    32            Position(A)                                  Velocity(au)
C        -0.02963422     0.05271698    -0.30448801    -0.00010695    -0.00000098    -0.00092753
N        -0.04242421    -0.15087734     1.58951562     0.00023784    -0.00022640     0.00099703
H         0.99853436    -0.17137995    -0.75155701     0.00094110    -0.00090181    -0.00117437
H         0.74522009     0.54508295     1.94072118    -0.00222909     0.00173085    -0.00047478
H        -0.93063830     0.07061141     1.95306972    -0.00065230    -0.00015191    -0.00042475
H        -1.08338203     0.35438198    -0.71033820    -0.00009029     0.00248059    -0.00072861
     6
  Step:    33            Position(A)                                  Velocity(au)
C        -0.03087697     0.05264014    -0.31435181    -0.00011823    -0.00001306    -0.00087604
N        -0.03945246    -0.15318789     1.60010532     0.00030013    -0.00019596     0.00093796
H         1.00697026    -0.18092041    -0.76393833     0.00057523    -0.00083624    -0.00107936
H         0.71815176     0.56210111     1.93457324    -0.00268231     0.00139616    -0.00063099
H        -0.94006806     0.06918796     1.94932157    -0.00103898    -0.00012190    -0.00027365
H        -1.08180761     0.38135173    -0.71768060     0.00038419     0.00244072    -0.00061110
     6
  Step:    34            Position(A)                                  Velocity(au)
C        -0.03222075     0.05243123    -0.32365315    -0.00012552    -0.00002512    -0.00082425
N        -0.03585827    -0.15516425     1.61003520     0.00034868    -0.00016602     0.00087670
H         1.01111868    -0.18967439    -0.77517014     0.00016777    -0.00076039    -0.00096817
H         0.68653953     0.57562664     1.92691710    -0.00304498     0.00110923    -0.00074508
H        -0.95336801     0.06794460     1.94708299    -0.00133400    -0.00012616    -0.00015703
H        -1.07497717     0.40777740    -0.72370715     0.00086149     0.00238369    -0.00049081
     6
  Step:    35            Position(A)                                  Velocity(au)
C        -0.03362288     0.05209061    -0.33238389    -0.00012897    -0.00003719    -0.00077128
N        -0.03182442    -0.15681980     1.61928490     0.00037854    -0.00013841     0.00081351
H         1.01064061    -0.19755545    -0.78511899    -0.00026067    -0.00067912    -0.00084843
H         0.65153710     0.58636761     1.91827328    -0.00328856     0.00090606    -0.00080660
H        -0.96925176     0.06642787     1.94588624    -0.00149767    -0.00017565    -0.00008593
H        -1.06296093     0.43349946    -0.72841802     0.00132345     0.00231525    -0.00037318
     6
  Step:    36            Position(A)                                  Velocity(au)
C        -0.03504231     0.05161770    -0.34052639    -0.00012875    -0.00004941    -0.00071625
N        -0.02757700    -0.15819225     1.62783231     0.00038697    -0.00011553     0.00074798
H         1.00541600    -0.20453134    -0.79373125    -0.00069039    -0.00059751    -0.00072726
H         0.61459601     0.59544840     1.90927125    -0.00339024     0.00082372    -0.00080725
H        -0.98613239     0.06410203     1.94520319    -0.00151500    -0.00027450    -0.00006128
H        -1.04602412     0.45842789    -0.73187126     0.00175236     0.00224248    -0.00026346
     6
  Step:    37            Position(A)                                  Velocity(au)
C        -0.03643957     0.05100976    -0.34805329    -0.00012501    -0.00006203    -0.00065825
N        -0.02335868    -0.15934725     1.63564847     0.00037378    -0.00009962     0.00067951
H         0.99553708    -0.21062706    -0.80102930    -0.00110182    -0.00052106    -0.00061169
H         0.57736914     0.60438802     1.90061317    -0.00334014     0.00089163    -0.00074369
H        -1.00239537     0.06042261     1.94454562    -0.00139310    -0.00042109    -0.00007662
H        -1.02462467     0.48255811    -0.73418180     0.00213054     0.00217410    -0.00016691
     6
  Step:    38            Position(A)                                  Velocity(au)
C        -0.03777708     0.05026059    -0.35492689    -0.00011800    -0.00007543    -0.00059629
N        -0.01939993    -0.16037165     1.64269794     0.00034135    -0.00009171     0.00060775
H         0.98131155    -0.21593044    -0.80711311    -0.00147477    -0.00045587    -0.00050908
H         0.54152400     0.61495440     1.89300166    -0.00314886     0.00111867    -0.00062063
H        -1.01660920     0.05488998     1.94352704    -0.00115451    -0.00060994    -0.00012146
H        -0.99941452     0.50599054    -0.73552278     0.00244065     0.00212051    -0.00008878
     6
  Step:    39            Position(A)                                  Velocity(au)
C        -0.03902095     0.04935951    -0.36109835    -0.00010820    -0.00009003    -0.00052934
N        -0.01589097    -0.16135364     1.64894414     0.00029440    -0.00009060     0.00053293
H         0.96327366    -0.22060014    -0.81216646    -0.00178799    -0.00040887    -0.00042750
H         0.50848187     0.62886110     1.88703576    -0.00285068     0.00148103    -0.00045244
H        -1.02765253     0.04707890     1.94188840    -0.00083001    -0.00083381    -0.00018414
H        -0.97123071     0.52894830    -0.73612398     0.00266683     0.00209354    -0.00003399
     6
  Step:    40            Position(A)                                  Velocity(au)
C        -0.04014408     0.04829097    -0.36650726    -0.00009648    -0.00010622    -0.00045635
N        -0.01295930    -0.16235376     1.65435686     0.00023919    -0.00009254     0.00045589
H         0.94219592    -0.22487515    -0.81646557    -0.00201926    -0.00038776    -0.00037586
H         0.47915992     0.64735481     1.88310376    -0.00249843     0.00191898    -0.00026145
H        -1.03476716     0.03664890     1.93949861    -0.00045331    -0.00108490    -0.00025344
H        -0.94107258     0.55179065    -0.73626644     0.00279679     0.00210536    -0.00000646
     6
  Step:    41            Position(A)                                  Velocity(au)
C        -0.04113173     0.04703576    -0.37108195    -0.00008429    -0.00012418    -0.00037642
N        -0.01065813    -0.16337809     1.65891764     0.00018235    -0.00009197     0.00037771
H         0.91909844    -0.22908314    -0.82038913    -0.00214684    -0.00040095    -0.00036356
H         0.45382388     0.67084237     1.88131611    -0.00214960     0.00234793    -0.00007274
H        -1.03756956     0.02334469     1.93634389    -0.00005834    -0.00135549    -0.00031919
H        -0.91004557     0.57500705    -0.73626541     0.00282530     0.00216637    -0.00000780
     6
  Step:    42            Position(A)                                  Velocity(au)
C        -0.04198815     0.04557424    -0.37474211    -0.00007362    -0.00014371    -0.00028898
N        -0.00897014    -0.16436583     1.66261997     0.00012963    -0.00008323     0.00029927
H         0.89522961    -0.23364671    -0.82441910    -0.00215277    -0.00045664    -0.00039924
H         0.43213324     0.69872036     1.88151252    -0.00185066     0.00268174     0.00009234
H        -1.03604343     0.00699490     1.93251572     0.00032182    -0.00163813    -0.00037231
H        -0.87926384     0.59918414    -0.73643713     0.00275749     0.00228210    -0.00003590
     6
  Step:    43            Position(A)                                  Velocity(au)
C        -0.04274231     0.04389189    -0.37740399    -0.00006678    -0.00016401    -0.00019414
N        -0.00782222    -0.16519894     1.66546469     0.00008528    -0.00006224     0.00022091
H         0.87200249    -0.23907294    -0.82912334    -0.00202800    -0.00056109    -0.00048853
H         0.41333725     0.72951051     1.88333629    -0.00162750     0.00285665     0.00022067
H        -1.03052908    -0.01249264     1.92819887     0.00065504    -0.00192592    -0.00040471
H        -0.84972014     0.62493231    -0.73705085     0.00261111     0.00244967    -0.00008381
     6
  Step:    44            Position(A)                                  Velocity(au)
C        -0.04344911     0.04198621    -0.37898929    -0.00006580    -0.00018374    -0.00009291
N        -0.00710438    -0.16572750     1.66745281     0.00005194    -0.00002739     0.00014239
H         0.85086326    -0.24592153    -0.83510663    -0.00177874    -0.00071635    -0.00063077
H         0.39652863     0.76121509     1.88634005    -0.00148513     0.00284374     0.00030820
H        -1.02171327    -0.03513823     1.92366188     0.00091064    -0.00221292    -0.00040925
H        -0.82214084     0.65277532    -0.73827060     0.00241556     0.00265561    -0.00013963
     6