     6
  Step:     0            Position(A)                                  Velocity(au)
C        -0.03253250     0.00525505     0.02375503     0.00007646    -0.00010728    -0.00028903
N        -0.04250413    -0.06463832     1.28418867     0.00009102     0.00009869     0.00024118
H         0.88381114     0.00330877    -0.49470137    -0.00028955     0.00020289     0.00049883
H         0.78605651    -0.03823563     1.84194997    -0.00026074    -0.00033201    -0.00112477
H        -0.92213113     0.03513856     1.93401492    -0.00132816    -0.00050235     0.00122563
H        -0.98236298     0.16562840    -0.51782554    -0.00029760     0.00053838    -0.00050720
     6
  Step:     1            Position(A)                                  Velocity(au)
C        -0.03216643     0.00466643     0.02178202     0.00005640    -0.00010805    -0.00043045
N        -0.04207080    -0.06413670     1.28588516     0.00006581     0.00008495     0.00037736
H         0.88287046     0.00458651    -0.49227729    -0.00004893     0.00026479     0.00038320
H         0.78518056    -0.03991558     1.83601551    -0.00004806    -0.00028244    -0.00103523
H        -0.92902220     0.03249498     1.94022030    -0.00118000    -0.00046501     0.00103642
H        -0.98403959     0.16871757    -0.52058549    -0.00030959     0.00058967    -0.00049913
     6
  Step:     2            Position(A)                                  Velocity(au)
C        -0.03191549     0.00407289     0.01904551     0.00003461    -0.00010896    -0.00056692
N        -0.04178415    -0.06370888     1.28831734     0.00003770     0.00007166     0.00050890
H         0.88327585     0.00620578    -0.49050887     0.00019899     0.00032716     0.00026084
H         0.78553067    -0.04132575     1.83062368     0.00018489    -0.00023327    -0.00092678
H        -0.93504124     0.03005098     1.94535420    -0.00101027    -0.00042877     0.00083496
H        -0.98575018     0.17207988    -0.52328647    -0.00030992     0.00063745    -0.00048562
     6
  Step:     3            Position(A)                                  Velocity(au)
C        -0.03178759     0.00347363     0.01557586     0.00001172    -0.00010992    -0.00069644
N        -0.04165813    -0.06335226     1.29145625     0.00000748     0.00005885     0.00063380
H         0.88504887     0.00816803    -0.48942182     0.00044646     0.00038908     0.00013611
H         0.78720457    -0.04246928     1.82586984     0.00043179    -0.00018483    -0.00080248
H        -0.94008189     0.02780118     1.94936075    -0.00082290    -0.00039324     0.00062516
H        -0.98743238     0.17569586    -0.52590173    -0.00029912     0.00068098    -0.00046755
     6
  Step:     4            Position(A)                                  Velocity(au)
C        -0.03178706     0.00286837     0.01141391    -0.00001154    -0.00011080    -0.00081669
N        -0.04170214    -0.06306399     1.29526249    -0.00002388     0.00004659     0.00074976
H         0.88816815     0.01046927    -0.48901736     0.00068498     0.00044922     0.00001374
H         0.79026216    -0.04335108     1.82183017     0.00068439    -0.00013750    -0.00066632
H        -0.94405849     0.02574191     1.95220473    -0.00062194    -0.00035811     0.00041111
H        -0.98902795     0.17954206    -0.52840988    -0.00027816     0.00071927    -0.00044588
     6
  Step:     5            Position(A)                                  Velocity(au)
C        -0.03191423     0.00225762     0.00661298    -0.00003437    -0.00011142    -0.00092491
N        -0.04192022    -0.06284095     1.29968464    -0.00005528     0.00003494     0.00085419
H         0.89256633     0.01309808    -0.48927104     0.00090562     0.00050593    -0.00010145
H         0.79471558    -0.04397829     1.81855720     0.00093262    -0.00009180    -0.00052318
H        -0.94690745     0.02387103     1.95387260    -0.00041209    -0.00032313     0.00019734
H        -0.99048515     0.18358967    -0.53079509    -0.00024849     0.00075111    -0.00042161
     6
  Step:     6            Position(A)                                  Velocity(au)
C        -0.03216506     0.00164290     0.00124094    -0.00005590    -0.00011157    -0.00101815
N        -0.04231018    -0.06267968     1.30465759    -0.00008545     0.00002399     0.00094431
H         0.89812896     0.01603390    -0.49013314     0.00109958     0.00055732    -0.00020490
H         0.80051994    -0.04436077     1.81607574     0.00116500    -0.00004833    -0.00037866
H        -0.94859107     0.02218785     1.95437524    -0.00019909    -0.00028808    -0.00001092
H        -0.99176111     0.18780344    -0.53304709    -0.00021201     0.00077521    -0.00039573
     6
  Step:     7            Position(A)                                  Velocity(au)
C        -0.03253089     0.00102682    -0.00461859    -0.00007528    -0.00011108    -0.00109351
N        -0.04286285    -0.06257632     1.31010164    -0.00011304     0.00001383     0.00101744
H         0.90469625     0.01924615    -0.49153136     0.00125899     0.00060154    -0.00029292
H         0.80756712    -0.04451150     1.81438004     0.00136956    -0.00000777    -0.00023869
H        -0.94910370     0.02069316     1.95375211     0.00001021    -0.00025277    -0.00020772
H        -0.99282396     0.19214134    -0.53516055    -0.00017095     0.00079042    -0.00036914
     6
  Step:     8            Position(A)                                  Velocity(au)
C        -0.03299861     0.00041302    -0.01086681    -0.00009174    -0.00010980    -0.00114869
N        -0.04356180    -0.06252657     1.31592306    -0.00013676     0.00000455     0.00107145
H         0.91206902     0.02269442    -0.49337644     0.00137795     0.00063702    -0.00036316
H         0.81568433    -0.04444684     1.81343292     0.00153528     0.00002922    -0.00010902
H        -0.94847798     0.01938909     1.95207533     0.00020811    -0.00021711    -0.00038671
H        -0.99365396     0.19655524    -0.53713436    -0.00012772     0.00079598    -0.00034262
     6
  Step:     9            Position(A)                                  Velocity(au)
C        -0.03355114    -0.00019419    -0.01739282    -0.00010471    -0.00010769    -0.00118264
N        -0.04438373    -0.06252572     1.32201692    -0.00015555    -0.00000377     0.00110538
H         0.92001999     0.02633024    -0.49556994     0.00145356     0.00066286    -0.00041497
H         0.82464045    -0.04418656     1.81316767     0.00165382     0.00006207     0.00000539
H        -0.94678937     0.01827877     1.94945167     0.00038671    -0.00018111    -0.00054190
H        -0.99424429     0.20099315    -0.53897067    -0.00008483     0.00079192    -0.00031702
     6
  Step:    10            Position(A)                                  Velocity(au)
C        -0.03416855    -0.00079026    -0.02408058    -0.00011392    -0.00010486    -0.00119621
N        -0.04529979    -0.06256874     1.32827365    -0.00016875    -0.00001112     0.00112004
H         0.92830987     0.03010064    -0.49801297     0.00148670     0.00067919    -0.00044941
H         0.83416268    -0.04375335     1.81349314     0.00172139     0.00009042     0.00010107
H        -0.94415727     0.01736551     1.94602061     0.00053903    -0.00014494    -0.00066866
H        -0.99460181     0.20540344    -0.54067648    -0.00004469     0.00077933    -0.00029347
     6
  Step:    11            Position(A)                                  Velocity(au)
C        -0.03482977    -0.00137118    -0.03081946    -0.00011947    -0.00010153    -0.00119249
N        -0.04627786    -0.06265049     1.33458861    -0.00017625    -0.00001752     0.00111827
H         0.93670714     0.03395368    -0.50061423     0.00148206     0.00068736    -0.00046884
H         0.84396186    -0.04317167     1.81430215     0.00173962     0.00011427     0.00017655
H        -0.94073918     0.01665197     1.94194641     0.00066030    -0.00010881    -0.00076472
H        -0.99474588     0.20974059    -0.54226464    -0.00000923     0.00076046    -0.00027317
     6
  Step:    12            Position(A)                                  Velocity(au)
C        -0.03551457    -0.00193422    -0.03751607    -0.00018702    -0.00015054    -0.00180603
N        -0.04728553    -0.06276608     1.34087292    -0.00027392    -0.00003545     0.00169576
H         0.94500778     0.03784494    -0.50329526     0.00222167     0.00105897    -0.00073101
H         0.85376243    -0.04246589     1.81548229     0.00263294     0.00020577     0.00035682
H        -0.93671786     0.01613962     1.93740470     0.00114926    -0.00011187    -0.00127505
H        -0.99470582     0.21397130    -0.54375420     0.00003111     0.00113362    -0.00039500
     6
  Step:    13            Position(A)                                  Velocity(au)
C        -0.03655715    -0.00277597    -0.04729200    -0.00017710    -0.00014499    -0.00162244
N        -0.04881997    -0.06295521     1.35011486    -0.00026079    -0.00003091     0.00154399
H         0.95750583     0.04369300    -0.50771803     0.00214476     0.00099282    -0.00080736
H         0.86839594    -0.04131544     1.81765761     0.00247521     0.00019727     0.00039226
H        -0.93010405     0.01546816     1.93019760     0.00114574    -0.00012135    -0.00123309
H        -0.99470518     0.22030273    -0.54623905    -0.00003151     0.00108857    -0.00047467
     6
  Step:    14            Position(A)                                  Velocity(au)
C        -0.03753658    -0.00358962    -0.05604016    -0.00016499    -0.00014043    -0.00144540
N        -0.05026302    -0.06311905     1.35850131    -0.00024196    -0.00002661     0.00139537
H         0.96949537     0.04918033    -0.51251326     0.00204321     0.00093127    -0.00086211
H         0.88202286    -0.04021362     1.81996093     0.00228162     0.00018862     0.00040375
H        -0.92363647     0.01475412     1.92332605     0.00109743    -0.00012673    -0.00115771
H        -0.99506554     0.22639989    -0.54917372    -0.00009391     0.00105001    -0.00055122
     6
  Step:    15            Position(A)                                  Velocity(au)
C        -0.03844179    -0.00438004    -0.06380220    -0.00007539    -0.00006811    -0.00063638
N        -0.05158379    -0.06325919     1.36605367    -0.00010875    -0.00001128     0.00062380
H         0.98084468     0.05433057    -0.51756556     0.00095752     0.00043555    -0.00044768
H         0.89445795    -0.03916090     1.82226944     0.00102680     0.00008973     0.00019744
H        -0.91756857     0.01402056     1.91697356     0.00050171    -0.00006392    -0.00052460
H        -0.99577784     0.23229655    -0.55253539    -0.00007645     0.00050696    -0.00031055
     6
  Step:    16            Position(A)                                  Velocity(au)
C        -0.03885219    -0.00476063    -0.06737175    -0.00007015    -0.00006726    -0.00063211
N        -0.05215157    -0.06333831     1.36954093    -0.00009214    -0.00001672     0.00061517
H         0.98592669     0.05681265    -0.51999848     0.00084646     0.00044634    -0.00041598
H         0.89985421    -0.03861805     1.82336815     0.00088723     0.00010249     0.00019043
H        -0.91488949     0.01379749     1.91412717     0.00044104    -0.00001548    -0.00048043
H        -0.99615492     0.23512929    -0.55428030    -0.00005843     0.00050040    -0.00031049
     6
  Step:    17            Position(A)                                  Velocity(au)
C        -0.03923068    -0.00513641    -0.07091095    -0.00006487    -0.00006714    -0.00063272
N        -0.05262004    -0.06344720     1.37297197    -0.00007449    -0.00002213     0.00061073
H         0.99036411     0.05935012    -0.52224370     0.00073769     0.00046047    -0.00038576
H         0.90443584    -0.03800833     1.82441106     0.00074729     0.00011487     0.00018048
H        -0.91260857     0.01384646     1.91157059     0.00036554     0.00003316    -0.00042735
H        -0.99643493     0.23792415    -0.55602717    -0.00004242     0.00049905    -0.00031473
     6
  Step:    18            Position(A)                                  Velocity(au)
C        -0.03957753    -0.00551140    -0.07444683    -0.00005932    -0.00006743    -0.00063527
N        -0.05298455    -0.06358573     1.37637005    -0.00005557    -0.00002751     0.00060759
H         0.99417555     0.06196162    -0.52431200     0.00062786     0.00047611    -0.00035555
H         0.90821035    -0.03733363     1.82538626     0.00060436     0.00012665     0.00016813
H        -0.91080202     0.01416826     1.90934858     0.00027474     0.00008260    -0.00036434
H        -0.99662923     0.24070964    -0.55779954    -0.00002797     0.00050041    -0.00032174
     6
  Step:    19            Position(A)                                  Velocity(au)
C        -0.03989167    -0.00588780    -0.07799015    -0.00005342    -0.00006791    -0.00063795
N        -0.05323929    -0.06375377     1.37974277    -0.00003548    -0.00003285     0.00060411
H         0.99736080     0.06465569    -0.52620582     0.00051597     0.00049211    -0.00032483
H         0.91117066    -0.03659699     1.82628466     0.00045854     0.00013769     0.00015424
H        -0.90954701     0.01476687     1.90751054     0.00017000     0.00013293    -0.00029192
H        -0.99674664     0.24350058    -0.55961255    -0.00001487     0.00050297    -0.00033057
     6
  Step:    20            Position(A)                                  Velocity(au)
C        -0.04017169    -0.00626670    -0.08154188    -0.00004722    -0.00006848    -0.00063977
N        -0.05337916    -0.06395104     1.38308870    -0.00001455    -0.00003811     0.00059941
H         0.99991388     0.06743467    -0.52792465     0.00040235     0.00050784    -0.00029365
H         0.91331006    -0.03580229     1.82710168     0.00031146     0.00014791     0.00013985
H        -0.90891134     0.01564666     1.90610193     0.00005413     0.00018400    -0.00021174
H        -0.99679460     0.24630345    -0.56147598    -0.00000299     0.00050580    -0.00034058
     6
  Step:    21            Position(A)                                  Velocity(au)
C        -0.04041629    -0.00664852    -0.08509746    -0.00004080    -0.00006905    -0.00064014
N        -0.05340098    -0.06417714     1.38640173     0.00000675    -0.00004327     0.00059308
H         1.00183055     0.07029744    -0.52946802     0.00028806     0.00052297    -0.00026233
H         0.91463076    -0.03495381     1.82783826     0.00016555     0.00015729     0.00012607
H        -0.90894571     0.01681092     1.90515826    -0.00006910     0.00023547    -0.00012615
H        -0.99677982     0.24911967    -0.56339614     0.00000777     0.00050835    -0.00035136
     6
  Step:    22            Position(A)                                  Velocity(au)
C        -0.04062467    -0.00703330    -0.08864924    -0.00003427    -0.00006958    -0.00063879
N        -0.05330417    -0.06443148     1.38967358     0.00002792    -0.00004831     0.00058502
H         1.00311214     0.07324104    -0.53083720     0.00017450     0.00053733    -0.00023135
H         0.91514813    -0.03405589     1.82850136     0.00002360     0.00016586     0.00011402
H        -0.90967854     0.01826102     1.90470130    -0.00019525     0.00028694    -0.00003795
H        -0.99670834     0.25194755    -0.56537700     0.00001750     0.00051025    -0.00036258
     6
  Step:    23            Position(A)                                  Velocity(au)
C        -0.04079665    -0.00742083    -0.09218795    -0.00002775    -0.00007005    -0.00063556
N        -0.05309110    -0.06471334     1.39289540     0.00004838    -0.00005318     0.00057525
H         1.00376747     0.07626174    -0.53203597     0.00006320     0.00055089    -0.00020124
H         0.91489267    -0.03311274     1.82910393    -0.00011150     0.00017367     0.00010481
H        -0.91111301     0.01999592     1.90473706    -0.00031961     0.00033794     0.00004991
H        -0.99658562     0.25478340    -0.56742074     0.00002630     0.00051125    -0.00037400
     6
  Step:    24            Position(A)                                  Velocity(au)
C        -0.04093273    -0.00781077    -0.09570360    -0.00002140    -0.00007044    -0.00063043
N        -0.05276718    -0.06502181     1.39605852     0.00006759    -0.00005788     0.00056391
H         1.00381359     0.07935559    -0.53307089    -0.00004428     0.00056369    -0.00017256
H         0.91391054    -0.03212825     1.82966473    -0.00023689     0.00018079     0.00009946
H        -0.91322604     0.02201195     1.90525528    -0.00043746     0.00038798     0.00013449
H        -0.99641644     0.25762217    -0.56952814     0.00003430     0.00051119    -0.00038540
     6
  Step:    25            Position(A)                                  Velocity(au)
C        -0.04103418    -0.00820270    -0.09918600    -0.00001533    -0.00007074    -0.00062342
N        -0.05234080    -0.06535584     1.39915498     0.00008504    -0.00006237     0.00055116
H         1.00327597     0.08251893    -0.53395141    -0.00014639     0.00057583    -0.00014581
H         0.91226315    -0.03110588     1.83020795    -0.00034986     0.00018732     0.00009889
H        -0.91596903     0.02430268     1.90622995    -0.00054440     0.00043658     0.00021307
H        -0.99620484     0.26045783    -0.57169879     0.00004164     0.00050993    -0.00039659
     6
  Step:    26            Position(A)                                  Velocity(au)
C        -0.04110296    -0.00859616    -0.10262508    -0.00000969    -0.00007096    -0.00061461
N        -0.05182309    -0.06571425     1.40217774     0.00010025    -0.00006663     0.00053722
H         1.00218828     0.08574864    -0.53468973    -0.00024169     0.00058743    -0.00012150
H         0.91002622    -0.03004860     1.83076264    -0.00044800     0.00019334     0.00010392
H        -0.91927012     0.02685903     1.90762092    -0.00063653     0.00048328     0.00028331
H        -0.99595410     0.26328364    -0.57393127     0.00004846     0.00050738    -0.00040743
     6
  Step:    27            Position(A)                                  Velocity(au)
C        -0.04114175    -0.00899067    -0.10601119    -0.00000458    -0.00007109    -0.00060408
N        -0.05122749    -0.06609576     1.40512074     0.00011287    -0.00007064     0.00052226
H         1.00059197     0.08904238    -0.53530062    -0.00032883     0.00059869    -0.00010005
H         0.90728812    -0.02895884     1.83136202    -0.00052922     0.00019897     0.00011523
H        -0.92303773     0.02966944     1.90937612    -0.00071074     0.00052766     0.00034331
H        -0.99566669     0.26609232    -0.57622325     0.00005489     0.00050347    -0.00041776
     6
  Step:    28            Position(A)                                  Velocity(au)
C        -0.04115388    -0.00938579    -0.10933515    -0.00000014    -0.00007114    -0.00059196
N        -0.05056933    -0.06649897     1.40797894     0.00012260    -0.00007440     0.00050648
H         0.99853561     0.09239881    -0.53580112    -0.00040662     0.00060979    -0.00008187
H         0.90414770    -0.02783850     1.83204262    -0.00059188     0.00020429     0.00013331
H        -0.92716496     0.03272028     1.91143436    -0.00076474     0.00056942     0.00039170
H        -0.99534434     0.26887618    -0.57857170     0.00006108     0.00049815    -0.00042749
     6
  Step:    29            Position(A)                                  Velocity(au)
C        -0.04114327    -0.00978111    -0.11258846     0.00000355    -0.00007113    -0.00057840
N        -0.04986523    -0.06692246     1.41074818     0.00012928    -0.00007790     0.00049004
H         0.99607407     0.09581773    -0.53621030    -0.00047400     0.00062098    -0.00006727
H         0.90071178    -0.02668895     1.83284327    -0.00063485     0.00020941     0.00015849
H        -0.93153473     0.03599628     1.91372834    -0.00079718     0.00060832     0.00042770
H        -0.99498806     0.27162729    -0.58097303     0.00006713     0.00049140    -0.00043654
     6
  Step:    30            Position(A)                                  Velocity(au)
C        -0.04111437    -0.01017629    -0.11576341     0.00000641    -0.00007106    -0.00056355
N        -0.04913253    -0.06736477     1.41342523     0.00013283    -0.00008114     0.00047313
H         0.99326759     0.09930029    -0.53654878    -0.00053016     0.00063252    -0.00005650
H         0.89709203    -0.02551115     1.83380401    -0.00065759     0.00021439     0.00019086
H        -0.93602476     0.03948113     1.91618773    -0.00080761     0.00064425     0.00045100
H        -0.99459824     0.27433757    -0.58342331     0.00007317     0.00048321    -0.00044488
     6
  Step:    31            Position(A)                                  Velocity(au)
C        -0.04107206    -0.01057106    -0.11885309     0.00000835    -0.00007096    -0.00054757
N        -0.04838865    -0.06782449     1.41600767     0.00013329    -0.00008414     0.00045587
H         0.99018060     0.10284912    -0.53683843    -0.00057445     0.00064471    -0.00004974
H         0.89340167    -0.02430568     1.83496491    -0.00066015     0.00021929     0.00023032
H        -0.94051246     0.04315809     1.91874189    -0.00079639     0.00067721     0.00046181
H        -0.99417472     0.27699888    -0.58591851     0.00007926     0.00047359    -0.00045252
     6
  Step:    32            Position(A)                                  Velocity(au)
C        -0.04102157    -0.01096527    -0.12185150     0.00001467    -0.00011141    -0.00083441
N        -0.04765055    -0.06830026     1.41849381     0.00020568    -0.00013665     0.00068940
H         0.98688055     0.10646848    -0.53710183    -0.00095369     0.00103449    -0.00007403
H         0.88975212    -0.02307300     1.83636484    -0.00101144     0.00035242     0.00043490
H        -0.94487939     0.04701071     1.92132237    -0.00120239     0.00111228     0.00072448
H        -0.99371698     0.27960313    -0.58845464     0.00013442     0.00072735    -0.00072257
     6
  Step:    33            Position(A)                                  Velocity(au)
C        -0.04093655    -0.01160719    -0.12619827     0.00001520    -0.00011884    -0.00072654
N        -0.04653132    -0.06904092     1.42210498     0.00019378    -0.00012911     0.00060753
H         0.98179665     0.11219309    -0.53781823    -0.00086388     0.00101980    -0.00018418
H         0.88428595    -0.02108466     1.83892674    -0.00093639     0.00036258     0.00048884
H        -0.95142929     0.05303119     1.92536292    -0.00113337     0.00104584     0.00071663
H        -0.99318362     0.28381135    -0.59272660     0.00005953     0.00078204    -0.00080625
     6
  Step:    34            Position(A)                                  Velocity(au)
C        -0.04085201    -0.01229052    -0.12995330     0.00001450    -0.00012593    -0.00062091
N        -0.04548964    -0.06973995     1.42526847     0.00017773    -0.00012145     0.00052766
H         0.97724726     0.11784046    -0.53915567    -0.00076187     0.00100432    -0.00029544
H         0.87931030    -0.01902985     1.84181599    -0.00083556     0.00037545     0.00055013
H        -0.95751785     0.05867308     1.92931369    -0.00103625     0.00097428     0.00069169
H        -0.99305311     0.28832384    -0.59744533    -0.00000886     0.00083421    -0.00088019
     6
  Step:    35            Position(A)                                  Velocity(au)
C        -0.04077471    -0.01301303    -0.13312997     0.00001266    -0.00013269    -0.00051886
N        -0.04454723    -0.07039674     1.42799568     0.00015836    -0.00011385     0.00045073
H         0.97329132     0.12340511    -0.54111651    -0.00065226     0.00098889    -0.00040639
H         0.87495793    -0.01689322     1.84506832    -0.00071470     0.00039136     0.00061712
H        -0.96299772     0.06390789     1.93308477    -0.00091621     0.00089914     0.00065261
H        -0.99328248     0.29312430    -0.60255287    -0.00006836     0.00088384    -0.00094403
     6
  Step:    36            Position(A)                                  Velocity(au)
C        -0.04071056    -0.01377263    -0.13574893     0.00000986    -0.00013914    -0.00042119
N        -0.04372081    -0.07101163     1.43030302     0.00013652    -0.00010643     0.00037724
H         0.96996156     0.12888619    -0.54369495    -0.00053927     0.00097414    -0.00051581
H         0.87132724    -0.01465839     1.84870911    -0.00057980     0.00041028     0.00068788
H        -0.96775182     0.06871633     1.93660328    -0.00077831     0.00082177     0.00060226
H        -0.99381666     0.29819621    -0.60799003    -0.00011727     0.00093084    -0.00099778
     6
  Step:    37            Position(A)                                  Velocity(au)
C        -0.04066461    -0.01456733    -0.13783488     0.00000622    -0.00014530    -0.00032821
N        -0.04302219    -0.07158562     1.43220969     0.00011305    -0.00009925     0.00030741
H         0.96726737     0.13428679    -0.54687834    -0.00042651     0.00096064    -0.00062265
H         0.86848122    -0.01231022     1.85275232    -0.00043695     0.00043170     0.00076032
H        -0.97169183     0.07308752     1.93981239    -0.00062717     0.00074345     0.00054321
H        -0.99459244     0.30352229    -0.61369860    -0.00015450     0.00097493    -0.00104174
     6
  Step:    38            Position(A)                                  Velocity(au)
C        -0.04064105    -0.01539526    -0.13941413     0.00000191    -0.00015118    -0.00023989
N        -0.04245841    -0.07212001     1.43373588     0.00008871    -0.00009233     0.00024115
H         0.96519868     0.13961380    -0.55064821    -0.00031696     0.00094895    -0.00072594
H         0.86644777    -0.00983756     1.85719979    -0.00029209     0.00045463     0.00083223
H        -0.97475559     0.07701855     1.94266939    -0.00046700     0.00066539     0.00047765
H        -0.99554198     0.30908338    -0.61962333    -0.00017948     0.00101557    -0.00107649
     6
  Step:    39            Position(A)                                  Velocity(au)
C        -0.04064335    -0.01625467    -0.14051234    -0.00000299    -0.00015677    -0.00015591
N        -0.04203205    -0.07261615     1.43490118     0.00006427    -0.00008564     0.00017822
H         0.96372977     0.14487815    -0.55498070    -0.00021305     0.00093966    -0.00082471
H         0.86522114    -0.00723598     1.86204092    -0.00015093     0.00047770     0.00090131
H        -0.97690407     0.08051408     1.94514350    -0.00030152     0.00058879     0.00040744
H        -0.99659563     0.31485724    -0.62571345    -0.00019205     0.00105206    -0.00110276
     6
  Step:    40            Position(A)                                  Velocity(au)
C        -0.04067438    -0.01714386    -0.14115312    -0.00000834    -0.00016208    -0.00007585
N        -0.04174156    -0.07307522     1.43572364     0.00004040    -0.00007913     0.00011827
H         0.96282236     0.15009450    -0.55984674    -0.00011685     0.00093322    -0.00091793
H         0.86476432    -0.00450941     1.86725268    -0.00001874     0.00049938     0.00096528
H        -0.97811869     0.08358573     1.94721384    -0.00013412     0.00051470     0.00033416
H        -0.99768400     0.32081776    -0.63192319    -0.00019232     0.00108362    -0.00112128
     6
  Step:    41            Position(A)                                  Velocity(au)
C        -0.04073636    -0.01806113    -0.14135769    -0.00001404    -0.00016705     0.00000069
N        -0.04158174    -0.07349811     1.43621940     0.00001771    -0.00007274     0.00006100
H         0.96242737     0.15527962    -0.56521179    -0.00003023     0.00092971    -0.00100454
H         0.86501226    -0.00166994     1.87279969     0.00009981     0.00051833     0.00102187
H        -0.97839897     0.08625079     1.94886801     0.00003213     0.00044393     0.00025923
H        -0.99873920     0.32693503    -0.63821106    -0.00018060     0.00110954    -0.00113256
     6
  Step:    42            Position(A)                                  Velocity(au)
C        -0.04083073    -0.01900456    -0.14114538    -0.00001991    -0.00017165     0.00007397
N        -0.04154428    -0.07388547     1.43640310    -0.00000329    -0.00006644     0.00000619
H         0.96248569     0.16044985    -0.57103561     0.00004506     0.00092875    -0.00108342
H         0.86587598     0.00126387     1.87863453     0.00020078     0.00053355     0.00106891
H        -0.97776077     0.08853037     1.95010120     0.00019439     0.00037701     0.00018396
H        -0.99969555     0.33317620    -0.64453803    -0.00015730     0.00112934    -0.00113681
     6
  Step:    43            Position(A)                                  Velocity(au)
C        -0.04095800    -0.01997190    -0.14053432    -0.00002578    -0.00017579     0.00014408
N        -0.04161834    -0.07423769     1.43628826    -0.00002218    -0.00006018    -0.00004631
H         0.96292891     0.16561825    -0.57727216     0.00010739     0.00092956    -0.00115347
H         0.86724733     0.00426943     1.88469858     0.00028114     0.00054448     0.00110445
H        -0.97623501     0.09044757     1.95091580     0.00034995     0.00031418     0.00010965
H        -1.00049021     0.33950663    -0.65086578    -0.00012299     0.00114275    -0.00113399
     6
  Step:    44            Position(A)                                  Velocity(au)
C        -0.04111762    -0.02096048    -0.13954220    -0.00003147    -0.00017938     0.00021107
N        -0.04179110    -0.07455505     1.43588779    -0.00003865    -0.00005395    -0.00009656
H         0.96368053     0.17079273    -0.58386992     0.00015545     0.00093112    -0.00121372
H         0.86900413     0.00732209     1.89092334     0.00033876     0.00055084     0.00112683
H        -0.97386696     0.09202611     1.95132126     0.00049620     0.00025551     0.00003761
H        -1.00106400     0.34589114    -0.65715554    -0.00007836     0.00114967    -0.00112395
     6