     6
  Step:     0            Position(A)                                  Velocity(au)
C        -0.03629271     0.01853844     0.03180432    -0.00016990    -0.00008356     0.00036390
N        -0.04383967    -0.06384441     1.28613821     0.00025215    -0.00006693    -0.00025130
H         0.92012124     0.00064157    -0.49949370     0.00074496     0.00055883    -0.00037285
H         0.79445791    -0.03277865     1.79641082    -0.00129767     0.00028601    -0.00050388
H        -0.91238634    -0.01471544     1.87922822    -0.00123937     0.00077524     0.00035784
H        -0.97345301     0.04337410    -0.53571508     0.00031265     0.00030561    -0.00032516
     6
  Step:     1            Position(A)                                  Velocity(au)
C        -0.03722377     0.01808988     0.03338909    -0.00016934    -0.00008031     0.00021458
N        -0.04251774    -0.06425766     1.28509960     0.00022870    -0.00008411    -0.00012820
H         0.92445924     0.00381828    -0.50156435     0.00083264     0.00060189    -0.00037778
H         0.78810531    -0.03104880     1.79404785    -0.00100524     0.00034737    -0.00034963
H        -0.91910428    -0.01033084     1.88099452    -0.00120301     0.00082576     0.00027884
H        -0.97199590     0.04517009    -0.53749870     0.00021528     0.00035060    -0.00032688
     6
  Step:     2            Position(A)                                  Velocity(au)
C        -0.03814508     0.01765996     0.03415163    -0.00016641    -0.00007688     0.00006347
N        -0.04133788    -0.06476447     1.28473587     0.00020065    -0.00010119    -0.00000470
H         0.92922953     0.00722570    -0.50362628     0.00090139     0.00064383    -0.00037019
H         0.78346160    -0.02897871     1.79258616    -0.00067753     0.00041089    -0.00017607
H        -0.92554607    -0.00568237     1.88227851    -0.00113984     0.00087225     0.00018367
H        -0.97109808     0.04720937    -0.53929086     0.00011071     0.00039518    -0.00032827
     6
  Step:     3            Position(A)                                  Velocity(au)
C        -0.03904416     0.01724894     0.03408335    -0.00016135    -0.00007353    -0.00008876
N        -0.04032287    -0.06536461     1.28504815     0.00016898    -0.00011828     0.00011869
H         0.93431968     0.01086119    -0.50561388     0.00094911     0.00068590    -0.00035128
H         0.78069368    -0.02655400     1.79212176    -0.00032491     0.00047751     0.00001241
H        -0.93157306    -0.00078921     1.88300372    -0.00105329     0.00091590     0.00007653
H        -0.97078483     0.04949298    -0.54108973     0.00000352     0.00044055    -0.00032926
     6
  Step:     4            Position(A)                                  Velocity(au)
C        -0.03990991     0.01685565     0.03318077    -0.00015437    -0.00007048    -0.00024107
N        -0.03948957    -0.06605825     1.28603406     0.00013477    -0.00013539     0.00024130
H         0.93961079     0.01472800    -0.50746857     0.00097484     0.00072872    -0.00032234
H         0.77990773    -0.02375575     1.79272192     0.00004118     0.00054765     0.00021005
H        -0.93706693     0.00433566     1.88311561    -0.00094677     0.00095737    -0.00003879
H        -0.97105954     0.05202803    -0.54289224    -0.00010264     0.00048748    -0.00032946
     6
  Step:     5            Position(A)                                  Velocity(au)
C        -0.04073254     0.01647804     0.03144668    -0.00014566    -0.00006783    -0.00039205
N        -0.03884881    -0.06684545     1.28768733     0.00009911    -0.00015239     0.00036223
H         0.94498199     0.01883155    -0.50913946     0.00097824     0.00077219    -0.00028479
H         0.78114412    -0.02056412     1.79441918     0.00040818     0.00062093     0.00040996
H        -0.94192837     0.00968199     1.88257946    -0.00082347     0.00099661    -0.00015871
H        -0.97190748     0.05482480    -0.54469315    -0.00020462     0.00053615    -0.00032840
     6
  Step:     6            Position(A)                                  Velocity(au)
C        -0.04150334     0.01611360     0.02889185    -0.00013538    -0.00006561    -0.00053980
N        -0.03840530    -0.06772538     1.28999676     0.00006314    -0.00016901     0.00048023
H         0.95031251     0.02317551    -0.51058413     0.00095928     0.00081543    -0.00024025
H         0.78437306    -0.01696294     1.79720682     0.00076255     0.00069602     0.00060444
H        -0.94607548     0.01523830     1.88137932    -0.00068652     0.00103280    -0.00027964
H        -0.97329800     0.05789337    -0.54648487    -0.00029952     0.00058602    -0.00032563
     6
  Step:     7            Position(A)                                  Velocity(au)
C        -0.04221452     0.01575987     0.02553756    -0.00012369    -0.00006376    -0.00068179
N        -0.03815762    -0.06869554     1.29294431     0.00002802    -0.00018480     0.00059354
H         0.95548301     0.02775783    -0.51176938     0.00091831     0.00085685    -0.00019048
H         0.78949154    -0.01294492     1.80103590     0.00109023     0.00077059     0.00078528
H        -0.94944358     0.02098784     1.87951825    -0.00053932     0.00106444    -0.00039778
H        -0.97518621     0.06123982    -0.54825776    -0.00038476     0.00063585    -0.00032078
     6
  Step:     8            Position(A)                                  Velocity(au)
C        -0.04285902     0.01541479     0.02141907    -0.00011072    -0.00006218    -0.00081477
N        -0.03809816    -0.06975092     1.29650228    -0.00000506    -0.00019920     0.00069980
H         0.96037767     0.03256707    -0.51267194     0.00085630     0.00089431    -0.00013746
H         0.79632259    -0.00851682     1.80581388     0.00137732     0.00084146     0.00094421
H        -0.95198675     0.02690507     1.87701948    -0.00038582     0.00108950    -0.00050901
H        -0.97751513     0.06486262    -0.55000074    -0.00045819     0.00068380    -0.00031360
     6
  Step:     9            Position(A)                                  Velocity(au)
C        -0.04343051     0.01507692     0.01658932    -0.00009665    -0.00006076    -0.00093490
N        -0.03821314    -0.07088328     1.30062995    -0.00003493    -0.00021154     0.00079611
H         0.96488744     0.03757969    -0.51327905     0.00077505     0.00092534    -0.00008326
H         0.80461804    -0.00370356     1.81140575     0.00161099     0.00090487     0.00107356
H        -0.95368090     0.03295333     1.87392805    -0.00023074     0.00110578    -0.00060898
H        -0.98021833     0.06874968    -0.55170192    -0.00051819     0.00072762    -0.00030401
     6
  Step:    10            Position(A)                                  Velocity(au)
C        -0.04392350     0.01474554     0.01112206    -0.00008170    -0.00005938    -0.00103811
N        -0.03848291    -0.07208084     1.30527066    -0.00006054    -0.00022117     0.00087926
H         0.96891414     0.04275879    -0.51358894     0.00067731     0.00094752    -0.00003001
H         0.81406611     0.00144951     1.81763809     0.00178074     0.00095706     0.00116702
H        -0.95452817     0.03908420     1.87031218    -0.00007956     0.00111132    -0.00069329
H        -0.98322246     0.07287665    -0.55334908    -0.00056363     0.00076499    -0.00029196
     6
  Step:    11            Position(A)                                  Velocity(au)
C        -0.04433369     0.01442051     0.00511278    -0.00006618    -0.00005794    -0.00112073
N        -0.03888247    -0.07332835     1.31035033    -0.00008102    -0.00022755     0.00094624
H         0.97237529     0.04805473    -0.51361087     0.00056685     0.00095895     0.00002019
H         0.82430451     0.00687691     1.82430740     0.00187984     0.00099476     0.00122060
H        -0.95456047     0.04523914     1.86626356     0.00006174     0.00110484    -0.00075795
H        -0.98644942     0.07720682    -0.55492965    -0.00059397     0.00079389    -0.00027746
     6
  Step:    12            Position(A)                                  Velocity(au)
C        -0.04465842     0.01410214    -0.00132366    -0.00005050    -0.00005641    -0.00118026
N        -0.03938262    -0.07460780     1.31577870    -0.00009579    -0.00023041     0.00099492
H         0.97520905     0.05340794    -0.51336471     0.00044830     0.00095867     0.00006553
H         0.83494178     0.01249633     1.83119288     0.00190674     0.00101594     0.00123343
H        -0.95384252     0.05135344     1.86189513     0.00018717     0.00108628    -0.00079994
H        -0.98981853     0.08169287    -0.55643029    -0.00060939     0.00081304    -0.00026067
     6
  Step:    13            Position(A)                                  Velocity(au)
C        -0.04489726     0.01379092    -0.00805972    -0.00003511    -0.00005483    -0.00121628
N        -0.03995153    -0.07589984     1.32145428    -0.00010469    -0.00022984     0.00102477
H         0.97737866     0.05875417    -0.51287946     0.00032688     0.00094719     0.00010457
H         0.84558501     0.01821549     1.83807329     0.00186587     0.00102042     0.00120827
H        -0.95247155     0.05736278     1.85733569     0.00029156     0.00105721    -0.00081796
H        -0.99325062     0.08628089    -0.55783893    -0.00061113     0.00082235    -0.00024220
     6
  Step:    14            Position(A)                                  Velocity(au)
C        -0.04505227     0.01348715    -0.01496630    -0.00002049    -0.00005329    -0.00123101
N        -0.04055687    -0.07718582     1.32727327    -0.00010802    -0.00022640     0.00103747
H         0.97887560     0.06403231    -0.51219176     0.00020781     0.00092668     0.00013633
H         0.85587066     0.02394202     1.84474564     0.00176736     0.00101017     0.00115133
H        -0.95057213     0.06321183     1.85272030     0.00037155     0.00102090    -0.00081292
H        -0.99667341     0.09091693    -0.55914698    -0.00060155     0.00082325    -0.00022298
     6
  Step:    15            Position(A)                                  Velocity(au)
C        -0.04512804     0.01319064    -0.02192736    -0.00000698    -0.00005194    -0.00122921
N        -0.04116836    -0.07845028     1.33314165    -0.00010648    -0.00022103     0.00103679
H         0.97971967     0.06919343    -0.51134364     0.00009546     0.00090072     0.00016050
H         0.86549473     0.02959535     1.85104326     0.00162524     0.00098913     0.00107118
H        -0.94828591     0.06886344     1.84817796     0.00042608     0.00098194    -0.00078779
H        -1.00002727     0.09555502    -0.56035086    -0.00058387     0.00081854    -0.00020410
     6
  Step:    16            Position(A)                                  Velocity(au)
C        -0.04513114     0.01290036    -0.02885367     0.00000521    -0.00005096    -0.00121697
N        -0.04175988    -0.07968295     1.33898669    -0.00010101    -0.00021482     0.00102764
H         0.97995409     0.07420844    -0.51037853    -0.00000731     0.00087346     0.00017737
H         0.87423228     0.03511698     1.85684752     0.00145423     0.00096209     0.00097679
H        -0.94575837     0.07430558     1.84382006     0.00045619     0.00094524    -0.00074667
H        -1.00326985     0.10016460    -0.56145279    -0.00056153     0.00081171    -0.00018654
     6
  Step:    17            Position(A)                                  Velocity(au)
C        -0.04506917     0.01261431    -0.03568946     0.00001604    -0.00005051    -0.00119983
N        -0.04231060    -0.08087962     1.34476279    -0.00009248    -0.00020873     0.00101455
H         0.97963704     0.07907093    -0.50933787    -0.00009922     0.00084838     0.00018755
H         0.88193997     0.04047522     1.86208932     0.00126649     0.00093336     0.00087559
H        -0.94312703     0.07955273     1.83973417     0.00046406     0.00091476    -0.00069343
H        -1.00637735     0.10473425    -0.56246032    -0.00053737     0.00080589    -0.00017098
     6
  Step:    18            Position(A)                                  Velocity(au)
C        -0.04494990     0.01232973    -0.04240963     0.00003980    -0.00007878    -0.00183830
N        -0.04280471    -0.08204125     1.35044930    -0.00012693    -0.00031637     0.00155667
H         0.97883305     0.08379365    -0.50825954    -0.00028010     0.00128761     0.00029803
H         0.88854135     0.04566221     1.86674009     0.00166491     0.00140911     0.00120180
H        -0.94051535     0.08464066     1.83598557     0.00070309     0.00138897    -0.00098127
H        -1.00934119     0.10926972    -0.56338453    -0.00079833     0.00124944    -0.00024532
     6
  Step:    19            Position(A)                                  Velocity(au)
C        -0.04471905     0.01188767    -0.05235164     0.00002527    -0.00004781    -0.00102820
N        -0.04347203    -0.08376627     1.35890978    -0.00006591    -0.00018025     0.00087933
H         0.97735037     0.09087491    -0.50690342    -0.00014613     0.00074757     0.00011098
H         0.89727769     0.05332386     1.87320389     0.00086923     0.00079723     0.00066248
H        -0.93670028     0.09226185     1.83075306     0.00038688     0.00080408    -0.00052792
H        -1.01388748     0.11614439    -0.56507197    -0.00049521     0.00072557    -0.00021295
     6
  Step:    20            Position(A)                                  Velocity(au)
C        -0.04455551     0.01161552    -0.05808559     0.00003222    -0.00004902    -0.00100805
N        -0.04379962    -0.08476912     1.36381655    -0.00004987    -0.00017622     0.00086310
H         0.97634407     0.09504237    -0.50629118    -0.00020612     0.00073405     0.00010396
H         0.90155931     0.05773720     1.87662425     0.00065195     0.00077081     0.00055356
H        -0.93466642     0.09676883     1.82801658     0.00032855     0.00079984    -0.00044124
H        -1.01659289     0.12023518    -0.56622826    -0.00046530     0.00072817    -0.00019834
     6
  Step:    21            Position(A)                                  Velocity(au)
C        -0.04435651     0.01133607    -0.06369501     0.00003815    -0.00005074    -0.00099107
N        -0.04403317    -0.08574925     1.36862213    -0.00003299    -0.00017339     0.00084948
H         0.97503091     0.09913510    -0.50573353    -0.00025681     0.00072608     0.00009227
H         0.90461395     0.06199768     1.87943304     0.00043829     0.00074842     0.00044929
H        -0.93300316     0.10126227     1.82578790     0.00025862     0.00080456    -0.00035094
H        -1.01912344     0.12433841    -0.56730385    -0.00043630     0.00073511    -0.00018557
     6
  Step:    22            Position(A)                                  Velocity(au)
C        -0.04412775     0.01104653    -0.06919844     0.00004303    -0.00005284    -0.00097471
N        -0.04416950    -0.08671336     1.37334170    -0.00001553    -0.00017127     0.00083626
H         0.97346452     0.10318384    -0.50525654    -0.00029760     0.00072152     0.00007558
H         0.90647386     0.06612920     1.88166209     0.00022875     0.00072831     0.00034923
H        -0.93176653     0.10579028     1.82408153     0.00017895     0.00081535    -0.00025714
H        -1.02148510     0.12847788    -0.56830904    -0.00040703     0.00074436    -0.00017400
     6
  Step:    23            Position(A)                                  Velocity(au)
C        -0.04387513     0.01074491    -0.07460026     0.00004680    -0.00005518    -0.00095717
N        -0.04420689    -0.08766541     1.37797843     0.00000212    -0.00016948     0.00082196
H         0.97170129     0.10720765    -0.50488788    -0.00032787     0.00071884     0.00005375
H         0.90717322     0.07014621     1.88334035     0.00002530     0.00070948     0.00025384
H        -0.93100106     0.11038466     1.82291095     0.00009231     0.00082978    -0.00016089
H        -1.02367739     0.13266653    -0.56925060    -0.00037683     0.00075448    -0.00016322
     6
  Step:    24            Position(A)                                  Velocity(au)
C        -0.04360474     0.01042992    -0.07989506     0.00004945    -0.00005767    -0.00093745
N        -0.04414585    -0.08860732     1.38252730     0.00001945    -0.00016779     0.00080573
H         0.96980051     0.11121707    -0.50465588    -0.00034716     0.00071702     0.00002680
H         0.90675656     0.07405773     1.88449876    -0.00016913     0.00069155     0.00016411
H        -0.93073493     0.11506329     1.82228350     0.00000221     0.00084580    -0.00006392
H        -1.02569621     0.13690931    -0.57013310    -0.00034546     0.00076448    -0.00015301
     6
  Step:    25            Position(A)                                  Velocity(au)
C        -0.04332274     0.01010074    -0.08507174     0.00005099    -0.00006025    -0.00091505
N        -0.04398963    -0.08953968     1.38697860     0.00003594    -0.00016606     0.00078719
H         0.96782339     0.11521688    -0.50458848    -0.00035535     0.00071537    -0.00000505
H         0.90528403     0.07787099     1.88517345    -0.00035118     0.00067466     0.00008133
H        -0.93097634     0.11983237     1.82219699    -0.00008745     0.00086164     0.00003173
H        -1.02753628     0.14120597    -0.57095978    -0.00031303     0.00077383    -0.00014326
     6
  Step:    26            Position(A)                                  Velocity(au)
C        -0.04303514     0.00975694    -0.09011658     0.00005148    -0.00006286    -0.00088992
N        -0.04374442    -0.09046228     1.39132055     0.00005105    -0.00016420     0.00076631
H         0.96583112     0.11920807    -0.50471224    -0.00035265     0.00071349    -0.00004145
H         0.90283368     0.08159396     1.88540724    -0.00051751     0.00065926     0.00000685
H        -0.93171183     0.12468811     1.82263793    -0.00017275     0.00087578     0.00012391
H        -1.02919289     0.14555332    -0.57173332    -0.00027984     0.00078229    -0.00013392
     6
  Step:    27            Position(A)                                  Velocity(au)
C        -0.04274757     0.00939834    -0.09501541     0.00005100    -0.00006548    -0.00086223
N        -0.04341926    -0.09137440     1.39554112     0.00006428    -0.00016218     0.00074327
H         0.96388304     0.12318916    -0.50505162    -0.00033964     0.00071108    -0.00008196
H         0.89950154     0.08523733     1.88524998    -0.00066498     0.00064604    -0.00005808
H        -0.93290658     0.12961808     1.82358153    -0.00024999     0.00088691     0.00021066
H        -1.03066308     0.14994704    -0.57245612    -0.00024632     0.00078988    -0.00012500
     6
  Step:    28            Position(A)                                  Velocity(au)
C        -0.04246506     0.00902496    -0.09975499     0.00004969    -0.00006808    -0.00083233
N        -0.04302589    -0.09227518     1.39962919     0.00007520    -0.00015999     0.00071837
H         0.96203447     0.12715687    -0.50562844    -0.00031726     0.00070794    -0.00012608
H         0.89540023     0.08881575     1.88475801    -0.00079084     0.00063588    -0.00011236
H        -0.93450632     0.13460245     1.82499274    -0.00031601     0.00089389     0.00029031
H        -1.03194634     0.15438304    -0.57313060    -0.00021300     0.00079684    -0.00011652
     6
  Step:    29            Position(A)                                  Velocity(au)
C        -0.04219182     0.00863694    -0.10432394     0.00004773    -0.00007065    -0.00080066
N        -0.04257830    -0.09316372     1.40357518     0.00008344    -0.00015767     0.00069198
H         0.96033494     0.13110651    -0.50646161    -0.00028672     0.00070385    -0.00017327
H         0.89065705     0.09234883     1.88399334    -0.00089281     0.00062976    -0.00015514
H        -0.93644070     0.13961508     1.82682827    -0.00036833     0.00089575     0.00036165
H        -1.03304515     0.15885861    -0.57375925    -0.00018044     0.00080354    -0.00010851
     6
  Step:    30            Position(A)                                  Velocity(au)
C        -0.04193102     0.00823450    -0.10871316     0.00004531    -0.00007318    -0.00076766
N        -0.04209230    -0.09403929     1.40737138     0.00008875    -0.00015526     0.00066445
H         0.95882651     0.13503189    -0.50756710    -0.00024948     0.00069856    -0.00022308
H         0.88541103     0.09586179     1.88302223    -0.00096920     0.00062875    -0.00018583
H        -0.93862742     0.14462455     1.82903904    -0.00040528     0.00089167     0.00042392
H        -1.03396522     0.16337342    -0.57434467    -0.00014926     0.00081054    -0.00010099
     6
  Step:    31            Position(A)                                  Velocity(au)
C        -0.04168465     0.00781788    -0.11291585     0.00004267    -0.00007568    -0.00073374
N        -0.04158502    -0.09490141     1.41101195     0.00009093    -0.00015280     0.00063612
H         0.95754269     0.13892499    -0.50895833    -0.00020713     0.00069169    -0.00027512
H         0.87980949     0.09938595     1.88191345    -0.00101896     0.00063397    -0.00020421
H        -0.94097674     0.14959495     1.83157291    -0.00042596     0.00088092     0.00047687
H        -1.03471568     0.16793043    -0.57488955    -0.00012007     0.00081855    -0.00009397
     6
  Step:    32            Position(A)                                  Velocity(au)
C        -0.04145332     0.00738729    -0.11692728     0.00004007    -0.00007815    -0.00069922
N        -0.04107433    -0.09574985     1.41449264     0.00008991    -0.00015035     0.00060723
H         0.95650776     0.14277520    -0.51064697    -0.00016131     0.00068268    -0.00032923
H         0.87400400     0.10295901     1.88073617    -0.00104176     0.00064665    -0.00021043
H        -0.94339595     0.15448623     1.83437745    -0.00043024     0.00086274     0.00052071
H        -1.03530943     0.17253689    -0.57539664    -0.00009361     0.00082846    -0.00008748
     6
  Step:    33            Position(A)                                  Velocity(au)
C        -0.04123608     0.00694292    -0.12074408     0.00003780    -0.00008061    -0.00066419
N        -0.04057836    -0.09658466     1.41781037     0.00008568    -0.00014794     0.00057790
H         0.95573674     0.14656805    -0.51264434    -0.00011360     0.00067066    -0.00038561
H         0.86814619     0.10662562     1.87955755    -0.00103797     0.00066808    -0.00020508
H        -0.94579357     0.15925392     1.83740260    -0.00041869     0.00083622     0.00055614
H        -1.03576374     0.17720562    -0.57586891    -0.00007076     0.00084144    -0.00008159
     6
  Step:    34            Position(A)                                  Velocity(au)
C        -0.04103017     0.00648480    -0.12436295     0.00003622    -0.00008311    -0.00062844
N        -0.04011516    -0.09740603     1.42096227     0.00007826    -0.00014557     0.00054799
H         0.95523604     0.15028329    -0.51496395    -0.00006532     0.00065433    -0.00044509
H         0.86238382     0.11043818     1.87844029    -0.00100857     0.00069981    -0.00018918
H        -0.94808318     0.16384775     1.84060343    -0.00039251     0.00080003     0.00058435
H        -1.03610158     0.18195688    -0.57631005    -0.00005280     0.00085910    -0.00007658
     6
  Step:    35            Position(A)                                  Velocity(au)
C        -0.04083066     0.00601269    -0.12777812     0.00003577    -0.00008572    -0.00059100
N        -0.03970237    -0.09821406     1.42394392     0.00006774    -0.00014320     0.00051686
H         0.95500563     0.15389193    -0.51762612    -0.00001709     0.00063177    -0.00050969
H         0.85685736     0.11445848     1.87744008    -0.00095506     0.00074372    -0.00016416
H        -0.95018686     0.16820852     1.84394310    -0.00035353     0.00075206     0.00060710
H        -1.03635477     0.18682143    -0.57672609    -0.00004191     0.00088375    -0.00007331
     6
  Step:    36            Position(A)                                  Velocity(au)
C        -0.04062996     0.00552569    -0.13097580     0.00003689    -0.00008864    -0.00054934
N        -0.03935716    -0.09900828     1.42674553     0.00005424    -0.00014060     0.00048279
H         0.95504478     0.15735235    -0.52066695     0.00003242     0.00060066    -0.00058376
H         0.85169739     0.11875980     1.87660347    -0.00087932     0.00080164    -0.00013161
H        -0.95203890     0.17226269     1.84739647    -0.00030439     0.00068927     0.00062684
H        -1.03657056     0.19184532    -0.57713037    -0.00004204     0.00091846    -0.00007444
     6
  Step:    37            Position(A)                                  Velocity(au)
C        -0.04041805     0.00502127    -0.13392213     0.00003961    -0.00009233    -0.00049815
N        -0.03909574    -0.09978652     1.42934354     0.00003818    -0.00013733     0.00044209
H         0.95536825     0.16060994    -0.52415505     0.00008927     0.00056105    -0.00067438
H         0.84702280     0.12342424     1.87596817    -0.00078355     0.00087235    -0.00009200
H        -0.95359129     0.17591754     1.85095386    -0.00024893     0.00061008     0.00064589
H        -1.03682491     0.19709378    -0.57755863    -0.00005926     0.00096510    -0.00008700
     6
  Step:    38            Position(A)                                  Velocity(au)
C        -0.04018722     0.00449358    -0.13654420     0.00004247    -0.00009732    -0.00043182
N        -0.03893042    -0.10054335     1.43168731     0.00002082    -0.00013293     0.00039084
H         0.95604263     0.16362384    -0.52820526     0.00016326     0.00052152    -0.00078500
H         0.84293873     0.12851103     1.87557512    -0.00067111     0.00094548    -0.00004284
H        -0.95482148     0.17908226     1.85461629    -0.00019131     0.00052192     0.00066347
H        -1.03723296     0.20263339    -0.57810282    -0.00009628     0.00101800    -0.00012132
     6
  Step:    39            Position(A)                                  Velocity(au)
C        -0.03994363     0.00393409    -0.13874591     0.00004334    -0.00010363    -0.00035180
N        -0.03886312    -0.10127146     1.43370957     0.00000383    -0.00012752     0.00032997
H         0.95719196     0.16643582    -0.53292412     0.00025606     0.00049512    -0.00090698
H         0.83952591     0.13398612     1.87548957    -0.00054746     0.00100679     0.00001832
H        -0.95572842     0.18174788     1.85836536    -0.00013322     0.00043986     0.00067514
H        -1.03790043     0.20846567    -0.57891387    -0.00014504     0.00106514    -0.00017976
     6
  Step:    40            Position(A)                                  Velocity(au)
C        -0.03970343     0.00333684    -0.14047119     0.00004155    -0.00011067    -0.00026557
N        -0.03888768    -0.10196684     1.43537059    -0.00001198    -0.00012168     0.00026466
H         0.95890094     0.16915063    -0.53832948     0.00035724     0.00048636    -0.00102692
H         0.83682759     0.13974940     1.87577962    -0.00041900     0.00105116     0.00008940
H        -0.95630858     0.18399222     1.86215264    -0.00007374     0.00037241     0.00067778
H        -1.03885197     0.21452311    -0.58010940    -0.00019311     0.00109976    -0.00025347
     6
  Step:    41            Position(A)                                  Velocity(au)
C        -0.03948018     0.00269972    -0.14170801     0.00004555    -0.00014236    -0.00021599
N        -0.03899678    -0.10262871     1.43666149    -0.00003200    -0.00013982     0.00024023
H         0.96117656     0.17186061    -0.54437812     0.00054972     0.00059389    -0.00137307
H         0.83485248     0.14571048     1.87648667    -0.00035177     0.00130522     0.00019998
H        -0.95655090     0.18590169     1.86592523    -0.00001462     0.00038524     0.00081072
H        -1.04005428     0.22073216    -0.58174106    -0.00028143     0.00135501    -0.00040214
     6
  Step:    42            Position(A)                                  Velocity(au)
C        -0.03925318     0.00190685    -0.14287431     0.00003751    -0.00014191    -0.00020415
N        -0.03920716    -0.10340696     1.43795639    -0.00004394    -0.00013949     0.00022564
H         0.96425924     0.17526224    -0.55196624     0.00054475     0.00061825    -0.00134840
H         0.83320479     0.15297097     1.87780000    -0.00024277     0.00130803     0.00026592
H        -0.95638863     0.18808400     1.87031520     0.00007395     0.00038983     0.00076554
H        -1.04143286     0.22815046    -0.58395297    -0.00021224     0.00131334    -0.00038600
     6
  Step:    43            Position(A)                                  Velocity(au)
C        -0.03906222     0.00111837    -0.14398287     0.00003246    -0.00014097    -0.00019459
N        -0.03948643    -0.10418313     1.43917585    -0.00005646    -0.00013909     0.00021277
H         0.96724683     0.17874999    -0.55940373     0.00051809     0.00062651    -0.00132075
H         0.83214718     0.16028620     1.87944994    -0.00014170     0.00132389     0.00032073
H        -0.95572688     0.19024570     1.87445580     0.00016341     0.00037937     0.00072211
H        -1.04241933     0.23536710    -0.58604236    -0.00014199     0.00128288    -0.00036014
     6
  Step:    44            Position(A)                                  Velocity(au)
C        -0.03889160     0.00033650    -0.14504186     0.00003001    -0.00013971    -0.00018595
N        -0.03983610    -0.10495629     1.44032651    -0.00006898    -0.00013846     0.00020075
H         0.97003031     0.18224107    -0.56667837     0.00047369     0.00062126    -0.00129126
H         0.83162641     0.16771813     1.88137271    -0.00005147     0.00134893     0.00036397
H        -0.95456834     0.19230990     1.87835897     0.00025128     0.00035653     0.00068100
H        -1.04301455     0.24244079    -0.58796460    -0.00007253     0.00126207    -0.00032758
     6