     6
  Step:     0            Position(A)                                  Velocity(au)
C        -0.03995018     0.02458890     0.02249003    -0.00003109    -0.00012969     0.00034918
N        -0.03669397    -0.06703238     1.29863093    -0.00001143     0.00005528    -0.00032637
H         0.91713525     0.00934735    -0.48446093    -0.00067589     0.00037384     0.00016747
H         0.82296008    -0.09395008     1.78975513     0.00034277     0.00001054     0.00039951
H        -0.97357604     0.01155712     1.88037408     0.00018581    -0.00007462    -0.00047064
H        -0.99349633     0.04177079    -0.60785201     0.00067657     0.00046742     0.00027813
     6
  Step:     1            Position(A)                                  Velocity(au)
C        -0.04014701     0.02388899     0.02401523    -0.00004086    -0.00012647     0.00020826
N        -0.03684557    -0.06676879     1.29716361    -0.00004309     0.00004093    -0.00020922
H         0.91368481     0.01152207    -0.48366653    -0.00057825     0.00042257     0.00012079
H         0.82541328    -0.09378570     1.79232206     0.00054455     0.00005093     0.00053189
H        -0.97197568     0.01124728     1.87746580     0.00039549    -0.00003736    -0.00059164
H        -0.98964751     0.04441853    -0.60608926     0.00072384     0.00050204     0.00036470
     6
  Step:     2            Position(A)                                  Velocity(au)
C        -0.04039701     0.02320578     0.02476767    -0.00005046    -0.00012358     0.00006649
N        -0.03716526    -0.06658475     1.29634276    -0.00007264     0.00002632    -0.00008994
H         0.91081106     0.01396889    -0.48313984    -0.00046838     0.00047298     0.00006936
H         0.82891566    -0.09339308     1.79557229     0.00072403     0.00009337     0.00064932
H        -0.96925066     0.01114858     1.87390347     0.00059617     0.00000170    -0.00070825
H        -0.98557995     0.04726140    -0.60386337     0.00075890     0.00053866     0.00044704
     6
  Step:     3            Position(A)                                  Velocity(au)
C        -0.04069870     0.02253792     0.02474218    -0.00005967    -0.00012088    -0.00007627
N        -0.03763979    -0.06648099     1.29618031    -0.00009952     0.00001166     0.00003150
H         0.90856396     0.01669322    -0.48290826    -0.00035196     0.00052392     0.00001293
H         0.83332917    -0.09276485     1.79942113     0.00087617     0.00013677     0.00075094
H        -0.96545765     0.01126587     1.86972245     0.00078503     0.00004113    -0.00081646
H        -0.98135040     0.05030777    -0.60120172     0.00078472     0.00057654     0.00052363
     6
  Step:     4            Position(A)                                  Velocity(au)
C        -0.04104923     0.02188459     0.02393405    -0.00006820    -0.00011825    -0.00021950
N        -0.03825300    -0.06645733     1.29668706    -0.00012316    -0.00000290     0.00015452
H         0.90696410     0.01969534    -0.48299848    -0.00023361     0.00057418    -0.00004796
H         0.83849230    -0.09189815     1.80378013     0.00099713     0.00018024     0.00083583
H        -0.96067023     0.01159817     1.86497950     0.00095820     0.00007990    -0.00091223
H        -0.97700297     0.05356304    -0.59814011     0.00080236     0.00061492     0.00059268
     6
  Step:     5            Position(A)                                  Velocity(au)
C        -0.04144406     0.02124559     0.02234325    -0.00007570    -0.00011556    -0.00036179
N        -0.03898580    -0.06651263     1.29786902    -0.00014298    -0.00001713     0.00027774
H         0.90601077     0.02296854    -0.48343238    -0.00011659     0.00062229    -0.00011204
H         0.84422698    -0.09079496     1.80855599     0.00108421     0.00022283     0.00090281
H        -0.95498538     0.01213911     1.85975256     0.00111049     0.00011710    -0.00099147
H        -0.97258133     0.05702832    -0.59472421     0.00081072     0.00065283     0.00065211
     6
  Step:     6            Position(A)                                  Velocity(au)
C        -0.04187674     0.02062133     0.01997907    -0.00008178    -0.00011273    -0.00050088
N        -0.03981598    -0.06664463     1.29972330    -0.00015835    -0.00003085     0.00039907
H         0.90568958     0.02649811    -0.48422331    -0.00000310     0.00066675    -0.00017747
H         0.85034458    -0.08946218     1.81364948     0.00113570     0.00026369     0.00095065
H        -0.94853056     0.01287832     1.85414100     0.00123539     0.00015221    -0.00104990
H        -0.96814039     0.06069965    -0.59101142     0.00080694     0.00068931     0.00069949
     6
  Step:     7            Position(A)                                  Velocity(au)
C        -0.04233864     0.02001247     0.01686406    -0.00008602    -0.00010972    -0.00063388
N        -0.04071803    -0.06685013     1.30223457    -0.00016865    -0.00004388     0.00051581
H         0.90597681     0.03026226    -0.48537378     0.00010510     0.00070628    -0.00024206
H         0.85665065    -0.08791042     1.81895530     0.00115090     0.00030216     0.00097826
H        -0.94147119     0.01380422     1.84826756     0.00132535     0.00018521    -0.00108301
H        -0.96375412     0.06456877    -0.58707238     0.00078724     0.00072354     0.00073225
     6
  Step:     8            Position(A)                                  Velocity(au)
C        -0.04281883     0.01941958     0.01303658    -0.00008800    -0.00010658    -0.00075754
N        -0.04166313    -0.06712518     1.30537263    -0.00017331    -0.00005605     0.00062490
H         0.90684063     0.03423363    -0.48687444     0.00020630     0.00073986    -0.00030357
H         0.86294973    -0.08615283     1.82436380     0.00113010     0.00033773     0.00098509
H        -0.93401481     0.01490683     1.84227948     0.00137271     0.00021646    -0.00108645
H        -0.95951816     0.06862413    -0.58299149     0.00074788     0.00075488     0.00074791
     6
  Step:     9            Position(A)                                  Velocity(au)
C        -0.04330421     0.01884303     0.00855220    -0.00008737    -0.00010335    -0.00086854
N        -0.04261963    -0.06746514     1.30909110    -0.00017191    -0.00006724     0.00072325
H         0.90824034     0.03838012    -0.48870458     0.00029867     0.00076661    -0.00035997
H         0.86905030    -0.08420478     1.82976382     0.00107472     0.00036994     0.00097125
H        -0.92640960     0.01617923     1.83634690     0.00137080     0.00024648    -0.00105663
H        -0.95554824     0.07285143    -0.57886624     0.00068580     0.00078277     0.00074434
     6
  Step:    10            Position(A)                                  Velocity(au)
C        -0.04377978     0.01828293     0.00348378    -0.00008387    -0.00010006    -0.00096379
N        -0.04355389    -0.06786469     1.31332742    -0.00016426    -0.00007730     0.00080795
H         0.91012557     0.04266526    -0.49083359     0.00038036     0.00078580    -0.00040962
H         0.87477019    -0.08208403     1.83504623     0.00098746     0.00039828     0.00093773
H        -0.91893792     0.01761777     1.83065802     0.00131481     0.00027578    -0.00099130
H        -0.95197534     0.07723356    -0.57480483     0.00059924     0.00080669     0.00072018
     6
  Step:    11            Position(A)                                  Velocity(au)
C        -0.04422938     0.01773916    -0.00207995    -0.00007739    -0.00009679    -0.00104076
N        -0.04443162    -0.06831788     1.31800408    -0.00015048    -0.00008613     0.00087661
H         0.91243636     0.04704870    -0.49322337     0.00044978     0.00079693    -0.00045147
H         0.87994355    -0.07981113     1.84010841     0.00087246     0.00042228     0.00088644
H        -0.91190523     0.01922155     1.82541133     0.00120287     0.00030475    -0.00089019
H        -0.94893770     0.08175053    -0.57092155     0.00048819     0.00082621     0.00067520
     6
  Step:    12            Position(A)                                  Velocity(au)
C        -0.04463651     0.01721148    -0.00803743    -0.00006804    -0.00009357    -0.00109783
N        -0.04521971    -0.06881813     1.32303154    -0.00013110    -0.00009364     0.00092770
H         0.91510461     0.05148727    -0.49583142     0.00050578     0.00079986    -0.00048512
H         0.88442838    -0.07740932     1.84485912     0.00073525     0.00044161     0.00082027
H        -0.90562208     0.02099139     1.82080353     0.00103702     0.00033360    -0.00075560
H        -0.94657111     0.08637972    -0.56733037     0.00035455     0.00084109     0.00061053
     6
  Step:    13            Position(A)                                  Velocity(au)
C        -0.04498550     0.01669944    -0.01427932    -0.00005613    -0.00009046    -0.00113472
N        -0.04588845    -0.06935843     1.32831293    -0.00010704    -0.00009982     0.00096089
H         0.91805677     0.05593700    -0.49861410     0.00054799     0.00079502    -0.00051082
H         0.88811381    -0.07490380     1.84922341     0.00058243     0.00045621     0.00074294
H        -0.90038162     0.02292858     1.81701493     0.00082365     0.00036236    -0.00059252
H        -0.94499783     0.09109698    -0.56413715     0.00020220     0.00085149     0.00052882
     6
  Step:    14            Position(A)                                  Velocity(au)
C        -0.04526271     0.01620235    -0.02069565    -0.00007263    -0.00015082    -0.00198551
N        -0.04641373    -0.06993167     1.33375066    -0.00013701    -0.00018042     0.00168335
H         0.92121763     0.06035602    -0.50152977     0.00099358     0.00134949    -0.00091193
H         0.89092565    -0.07232015     1.85314691     0.00072546     0.00080339     0.00113475
H        -0.89643400     0.02503365     1.81419376     0.00098739     0.00067343    -0.00070336
H        -0.94431554     0.09587846    -0.56143120     0.00006285     0.00147800     0.00074754
     6
  Step:    15            Position(A)                                  Velocity(au)
C        -0.04563926     0.01536635    -0.03146466    -0.00005887    -0.00014420    -0.00180232
N        -0.04708921    -0.07092401     1.34292700    -0.00009957    -0.00016891     0.00154306
H         0.92710703     0.06780017    -0.50697880     0.00106941     0.00127253    -0.00099795
H         0.89452722    -0.06794188     1.85924398     0.00054284     0.00073829     0.00101210
H        -0.89173599     0.02881540     1.81087772     0.00065054     0.00066095    -0.00045700
H        -0.94463114     0.10402587    -0.55795715    -0.00017761     0.00139376     0.00047638
     6
  Step:    16            Position(A)                                  Velocity(au)
C        -0.04593239     0.01456210    -0.04119667    -0.00004321    -0.00013808    -0.00160649
N        -0.04754635    -0.07185300     1.35130267    -0.00006031    -0.00015662     0.00138941
H         0.93338199     0.07483080    -0.51288121     0.00111706     0.00119182    -0.00106038
H         0.89710036    -0.06392229     1.86465931     0.00036177     0.00067051     0.00088697
H        -0.88903420     0.03255183     1.80899553     0.00029047     0.00065031    -0.00020209
H        -0.94633577     0.11173222    -0.55601252    -0.00041641     0.00130907     0.00021080
     6
  Step:    17            Position(A)                                  Velocity(au)
C        -0.04613329     0.01378774    -0.04983122    -0.00001063    -0.00005261    -0.00055918
N        -0.04777868    -0.07271454     1.35881167    -0.00000852    -0.00005723     0.00048885
H         0.93987809     0.08142592    -0.51910177     0.00045166     0.00044108    -0.00043704
H         0.89866328    -0.06027614     1.86938447     0.00007511     0.00023932     0.00030378
H        -0.88841512     0.03625020     1.80856732    -0.00002748     0.00025470     0.00001848
H        -0.94939180     0.11899210    -0.55554714    -0.00025432     0.00048710    -0.00001517
     6
  Step:    18            Position(A)                                  Velocity(au)
C        -0.04613406     0.01348863    -0.05298134     0.00000988    -0.00005353    -0.00055693
N        -0.04772738    -0.07305217     1.36155495     0.00002556    -0.00006230     0.00048310
H         0.94234983     0.08388817    -0.52155703     0.00042251     0.00043212    -0.00043252
H         0.89861496    -0.05888201     1.87087614    -0.00008663     0.00025474     0.00022815
H        -0.88955840     0.03782179     1.80933147    -0.00036679     0.00030146     0.00024497
H        -0.95137566     0.12182012    -0.55593236    -0.00044211     0.00051535    -0.00011761
     6
  Step:    19            Position(A)                                  Velocity(au)
C        -0.04602186     0.01318403    -0.05611208     0.00002962    -0.00005529    -0.00056037
N        -0.04749037    -0.07341719     1.36425995     0.00005760    -0.00006785     0.00048232
H         0.94464297     0.08629925    -0.52397953     0.00039448     0.00042900    -0.00043174
H         0.89768628    -0.05740322     1.87195744    -0.00023894     0.00027323     0.00016126
H        -0.89255161     0.03964996     1.81133003    -0.00068703     0.00034980     0.00045944
H        -0.95437772     0.12480403    -0.55687349    -0.00062193     0.00054975    -0.00021412
     6
  Step:    20            Position(A)                                  Velocity(au)
C        -0.04580246     0.01286956    -0.05925555     0.00004841    -0.00005757    -0.00056696
N        -0.04708241    -0.07381191     1.36695531     0.00008695    -0.00007356     0.00048443
H         0.94676660     0.08869150    -0.52639103     0.00036593     0.00042948    -0.00043288
H         0.89593967    -0.05582279     1.87268166    -0.00038086     0.00029386     0.00010231
H        -0.89725081     0.04173829     1.81447561    -0.00097995     0.00039737     0.00065802
H        -0.95833918     0.12797538    -0.55832982    -0.00079019     0.00058748    -0.00030341
     6
  Step:    21            Position(A)                                  Velocity(au)
C        -0.04548247     0.01254256    -0.06242976     0.00006590    -0.00006010    -0.00057475
N        -0.04652151    -0.07423689     1.36965804     0.00011270    -0.00007912     0.00048787
H         0.94872056     0.09108499    -0.52880312     0.00033597     0.00043191    -0.00043459
H         0.89344232    -0.05412866     1.87309750    -0.00050975     0.00031587     0.00005161
H        -0.90347128     0.04407789     1.81866239    -0.00123556     0.00044181     0.00083553
H        -0.96318287     0.13135041    -0.56025447    -0.00094212     0.00062605    -0.00038347
     6
  Step:    22            Position(A)                                  Velocity(au)
C        -0.04507020     0.01220179    -0.06564199     0.00008170    -0.00006268    -0.00058243
N        -0.04583009    -0.07469110     1.37237639     0.00013399    -0.00008430     0.00049160
H         0.95049972     0.09349078    -0.53122001     0.00030437     0.00043522    -0.00043605
H         0.89027552    -0.05231299     1.87325510    -0.00062221     0.00033867     0.00001009
H        -0.91097991     0.04664751     1.82375974    -0.00144464     0.00048105     0.00098702
H        -0.96880764     0.13493177    -0.56259084    -0.00107309     0.00066340    -0.00045226
     6
  Step:    23            Position(A)                                  Velocity(au)
C        -0.04457596     0.01184712    -0.06889214     0.00009544    -0.00006516    -0.00058913
N        -0.04503482    -0.07517223     1.37511261     0.00015008    -0.00008891     0.00049490
H         0.95209771     0.09591395    -0.53364135     0.00027137     0.00043869    -0.00043682
H         0.88653860    -0.05037101     1.87320949    -0.00071473     0.00036185    -0.00002102
H        -0.91950025     0.04941537     1.82961387    -0.00160016     0.00051347     0.00110862
H        -0.97508929     0.13871109    -0.56527249    -0.00117923     0.00069791    -0.00050807
     6
  Step:    24            Position(A)                                  Velocity(au)
C        -0.04401184     0.01147921    -0.07217522     0.00010680    -0.00006742    -0.00059425
N        -0.04416580    -0.07567708     1.37786471     0.00016046    -0.00009283     0.00049726
H         0.95350919     0.09835576    -0.53606423     0.00023746     0.00044189    -0.00043668
H         0.88234935    -0.04830012     1.87302194    -0.00078414     0.00038517    -0.00004057
H        -0.92872528     0.05234178     1.83605406    -0.00169811     0.00053797     0.00119803
H        -0.98188495     0.14267144    -0.56822521    -0.00125775     0.00072836    -0.00054976
     6
  Step:    25            Position(A)                                  Velocity(au)
C        -0.04339140     0.01109935    -0.07548297     0.00011560    -0.00006938    -0.00059745
N        -0.04325513    -0.07620182     1.38062770     0.00016494    -0.00009600     0.00049830
H         0.95473136     0.10081501    -0.53848453     0.00020326     0.00044457    -0.00043558
H         0.87784167    -0.04609912     1.87275949    -0.00082798     0.00040844    -0.00004762
H        -0.93833400     0.05538203     1.84290128    -0.00173771     0.00055399     0.00125467
H        -0.98903901     0.14678937    -0.57136984    -0.00130714     0.00075386    -0.00057679
     6
  Step:    26            Position(A)                                  Velocity(au)
C        -0.04272905     0.01070926    -0.07880511     0.00012174    -0.00007100    -0.00059857
N        -0.04233548    -0.07674239     1.38339434     0.00016357    -0.00009841     0.00049780
H         0.95576479     0.10328910    -0.54089787     0.00016950     0.00044660    -0.00043363
H         0.87316136    -0.04376767     1.87249346    -0.00084472     0.00043162    -0.00004163
H        -0.94800854     0.05848932     1.84997707    -0.00172119     0.00056147     0.00127956
H        -0.99639023     0.15103691    -0.57462578    -0.00132725     0.00077387    -0.00058931
     6
  Step:    27            Position(A)                                  Velocity(au)
C        -0.04203946     0.01031087    -0.08213037     0.00012523    -0.00007224    -0.00059758
N        -0.04143861    -0.07729471     1.38615598     0.00015666    -0.00010009     0.00049562
H         0.95661375     0.10577477    -0.54330020     0.00013686     0.00044801    -0.00043098
H         0.86846065    -0.04130572     1.87229716    -0.00083395     0.00045474    -0.00002252
H        -0.95744875     0.06161743     1.85711145    -0.00165316     0.00056082     0.00127502
H        -1.00377879     0.15538356    -0.57791438    -0.00131909     0.00078821    -0.00058802
     6
  Step:    28            Position(A)                                  Velocity(au)
C        -0.04133704     0.00990626    -0.08544733     0.00012621    -0.00007312    -0.00059460
N        -0.04059415    -0.07785495     1.38890323     0.00014472    -0.00010112     0.00049176
H         0.95728606     0.10826882    -0.54568836     0.00010598     0.00044889    -0.00042789
H         0.86389183    -0.03871310     1.87224318    -0.00079640     0.00047791     0.00000930
H        -0.96638381     0.06472293     1.86414915    -0.00153991     0.00055277     0.00124431
H        -1.01105226     0.15979801    -0.58116174    -0.00128472     0.00079699    -0.00057411
     6
  Step:    29            Position(A)                                  Velocity(au)
C        -0.04063542     0.00949743    -0.08874520     0.00012485    -0.00007366    -0.00058987
N        -0.03982860    -0.07841969     1.39162672     0.00012841    -0.00010160     0.00048635
H         0.95779275     0.11076853    -0.54806038     0.00007738     0.00044941    -0.00042462
H         0.85960089    -0.03598914     1.87240056    -0.00073393     0.00050127     0.00005287
H        -0.97457989     0.06776691     1.87095406    -0.00138873     0.00053833     0.00119129
H        -1.01807094     0.16424988    -0.58430118    -0.00122692     0.00080059    -0.00054910
     6
  Step:    30            Position(A)                                  Velocity(au)
C        -0.03994702     0.00908623    -0.09201437     0.00012142    -0.00007389    -0.00058365
N        -0.03916458    -0.07898609     1.39431775     0.00010847    -0.00010164     0.00047955
H         0.95814750     0.11327212    -0.55041563     0.00005145     0.00044979    -0.00042142
H         0.85572096    -0.03313241     1.87283177    -0.00064942     0.00052502     0.00010679
H        -0.98184468     0.07071621     1.87741190    -0.00120737     0.00051863     0.00112012
H        -1.02471161     0.16871103    -0.58727490    -0.00114892     0.00079956    -0.00051470
     6
  Step:    31            Position(A)                                  Velocity(au)
C        -0.03928285     0.00867428    -0.09524680     0.00011618    -0.00007388    -0.00057627
N        -0.03862028    -0.07955193     1.39696871     0.00008572    -0.00010136     0.00047163
H         0.95836589     0.11577891    -0.55275484     0.00002846     0.00045024    -0.00041856
H         0.85236665    -0.03014070     1.87359009    -0.00054661     0.00054930     0.00016922
H        -0.98802934     0.07354419     1.88343159    -0.00100347     0.00049487     0.00103492
H        -1.03086933     0.17315653    -0.59003464    -0.00105411     0.00079454    -0.00047264
     6
  Step:    32            Position(A)                                  Velocity(au)
C        -0.03865232     0.00826291    -0.09843610     0.00010942    -0.00007367    -0.00056800
N        -0.03820929    -0.08011564     1.39957339     0.00006097    -0.00010087     0.00046283
H         0.95846466     0.11828942    -0.55507995     0.00000854     0.00045097    -0.00041622
H         0.84962974    -0.02701119     1.87471749    -0.00042981     0.00057422     0.00023803
H        -0.99302700     0.07623090     1.88894469    -0.00078411     0.00046822     0.00093954
H        -1.03645823     0.17756511    -0.59254187    -0.00094581     0.00078622    -0.00042463
     6
  Step:    33            Position(A)                                  Velocity(au)
C        -0.03806328     0.00785319    -0.10157751     0.00010141    -0.00007331    -0.00055912
N        -0.03794071    -0.08067622     1.40212719     0.00003499    -0.00010027     0.00045343
H         0.95846104     0.12080528    -0.55739385    -0.00000831     0.00045217    -0.00041453
H         0.84757622    -0.02374071     1.87624305    -0.00030373     0.00059979     0.00031085
H        -0.99676863     0.07876271     1.89390327    -0.00055548     0.00043972     0.00083736
H        -1.04141088     0.18191935    -0.59476739    -0.00082712     0.00077524    -0.00037222
     6
  Step:    34            Position(A)                                  Velocity(au)
C        -0.03752207     0.00744588    -0.10466770     0.00009240    -0.00007284    -0.00054982
N        -0.03781932    -0.08123318     1.40462704     0.00000851    -0.00009963     0.00044368
H         0.95837204     0.12332903    -0.55970003    -0.00002216     0.00045396    -0.00041355
H         0.84624453    -0.02032634     1.87818202    -0.00017329     0.00062591     0.00038518
H        -0.99921805     0.08113169     1.89827737    -0.00032300     0.00041032     0.00073131
H        -1.04567679     0.18620544    -0.59669042    -0.00070085     0.00076219    -0.00031680
     6
  Step:    35            Position(A)                                  Velocity(au)
C        -0.03703362     0.00704155    -0.10770441     0.00008262    -0.00007229    -0.00054024
N        -0.03784590    -0.08178641     1.40707131    -0.00001778    -0.00009900     0.00043378
H         0.95821405     0.12586393    -0.56200224    -0.00003318     0.00045642    -0.00041328
H         0.84564513    -0.01676591     1.88053534    -0.00004337     0.00065237     0.00045850
H        -1.00036792     0.08333506     1.90205264    -0.00009140     0.00038087     0.00062395
H        -1.04922077     0.19041277    -0.59829768    -0.00056948     0.00074756    -0.00025960
     6
  Step:    36            Position(A)                                  Velocity(au)
C        -0.03660162     0.00664052    -0.11068618     0.00007228    -0.00007170    -0.00053047
N        -0.03801744    -0.08233610     1.40945950    -0.00004325    -0.00009844     0.00042389
H         0.95800242     0.12841367    -0.56430407    -0.00004157     0.00045959    -0.00041363
H         0.84576133    -0.01305871     1.88328986     0.00008135     0.00067884     0.00052833
H        -1.00023628     0.08537472     1.90522837     0.00013506     0.00035215     0.00051751
H        -1.05202102     0.19453347    -0.59958242    -0.00043522     0.00073175    -0.00020167
     6
  Step:    37            Position(A)                                  Velocity(au)
C        -0.03622862     0.00624302    -0.11361199     0.00006157    -0.00007109    -0.00052054
N        -0.03832752    -0.08288265     1.41179200    -0.00006730    -0.00009795     0.00041413
H         0.95775115     0.13098212    -0.56660863    -0.00004758     0.00046347    -0.00041448
H         0.84655110    -0.00920601     1.88641911     0.00019658     0.00070489     0.00059239
H        -0.99886378     0.08725682     1.90781583     0.00035255     0.00032489     0.00041398
H        -1.05406762     0.19856185    -0.60054362    -0.00030004     0.00071507    -0.00014398
     6
  Step:    38            Position(A)                                  Velocity(au)
C        -0.03591619     0.00584912    -0.11648106     0.00005065    -0.00007047    -0.00051046
N        -0.03876662    -0.08342657     1.41406976    -0.00008940    -0.00009757     0.00040455
H         0.95747270     0.13357316    -0.56891825    -0.00005152     0.00046802    -0.00041566
H         0.84794977    -0.00521159     1.88988454     0.00029855     0.00073002     0.00064862
H        -0.99631161     0.08899147     1.90983698     0.00055745     0.00029976     0.00031521
H        -1.05536113     0.20249396    -0.60118526    -0.00016570     0.00069780    -0.00008736
     6
  Step:    39            Position(A)                                  Velocity(au)
C        -0.03566495     0.00545885    -0.11929258     0.00003969    -0.00006984    -0.00050019
N        -0.03932243    -0.08396849     1.41629404    -0.00010909    -0.00009731     0.00039518
H         0.95717784     0.13619047    -0.57123425    -0.00005367     0.00047320    -0.00041695
H         0.84987348    -0.00108209     1.89363720     0.00038413     0.00075366     0.00069531
H        -0.99266020     0.09059263     1.91132357     0.00074639     0.00027745     0.00022288
H        -1.05591161     0.20632722    -0.60151580    -0.00003388     0.00068011    -0.00003259
     6
  Step:    40            Position(A)                                  Velocity(au)
C        -0.03547465     0.00507216    -0.12204562     0.00002883    -0.00006922    -0.00048970
N        -0.03998020    -0.08450910     1.41846615    -0.00012594    -0.00009716     0.00038600
H         0.95687560     0.13883750    -0.57355673    -0.00005437     0.00047896    -0.00041811
H         0.85222317     0.00317282     1.89761979     0.00045095     0.00077526     0.00073115
H        -0.98800814     0.09207808     1.91231652     0.00091610     0.00025866     0.00013863
H        -1.05573802     0.21006014    -0.60154781     0.00009385     0.00066220     0.00001960
     6
  Step:    41            Position(A)                                  Velocity(au)
C        -0.03534426     0.00468896    -0.12473904     0.00001823    -0.00006862    -0.00047895
N        -0.04072314    -0.08504914     1.42058717    -0.00013962    -0.00009716     0.00037696
H         0.95657319     0.14151743    -0.57588450    -0.00005392     0.00048524    -0.00041892
H         0.85488893     0.00754036     1.90176895     0.00049743     0.00079426     0.00075523
H        -0.98247137     0.09346944     1.91286545     0.00106352     0.00024410     0.00006400
H        -1.05486777     0.21369214    -0.60129779     0.00021599     0.00064419     0.00006852
     6
  Step:    42            Position(A)                                  Velocity(au)
C        -0.03527194     0.00430912    -0.12737144     0.00000802    -0.00006804    -0.00046789
N        -0.04153276    -0.08558943     1.42265784    -0.00014986    -0.00009730     0.00036797
H         0.95627605     0.14423325    -0.57821498    -0.00005264     0.00049205    -0.00041912
H         0.85775440     0.01200475     1.90601772     0.00052277     0.00081014     0.00076713
H        -0.97618213     0.09479233     1.91302822     0.00118574     0.00023451     0.00000047
H        -1.05333633     0.21722335    -0.60078593     0.00033107     0.00062623     0.00011349
     6
  Step:    43            Position(A)                                  Velocity(au)
C        -0.03525515     0.00393245    -0.12994107    -0.00000168    -0.00006750    -0.00045646
N        -0.04238924    -0.08613091     1.42467826    -0.00015643    -0.00009762     0.00035891
H         0.95598797     0.14698799    -0.58054424    -0.00005081     0.00049940    -0.00041846
H         0.86070108     0.01654744     1.91029791     0.00052695     0.00082240     0.00076683
H        -0.96928836     0.09607667     1.91287071     0.00128004     0.00023069    -0.00005056
H        -1.05118693     0.22065456    -0.60003604     0.00043774     0.00060841     0.00015386
     6
  Step:    44            Position(A)                                  Velocity(au)
C        -0.03529067     0.00355869    -0.13244587    -0.00001076    -0.00006702    -0.00044463
N        -0.04327180    -0.08667463     1.42664781    -0.00015923    -0.00009814     0.00034966
H         0.95571122     0.14978502    -0.58286696    -0.00004868     0.00050743    -0.00041672
H         0.86361244     0.02114727     1.91454249     0.00051067     0.00083062     0.00075476
H        -0.96195216     0.09735688     1.91246612     0.00134414     0.00023349    -0.00008789
H        -1.04847007     0.22398696    -0.59907545     0.00053471     0.00059079     0.00018901
     6