    14
  Step:   600            Position(A)                                  Velocity(au)
C        -5.13138130    -0.72499422     0.71463836     0.00017638     0.00011647     0.00036715
C        -4.76714464     0.39384142     0.15324017    -0.00126018    -0.00000608    -0.00042866
H        -4.62904444    -1.64692720     0.39099712     0.00170783     0.00033706    -0.00201686
H        -5.97693396    -0.75305788     1.42237742     0.00032978    -0.00146033     0.00011923
H        -5.61482080     1.17006853    -0.05381856    -0.00065750    -0.00036412    -0.00037481
C        -3.77557385     0.21356403    -0.98161344    -0.00021951    -0.00016769    -0.00004023
C        -2.45352007     0.49904481    -0.90612878     0.00036427     0.00014078     0.00002050
H        -4.06235436    -0.45615104    -1.79330177     0.00044573     0.00007282    -0.00054807
H        -1.57708326     0.58760877    -1.45672368    -0.00215261    -0.00195470    -0.00310917
C        -2.13581751     0.89180696     0.43374023    -0.00005701    -0.00008695     0.00030304
H        -2.98751637     0.75793048     1.20460629    -0.00161324    -0.00203195     0.00001775
N        -1.16592928     1.75539705     0.74349742     0.00092262     0.00023369     0.00018644
H        -0.95049469     1.92103667     1.72995516     0.00103945     0.00152256    -0.00080801
H        -0.34495403     1.49458219     0.22155685    -0.00005163     0.00067246     0.00148608
