 Fermi distribution function

Calculation with static geometry


********************************************************************************
 iSCC Total electronic   Diff electronic      SCC error    
   11   -0.53887356E+01   -0.77271523E-13    0.14514150E-08
********************************************************************************

 Total charge:     1.00000000

 Atomic gross charges (e)
 Atom           Charge
    1       0.20776223
    2      -0.11006532
    3       0.13951548
    4       0.29560780
    5       0.27345806
    6       0.19372174

Nr. of electrons (up):     12.00000000
Atom populations (up)
 Atom       Population
    1       3.79223777
    2       5.11006532
    3       0.86048452
    4       0.70439220
    5       0.72654194
    6       0.80627826

l-shell populations (up)
 Atom Sh.   l       Population
    1   1   0       1.31175629
    1   2   1       2.48048147
    2   1   0       1.41956391
    2   2   1       3.69050142
    3   1   0       0.86048452
    4   1   0       0.70439220
    5   1   0       0.72654194
    6   1   0       0.80627826

Orbital populations (up)
 Atom Sh.   l   m       Population  Label
    1   1   0   0       1.31175629  s
    1   2   1  -1       0.58571622  p_y
    1   2   1   0       0.88869208  p_z
    1   2   1   1       1.00607317  p_x
    2   1   0   0       1.41956391  s
    2   2   1  -1       1.34282719  p_y
    2   2   1   0       1.09696501  p_z
    2   2   1   1       1.25070921  p_x
    3   1   0   0       0.86048452  s
    4   1   0   0       0.70439220  s
    5   1   0   0       0.72654194  s
    6   1   0   0       0.80627826  s

Fermi level:                        -0.4913607746 H          -13.3706 eV
Band energy:                        -8.8813696941 H         -241.6744 eV
TS:                                  0.0000000000 H            0.0000 eV
Band free energy (E-TS):            -8.8813696941 H         -241.6744 eV
Extrapolated E(0K):                 -8.8813696941 H         -241.6744 eV
Input / Output electrons (q):     12.0000000000     12.0000000000

Energy H0:                          -5.5216372370 H         -150.2514 eV
Energy SCC:                          0.1329015910 H            3.6164 eV
Total Electronic energy:            -5.3887356459 H         -146.6350 eV
Repulsive energy:                    0.1872857005 H            5.0963 eV
Total energy:                       -5.2014499454 H         -141.5387 eV
Extrapolated to 0:                  -5.2014499454 H         -141.5387 eV
Total Mermin free energy:           -5.2014499454 H         -141.5387 eV
Force related energy:               -5.2014499454 H         -141.5387 eV

SCC converged

Excitation Energy:                   0.1078376403 H            2.9344 eV

Total Forces
    1     -0.000832387140      0.013162210240      0.031694445934
    2     -0.001466804694      0.000777608787     -0.036168292567
    3     -0.005568288952     -0.011187319534      0.001757956857
    4     -0.012317689957      0.003578893975     -0.001542796694
    5      0.011540307351     -0.008377541482      0.004393829841
    6      0.008644863392      0.002046148015     -0.000135143371

Maximal derivative component:        0.361683E-01 au


