|===============================================================================
|
|  DFTB+ release 20.1
|
|  Copyright (C) 2006 - 2020  DFTB+ developers group
|
|===============================================================================
|
|  When publishing results obtained with DFTB+, please cite the following
|  reference:
|
|  * DFTB+, a software package for efficient approximate density functional
|    theory based atomistic simulations, J. Chem. Phys. 152, 124101 (2020).
|    [doi: 10.1063/1.5143190]
|
|  You should also cite additional publications crediting the parametrization
|  data you use. Please consult the documentation of the SK-files for the
|  references.
|
|===============================================================================

Reading input file 'dftb_in.hsd'
Parser version: 8

--------------------------------------------------------------------------------
Reading SK-files:
Done.


Processed input in HSD format written to 'dftb_pin.hsd'

Starting initialization...
--------------------------------------------------------------------------------
WARNING!
-> Excited state forces are not implemented yet for fractional occupations, kT=  0.3158E-02K
OpenMP threads:              1
Chosen random seed:          509309040
Mode:                        Static calculation
Self consistent charges:     Yes
SCC-tolerance:                 0.100000E-05
Max. scc iterations:                    100
Shell resolved Hubbard:      No
Spin polarisation:           No
Nr. of up electrons:             6.000000
Nr. of down electrons:           6.000000
Periodic boundaries:         No
Electronic solver:           Relatively robust
Mixer:                       Broyden mixer
Mixing parameter:                  0.200000
Maximal SCC-cycles:                     100
Nr. of chrg. vec. in memory:              0
Electronic temperature:        0.100000E-07 H      0.272114E-06 eV
Initial charges:             Set automatically (system chrg:   0.100E+01)
Included shells:             C:  s, p
                             N:  s, p
                             H:  s
Extra options:
                             Mulliken analysis
                             Force calculation
Force type                   original
                             Eigenvector printing

--------------------------------------------------------------------------------

***  Geometry step: 0

 iSCC Total electronic   Diff electronic      SCC error    
    1   -0.53793174E+01    0.00000000E+00    0.76271027E+00
    2   -0.53848195E+01   -0.55020792E-02    0.51208692E+00
    3   -0.53882818E+01   -0.34622837E-02    0.99234246E-01
    4   -0.53885327E+01   -0.25094401E-03    0.68843614E-01
    5   -0.53887335E+01   -0.20080021E-03    0.13376573E-01
    6   -0.53887354E+01   -0.18983058E-05    0.32280154E-02
    7   -0.53887356E+01   -0.20843210E-06    0.14253331E-03
    8   -0.53887356E+01   -0.70680084E-09    0.89117480E-04
    9   -0.53887356E+01   -0.35866599E-09    0.31820573E-05
   10   -0.53887356E+01   -0.29221070E-12    0.12536508E-05
   11   -0.53887356E+01   -0.77271523E-13    0.14514150E-08
>> Charges saved for restart in charges.bin

Total Energy:                       -5.0936123051 H         -138.6042 eV
Extrapolated to 0:                  -5.2014499454 H         -141.5387 eV
Total Mermin free energy:           -5.0936123051 H         -138.6042 eV
Force related energy:               -5.2014499454 H         -141.5387 eV

--------------------------------------------------------------------------------
DFTB+ running times                          cpu [s]             wall clock [s]
--------------------------------------------------------------------------------
SCC                                    +     0.02  ( 59.4%)      0.04  ( 63.2%)
Post-SCC processing                    +     0.01  ( 31.3%)      0.02  ( 27.9%)
--------------------------------------------------------------------------------
Missing                                +     0.00  (  9.4%)      0.01  (  8.8%)
Total                                  =     0.04  (100.0%)      0.07  (100.0%)
--------------------------------------------------------------------------------
