     6
  Step:   120            Position(A)                                  Velocity(au)
C        -0.03596494     0.04131745    -0.12879194    -0.00002204    -0.00000440     0.00055298
N        -0.03430328    -0.02341198     1.43701115     0.00007029     0.00005063    -0.00045907
H         0.87954784     0.26781011    -0.70915552    -0.00055331     0.00125844     0.00042384
H         0.61042033    -0.77281119     1.82702908    -0.00152791    -0.00140794    -0.00096208
H        -0.90469170     0.14298310     1.97511001     0.00050080     0.00119009    -0.00023323
H        -0.89297593    -0.47476127    -0.63546646     0.00086626    -0.00169178     0.00056157
