 Fermi distribution function

Calculation with static geometry


********************************************************************************
 iSCC Total electronic   Diff electronic      SCC error    
   10   -0.53738173E+01   -0.68389738E-13    0.50211834E-06
********************************************************************************

 Total charge:     1.00000000

 Atomic gross charges (e)
 Atom           Charge
    1       0.21146792
    2      -0.08420475
    3       0.17529547
    4       0.26730417
    5       0.26992901
    6       0.16020818

Nr. of electrons (up):     12.00000000
Atom populations (up)
 Atom       Population
    1       3.78853208
    2       5.08420475
    3       0.82470453
    4       0.73269583
    5       0.73007099
    6       0.83979182

l-shell populations (up)
 Atom Sh.   l       Population
    1   1   0       1.33599152
    1   2   1       2.45254056
    2   1   0       1.45519406
    2   2   1       3.62901069
    3   1   0       0.82470453
    4   1   0       0.73269583
    5   1   0       0.73007099
    6   1   0       0.83979182

Orbital populations (up)
 Atom Sh.   l   m       Population  Label
    1   1   0   0       1.33599152  s
    1   2   1  -1       0.53872413  p_y
    1   2   1   0       0.89996946  p_z
    1   2   1   1       1.01384696  p_x
    2   1   0   0       1.45519406  s
    2   2   1  -1       1.32268522  p_y
    2   2   1   0       1.14462418  p_z
    2   2   1   1       1.16170129  p_x
    3   1   0   0       0.82470453  s
    4   1   0   0       0.73269583  s
    5   1   0   0       0.73007099  s
    6   1   0   0       0.83979182  s

Fermi level:                        -0.5153311810 H          -14.0229 eV
Band energy:                        -8.9120771408 H         -242.5100 eV
TS:                                  0.0000000000 H            0.0000 eV
Band free energy (E-TS):            -8.9120771408 H         -242.5100 eV
Extrapolated E(0K):                 -8.9120771408 H         -242.5100 eV
Input / Output electrons (q):     12.0000000000     12.0000000000

Energy H0:                          -5.5104764559 H         -149.9477 eV
Energy SCC:                          0.1366591650 H            3.7187 eV
Total Electronic energy:            -5.3738172909 H         -146.2290 eV
Repulsive energy:                    0.1685676665 H            4.5870 eV
Total energy:                       -5.2052496244 H         -141.6420 eV
Extrapolated to 0:                  -5.2052496244 H         -141.6420 eV
Total Mermin free energy:           -5.2052496244 H         -141.6420 eV
Force related energy:               -5.2052496244 H         -141.6420 eV

SCC converged

Excitation Energy:                   0.1485742276 H            4.0429 eV

Total Forces
    1     -0.005814914727     -0.000466318470      0.050079149322
    2     -0.014375105076      0.030000912028     -0.056950096289
    3     -0.013141652507     -0.003543622431     -0.002098013247
    4      0.006456280824     -0.004573080163      0.011593953535
    5      0.011152505664     -0.017412373475      0.000289734018
    6      0.015722885822     -0.004005517488     -0.002914727338

Maximal derivative component:        0.569501E-01 au


