|===============================================================================
|
|  DFTB+ release 20.1
|
|  Copyright (C) 2006 - 2020  DFTB+ developers group
|
|===============================================================================
|
|  When publishing results obtained with DFTB+, please cite the following
|  reference:
|
|  * DFTB+, a software package for efficient approximate density functional
|    theory based atomistic simulations, J. Chem. Phys. 152, 124101 (2020).
|    [doi: 10.1063/1.5143190]
|
|  You should also cite additional publications crediting the parametrization
|  data you use. Please consult the documentation of the SK-files for the
|  references.
|
|===============================================================================

Reading input file 'dftb_in.hsd'
Parser version: 8

--------------------------------------------------------------------------------
Reading SK-files:
Done.


Processed input in HSD format written to 'dftb_pin.hsd'

Starting initialization...
--------------------------------------------------------------------------------
OpenMP threads:              1
Chosen random seed:          498307009
Mode:                        Static calculation
Self consistent charges:     Yes
SCC-tolerance:                 0.100000E-05
Max. scc iterations:                   1000
Shell resolved Hubbard:      No
Spin polarisation:           No
Nr. of up electrons:            16.000000
Nr. of down electrons:          16.000000
Periodic boundaries:         No
Electronic solver:           Relatively robust
Maximal SCC-cycles:                    1000
Initial charges:             Set automatically (system chrg:   0.100E+01)
Included shells:             C:  s, p
                             H:  s
                             N:  s, p
Spin coupling constants:     C   1(s)-1(s):  -0.455900E-01
                             C   1(s)-2(p):  -0.293000E-01
                             C   2(p)-1(s):  -0.293000E-01
                             C   2(p)-2(p):  -0.275500E-01
                             H   1(s)-1(s):  -0.792500E-01
                             N   1(s)-1(s):  -0.468700E-01
                             N   1(s)-2(p):  -0.317000E-01
                             N   2(p)-1(s):  -0.317000E-01
                             N   2(p)-2(p):  -0.307200E-01
Range separated hybrid:      Yes
  Screening parameter omega:   0.300000E+00
  Range separated algorithm:   MatrixBased
Extra options:
                             Mulliken analysis
                             Force calculation
Force type                   original
                             Eigenvector printing


REKS Calcuation:             Yes
SSR(2,2) Calcuation:         Yes
Energy Functional:           (PPS+OSS)/2
Number of Core Orbitals:                 15
Number of Active Orbitals:                2
Number of Basis:                         32
Number of States:                         2
State-Averaging Weight:          0.500000
                                 0.500000
State of Interest:                        1
Initial Guess:               Diagonalize H0 matrix
Newton-Raphson for FON opt:  Yes
NR max. Iterations:                      50
Level Shifting:              Yes
Shift Value:                     0.300000
W Scale Factor:              C  =    3.200000
                             H  =    3.200000
                             N  =    3.200000
Transition Dipole:           No
Gradient of Microstate:      No
CP-REKS Solver:              Preconditioned Conjugate-Gradient
CG max. Iterations:                     100
CG Tolerance:                  0.100000E-07
Memory for A and Hxc:        Direct Updating Without Saving
Non-Adiabatic Coupling:      Yes

--------------------------------------------------------------------------------

***  Geometry step: 0

  iSCC       reks energy        Diff energy         x_a       SCC error   
    1      -16.4149240223       0.0000000000     0.995540    1.20490053
    2      -16.4343222696      -0.0193982473     0.999270    0.04937452
    3      -16.4380255714      -0.0037033017     0.999710    0.01720847
    4      -16.4393257356      -0.0013001642     0.999830    0.00942586
    5      -16.4399048612      -0.0005791257     0.999880    0.00659432
    6      -16.4401966581      -0.0002917969     0.999905    0.00487476
    7      -16.4403568948      -0.0001602367     0.999919    0.00369398
    8      -16.4404512791      -0.0000943843     0.999927    0.00284368
    9      -16.4405105912      -0.0000593121     0.999933    0.00221756
   10      -16.4405503098      -0.0000397186     0.999936    0.00175019
   11      -16.4405786135      -0.0000283038     0.999939    0.00139777
   12      -16.4405999895      -0.0000213760     0.999940    0.00112973
   13      -16.4406169797      -0.0000169902     0.999941    0.00092419
   14      -16.4406310687      -0.0000140890     0.999942    0.00076529
   15      -16.4406431502      -0.0000120815     0.999943    0.00064141
   16      -16.4406537796      -0.0000106294     0.999943    0.00054396
   17      -16.4406633136      -0.0000095340     0.999943    0.00046660
   18      -16.4406719891      -0.0000086755     0.999943    0.00042937
   19      -16.4406799688      -0.0000079797     0.999944    0.00042687
   20      -16.4406873684      -0.0000073996     0.999944    0.00042230
   21      -16.4406942728      -0.0000069044     0.999944    0.00041643
   22      -16.4407007462      -0.0000064734     0.999944    0.00040975
   23      -16.4407068386      -0.0000060924     0.999944    0.00040259
   24      -16.4407125898      -0.0000057512     0.999944    0.00039519
   25      -16.4407180325      -0.0000054427     0.999944    0.00038770
   26      -16.4407231938      -0.0000051613     0.999944    0.00038020
   27      -16.4407280967      -0.0000049029     0.999944    0.00037278
   28      -16.4407327610      -0.0000046643     0.999945    0.00036547
   29      -16.4407372041      -0.0000044431     0.999945    0.00035830
   30      -16.4407414412      -0.0000042371     0.999945    0.00035129
   31      -16.4407454859      -0.0000040448     0.999945    0.00034444
   32      -16.4407493506      -0.0000038646     0.999945    0.00033776
   33      -16.4407530462      -0.0000036956     0.999945    0.00033125
   34      -16.4407565829      -0.0000035367     0.999945    0.00032491
   35      -16.4407599700      -0.0000033870     0.999945    0.00031874
   36      -16.4407632159      -0.0000032459     0.999946    0.00031273
   37      -16.4407663284      -0.0000031126     0.999946    0.00030688
   38      -16.4407693149      -0.0000029865     0.999946    0.00030118
   39      -16.4407721821      -0.0000028672     0.999946    0.00029564
   40      -16.4407749362      -0.0000027541     0.999946    0.00029025
   41      -16.4407775832      -0.0000026469     0.999946    0.00028500
   42      -16.4407801284      -0.0000025452     0.999946    0.00027988
   43      -16.4407825770      -0.0000024486     0.999947    0.00027491
   44      -16.4407849337      -0.0000023568     0.999947    0.00027006
   45      -16.4407872031      -0.0000022694     0.999947    0.00026534
   46      -16.4407893894      -0.0000021863     0.999947    0.00026075
   47      -16.4407914966      -0.0000021071     0.999947    0.00025627
   48      -16.4407935283      -0.0000020317     0.999947    0.00025191
   49      -16.4407954881      -0.0000019598     0.999947    0.00024767
   50      -16.4407973793      -0.0000018912     0.999948    0.00024353
   51      -16.4407992051      -0.0000018258     0.999948    0.00023949
   52      -16.4408009683      -0.0000017632     0.999948    0.00023556
   53      -16.4408026718      -0.0000017035     0.999948    0.00023173
   54      -16.4408043182      -0.0000016464     0.999948    0.00022799
   55      -16.4408059100      -0.0000015918     0.999948    0.00022434
   56      -16.4408074495      -0.0000015395     0.999948    0.00022079
   57      -16.4408089391      -0.0000014895     0.999949    0.00021732
   58      -16.4408103807      -0.0000014416     0.999949    0.00021394
   59      -16.4408117764      -0.0000013957     0.999949    0.00021064
   60      -16.4408131281      -0.0000013517     0.999949    0.00020742
   61      -16.4408144377      -0.0000013095     0.999949    0.00020427
   62      -16.4408157067      -0.0000012691     0.999949    0.00020120
   63      -16.4408169370      -0.0000012302     0.999949    0.00019820
   64      -16.4408181299      -0.0000011929     0.999950    0.00019527
   65      -16.4408192871      -0.0000011571     0.999950    0.00019241
   66      -16.4408204098      -0.0000011227     0.999950    0.00018962
   67      -16.4408214994      -0.0000010896     0.999950    0.00018688
   68      -16.4408225572      -0.0000010578     0.999950    0.00018421
   69      -16.4408235845      -0.0000010272     0.999950    0.00018160
   70      -16.4408245822      -0.0000009978     0.999950    0.00017905
   71      -16.4408255517      -0.0000009694     0.999950    0.00017656
   72      -16.4408264938      -0.0000009421     0.999951    0.00017412
   73      -16.4408274097      -0.0000009159     0.999951    0.00017173
   74      -16.4408283002      -0.0000008905     0.999951    0.00016940
   75      -16.4408291663      -0.0000008661     0.999951    0.00016711
   76      -16.4408300088      -0.0000008426     0.999951    0.00016488
   77      -16.4408308287      -0.0000008198     0.999951    0.00016269
   78      -16.4408316266      -0.0000007979     0.999951    0.00016054
   79      -16.4408324034      -0.0000007768     0.999951    0.00015844
   80      -16.4408331597      -0.0000007564     0.999952    0.00015639
   81      -16.4408338964      -0.0000007366     0.999952    0.00015438
   82      -16.4408346140      -0.0000007176     0.999952    0.00015241
   83      -16.4408353132      -0.0000006992     0.999952    0.00015047
   84      -16.4408359946      -0.0000006814     0.999952    0.00014858
   85      -16.4408366588      -0.0000006642     0.999952    0.00014672
   86      -16.4408373063      -0.0000006476     0.999952    0.00014491
   87      -16.4408379378      -0.0000006315     0.999952    0.00014312
   88      -16.4408385537      -0.0000006159     0.999952    0.00014137
   89      -16.4408391546      -0.0000006008     0.999953    0.00013966
   90      -16.4408397408      -0.0000005862     0.999953    0.00013798
   91      -16.4408403129      -0.0000005721     0.999953    0.00013633
   92      -16.4408408714      -0.0000005584     0.999953    0.00013471
   93      -16.4408414165      -0.0000005452     0.999953    0.00013312
   94      -16.4408419489      -0.0000005323     0.999953    0.00013157
   95      -16.4408424687      -0.0000005199     0.999953    0.00013004
   96      -16.4408429766      -0.0000005078     0.999953    0.00012853
   97      -16.4408434726      -0.0000004961     0.999953    0.00012706
   98      -16.4408439574      -0.0000004847     0.999954    0.00012561
   99      -16.4408444311      -0.0000004737     0.999954    0.00012419
  100      -16.4408448941      -0.0000004630     0.999954    0.00012280
  101      -16.4408453468      -0.0000004526     0.999954    0.00012143
  102      -16.4408457894      -0.0000004426     0.999954    0.00012008
  103      -16.4408462221      -0.0000004328     0.999954    0.00011876
  104      -16.4408466454      -0.0000004233     0.999954    0.00011746
  105      -16.4408470595      -0.0000004141     0.999954    0.00011618
  106      -16.4408474646      -0.0000004051     0.999954    0.00011492
  107      -16.4408478609      -0.0000003964     0.999954    0.00011369
  108      -16.4408482488      -0.0000003879     0.999955    0.00011248
  109      -16.4408486285      -0.0000003796     0.999955    0.00011128
  110      -16.4408490001      -0.0000003716     0.999955    0.00011011
  111      -16.4408493639      -0.0000003638     0.999955    0.00010896
  112      -16.4408497202      -0.0000003563     0.999955    0.00010782
  113      -16.4408500691      -0.0000003489     0.999955    0.00010671
  114      -16.4408504108      -0.0000003417     0.999955    0.00010561
  115      -16.4408507455      -0.0000003347     0.999955    0.00010453
  116      -16.4408510734      -0.0000003279     0.999955    0.00010347
  117      -16.4408513947      -0.0000003213     0.999955    0.00010242
  118      -16.4408517096      -0.0000003148     0.999955    0.00010139
  119      -16.4408520181      -0.0000003086     0.999956    0.00010038
  120      -16.4408523206      -0.0000003024     0.999956    0.00009938
  121      -16.4408526170      -0.0000002965     0.999956    0.00009840
  122      -16.4408529077      -0.0000002907     0.999956    0.00009744
  123      -16.4408531927      -0.0000002850     0.999956    0.00009649
  124      -16.4408534722      -0.0000002795     0.999956    0.00009555
  125      -16.4408537463      -0.0000002741     0.999956    0.00009463
  126      -16.4408540152      -0.0000002689     0.999956    0.00009372
  127      -16.4408542789      -0.0000002637     0.999956    0.00009282
  128      -16.4408545377      -0.0000002587     0.999956    0.00009194
  129      -16.4408547915      -0.0000002539     0.999956    0.00009107
  130      -16.4408550406      -0.0000002491     0.999956    0.00009022
  131      -16.4408552851      -0.0000002445     0.999957    0.00008938
  132      -16.4408555251      -0.0000002400     0.999957    0.00008854
  133      -16.4408557606      -0.0000002355     0.999957    0.00008773
  134      -16.4408559918      -0.0000002312     0.999957    0.00008692
  135      -16.4408562188      -0.0000002270     0.999957    0.00008612
  136      -16.4408564417      -0.0000002229     0.999957    0.00008534
  137      -16.4408566606      -0.0000002189     0.999957    0.00008457
  138      -16.4408568756      -0.0000002150     0.999957    0.00008381
  139      -16.4408570867      -0.0000002111     0.999957    0.00008305
  140      -16.4408572940      -0.0000002074     0.999957    0.00008231
  141      -16.4408574978      -0.0000002037     0.999957    0.00008158
  142      -16.4408576979      -0.0000002001     0.999957    0.00008086
  143      -16.4408578945      -0.0000001966     0.999957    0.00008015
  144      -16.4408580877      -0.0000001932     0.999958    0.00007945
  145      -16.4408582776      -0.0000001899     0.999958    0.00007876
  146      -16.4408584642      -0.0000001866     0.999958    0.00007808
  147      -16.4408586476      -0.0000001834     0.999958    0.00007740
  148      -16.4408588279      -0.0000001803     0.999958    0.00007674
  149      -16.4408590051      -0.0000001772     0.999958    0.00007608
  150      -16.4408591793      -0.0000001742     0.999958    0.00007544
  151      -16.4408593506      -0.0000001713     0.999958    0.00007480
  152      -16.4408595191      -0.0000001684     0.999958    0.00007417
  153      -16.4408596847      -0.0000001656     0.999958    0.00007355
  154      -16.4408598476      -0.0000001629     0.999958    0.00007293
  155      -16.4408600078      -0.0000001602     0.999958    0.00007233
  156      -16.4408601653      -0.0000001576     0.999958    0.00007173
  157      -16.4408603203      -0.0000001550     0.999958    0.00007114
  158      -16.4408604728      -0.0000001525     0.999958    0.00007056
  159      -16.4408606228      -0.0000001500     0.999959    0.00006998
  160      -16.4408607704      -0.0000001476     0.999959    0.00006941
  161      -16.4408609156      -0.0000001452     0.999959    0.00006885
  162      -16.4408610585      -0.0000001429     0.999959    0.00006829
  163      -16.4408611991      -0.0000001406     0.999959    0.00006775
  164      -16.4408613375      -0.0000001384     0.999959    0.00006721
  165      -16.4408614737      -0.0000001362     0.999959    0.00006667
  166      -16.4408616078      -0.0000001341     0.999959    0.00006614
  167      -16.4408617398      -0.0000001320     0.999959    0.00006562
  168      -16.4408618697      -0.0000001299     0.999959    0.00006511
  169      -16.4408619976      -0.0000001279     0.999959    0.00006460
  170      -16.4408621236      -0.0000001259     0.999959    0.00006409
  171      -16.4408622476      -0.0000001240     0.999959    0.00006360
  172      -16.4408623697      -0.0000001221     0.999959    0.00006311
  173      -16.4408624899      -0.0000001202     0.999959    0.00006262
  174      -16.4408626083      -0.0000001184     0.999959    0.00006214
  175      -16.4408627250      -0.0000001166     0.999960    0.00006167
  176      -16.4408628398      -0.0000001149     0.999960    0.00006120
  177      -16.4408629530      -0.0000001131     0.999960    0.00006073
  178      -16.4408630644      -0.0000001115     0.999960    0.00006027
  179      -16.4408631742      -0.0000001098     0.999960    0.00005982
  180      -16.4408632824      -0.0000001082     0.999960    0.00005937
  181      -16.4408633890      -0.0000001066     0.999960    0.00005893
  182      -16.4408634940      -0.0000001050     0.999960    0.00005849
  183      -16.4408635974      -0.0000001035     0.999960    0.00005806
  184      -16.4408636994      -0.0000001020     0.999960    0.00005763
  185      -16.4408637998      -0.0000001005     0.999960    0.00005721
  186      -16.4408638989      -0.0000000990     0.999960    0.00005679
  187      -16.4408639965      -0.0000000976     0.999960    0.00005638
  188      -16.4408640926      -0.0000000962     0.999960    0.00005597
  189      -16.4408641874      -0.0000000948     0.999960    0.00005556
  190      -16.4408642809      -0.0000000935     0.999960    0.00005516
  191      -16.4408643730      -0.0000000921     0.999960    0.00005476
  192      -16.4408644638      -0.0000000908     0.999960    0.00005437
  193      -16.4408645534      -0.0000000895     0.999961    0.00005398
  194      -16.4408646416      -0.0000000883     0.999961    0.00005360
  195      -16.4408647287      -0.0000000870     0.999961    0.00005322
  196      -16.4408648145      -0.0000000858     0.999961    0.00005284
  197      -16.4408648991      -0.0000000846     0.999961    0.00005247
  198      -16.4408649826      -0.0000000835     0.999961    0.00005210
  199      -16.4408650649      -0.0000000823     0.999961    0.00005174
  200      -16.4408651461      -0.0000000812     0.999961    0.00005138
  201      -16.4408652261      -0.0000000801     0.999961    0.00005102
  202      -16.4408653051      -0.0000000790     0.999961    0.00005067
  203      -16.4408653829      -0.0000000779     0.999961    0.00005032
  204      -16.4408654598      -0.0000000768     0.999961    0.00004997
  205      -16.4408655355      -0.0000000758     0.999961    0.00004963
  206      -16.4408656103      -0.0000000748     0.999961    0.00004929
  207      -16.4408656840      -0.0000000738     0.999961    0.00004896
  208      -16.4408657568      -0.0000000728     0.999961    0.00004862
  209      -16.4408658286      -0.0000000718     0.999961    0.00004829
  210      -16.4408658994      -0.0000000708     0.999961    0.00004797
  211      -16.4408659693      -0.0000000699     0.999961    0.00004765
  212      -16.4408660383      -0.0000000690     0.999961    0.00004733
  213      -16.4408661063      -0.0000000681     0.999961    0.00004701
  214      -16.4408661735      -0.0000000672     0.999962    0.00004670
  215      -16.4408662398      -0.0000000663     0.999962    0.00004639
  216      -16.4408663052      -0.0000000654     0.999962    0.00004608
  217      -16.4408663698      -0.0000000646     0.999962    0.00004578
  218      -16.4408664335      -0.0000000637     0.999962    0.00004548
  219      -16.4408664964      -0.0000000629     0.999962    0.00004518
  220      -16.4408665585      -0.0000000621     0.999962    0.00004488
  221      -16.4408666197      -0.0000000613     0.999962    0.00004459
  222      -16.4408666802      -0.0000000605     0.999962    0.00004430
  223      -16.4408667400      -0.0000000597     0.999962    0.00004401
  224      -16.4408667989      -0.0000000590     0.999962    0.00004373
  225      -16.4408668571      -0.0000000582     0.999962    0.00004345
  226      -16.4408669146      -0.0000000575     0.999962    0.00004317
  227      -16.4408669714      -0.0000000567     0.999962    0.00004289
  228      -16.4408670274      -0.0000000560     0.999962    0.00004262
  229      -16.4408670827      -0.0000000553     0.999962    0.00004234
  230      -16.4408671373      -0.0000000546     0.999962    0.00004208
  231      -16.4408671913      -0.0000000539     0.999962    0.00004181
  232      -16.4408672446      -0.0000000533     0.999962    0.00004155
  233      -16.4408672972      -0.0000000526     0.999962    0.00004128
  234      -16.4408673491      -0.0000000520     0.999962    0.00004102
  235      -16.4408674004      -0.0000000513     0.999962    0.00004077
  236      -16.4408674511      -0.0000000507     0.999962    0.00004051
  237      -16.4408675012      -0.0000000501     0.999962    0.00004026
  238      -16.4408675506      -0.0000000494     0.999963    0.00004001
  239      -16.4408675995      -0.0000000488     0.999963    0.00003976
  240      -16.4408676477      -0.0000000482     0.999963    0.00003952
  241      -16.4408676954      -0.0000000477     0.999963    0.00003927
  242      -16.4408677424      -0.0000000471     0.999963    0.00003903
  243      -16.4408677890      -0.0000000465     0.999963    0.00003879
  244      -16.4408678349      -0.0000000459     0.999963    0.00003855
  245      -16.4408678803      -0.0000000454     0.999963    0.00003832
  246      -16.4408679251      -0.0000000448     0.999963    0.00003809
  247      -16.4408679695      -0.0000000443     0.999963    0.00003785
  248      -16.4408680132      -0.0000000438     0.999963    0.00003763
  249      -16.4408680565      -0.0000000433     0.999963    0.00003740
  250      -16.4408680992      -0.0000000427     0.999963    0.00003717
  251      -16.4408681415      -0.0000000422     0.999963    0.00003695
  252      -16.4408681832      -0.0000000417     0.999963    0.00003673
  253      -16.4408682245      -0.0000000412     0.999963    0.00003651
  254      -16.4408682652      -0.0000000408     0.999963    0.00003629
  255      -16.4408683055      -0.0000000403     0.999963    0.00003607
  256      -16.4408683453      -0.0000000398     0.999963    0.00003586
  257      -16.4408683847      -0.0000000393     0.999963    0.00003565
  258      -16.4408684235      -0.0000000389     0.999963    0.00003544
  259      -16.4408684620      -0.0000000384     0.999963    0.00003523
  260      -16.4408685000      -0.0000000380     0.999963    0.00003502
  261      -16.4408685375      -0.0000000375     0.999963    0.00003482
  262      -16.4408685746      -0.0000000371     0.999963    0.00003461
  263      -16.4408686113      -0.0000000367     0.999963    0.00003441
  264      -16.4408686476      -0.0000000363     0.999963    0.00003421
  265      -16.4408686834      -0.0000000358     0.999963    0.00003401
  266      -16.4408687189      -0.0000000354     0.999964    0.00003381
  267      -16.4408687539      -0.0000000350     0.999964    0.00003362
  268      -16.4408687885      -0.0000000346     0.999964    0.00003342
  269      -16.4408688228      -0.0000000342     0.999964    0.00003323
  270      -16.4408688566      -0.0000000339     0.999964    0.00003304
  271      -16.4408688901      -0.0000000335     0.999964    0.00003285
  272      -16.4408689232      -0.0000000331     0.999964    0.00003266
  273      -16.4408689559      -0.0000000327     0.999964    0.00003248
  274      -16.4408689882      -0.0000000324     0.999964    0.00003229
  275      -16.4408690202      -0.0000000320     0.999964    0.00003211
  276      -16.4408690519      -0.0000000316     0.999964    0.00003193
  277      -16.4408690831      -0.0000000313     0.999964    0.00003175
  278      -16.4408691141      -0.0000000309     0.999964    0.00003157
  279      -16.4408691447      -0.0000000306     0.999964    0.00003139
  280      -16.4408691749      -0.0000000302     0.999964    0.00003121
  281      -16.4408692048      -0.0000000299     0.999964    0.00003104
  282      -16.4408692344      -0.0000000296     0.999964    0.00003086
  283      -16.4408692636      -0.0000000293     0.999964    0.00003069
  284      -16.4408692926      -0.0000000289     0.999964    0.00003052
  285      -16.4408693212      -0.0000000286     0.999964    0.00003035
  286      -16.4408693495      -0.0000000283     0.999964    0.00003018
  287      -16.4408693775      -0.0000000280     0.999964    0.00003001
  288      -16.4408694052      -0.0000000277     0.999964    0.00002985
  289      -16.4408694325      -0.0000000274     0.999964    0.00002968
  290      -16.4408694596      -0.0000000271     0.999964    0.00002952
  291      -16.4408694864      -0.0000000268     0.999964    0.00002936
  292      -16.4408695129      -0.0000000265     0.999964    0.00002919
  293      -16.4408695391      -0.0000000262     0.999964    0.00002903
  294      -16.4408695651      -0.0000000259     0.999964    0.00002888
  295      -16.4408695907      -0.0000000257     0.999964    0.00002872
  296      -16.4408696161      -0.0000000254     0.999964    0.00002856
  297      -16.4408696412      -0.0000000251     0.999964    0.00002841
  298      -16.4408696660      -0.0000000248     0.999964    0.00002825
  299      -16.4408696906      -0.0000000246     0.999965    0.00002810
  300      -16.4408697149      -0.0000000243     0.999965    0.00002795
  301      -16.4408697389      -0.0000000240     0.999965    0.00002780
  302      -16.4408697627      -0.0000000238     0.999965    0.00002765
  303      -16.4408697863      -0.0000000235     0.999965    0.00002750
  304      -16.4408698096      -0.0000000233     0.999965    0.00002735
  305      -16.4408698326      -0.0000000230     0.999965    0.00002720
  306      -16.4408698554      -0.0000000228     0.999965    0.00002706
  307      -16.4408698780      -0.0000000226     0.999965    0.00002691
  308      -16.4408699003      -0.0000000223     0.999965    0.00002677
  309      -16.4408699224      -0.0000000221     0.999965    0.00002663
  310      -16.4408699443      -0.0000000219     0.999965    0.00002649
  311      -16.4408699659      -0.0000000216     0.999965    0.00002635
  312      -16.4408699873      -0.0000000214     0.999965    0.00002621
  313      -16.4408700085      -0.0000000212     0.999965    0.00002607
  314      -16.4408700294      -0.0000000210     0.999965    0.00002593
  315      -16.4408700502      -0.0000000207     0.999965    0.00002580
  316      -16.4408700707      -0.0000000205     0.999965    0.00002566
  317      -16.4408700910      -0.0000000203     0.999965    0.00002553
  318      -16.4408701111      -0.0000000201     0.999965    0.00002539
  319      -16.4408701310      -0.0000000199     0.999965    0.00002526
  320      -16.4408701507      -0.0000000197     0.999965    0.00002513
  321      -16.4408701702      -0.0000000195     0.999965    0.00002500
  322      -16.4408701895      -0.0000000193     0.999965    0.00002487
  323      -16.4408702086      -0.0000000191     0.999965    0.00002474
  324      -16.4408702275      -0.0000000189     0.999965    0.00002461
  325      -16.4408702462      -0.0000000187     0.999965    0.00002448
  326      -16.4408702647      -0.0000000185     0.999965    0.00002436
  327      -16.4408702830      -0.0000000183     0.999965    0.00002423
  328      -16.4408703012      -0.0000000181     0.999965    0.00002410
  329      -16.4408703191      -0.0000000180     0.999965    0.00002398
  330      -16.4408703369      -0.0000000178     0.999965    0.00002386
  331      -16.4408703545      -0.0000000176     0.999965    0.00002374
  332      -16.4408703719      -0.0000000174     0.999965    0.00002361
  333      -16.4408703892      -0.0000000172     0.999965    0.00002349
  334      -16.4408704062      -0.0000000171     0.999965    0.00002337
  335      -16.4408704231      -0.0000000169     0.999965    0.00002325
  336      -16.4408704398      -0.0000000167     0.999965    0.00002314
  337      -16.4408704564      -0.0000000166     0.999965    0.00002302
  338      -16.4408704728      -0.0000000164     0.999966    0.00002290
  339      -16.4408704890      -0.0000000162     0.999966    0.00002279
  340      -16.4408705051      -0.0000000161     0.999966    0.00002267
  341      -16.4408705210      -0.0000000159     0.999966    0.00002256
  342      -16.4408705367      -0.0000000157     0.999966    0.00002244
  343      -16.4408705523      -0.0000000156     0.999966    0.00002233
  344      -16.4408705678      -0.0000000154     0.999966    0.00002222
  345      -16.4408705831      -0.0000000153     0.999966    0.00002211
  346      -16.4408705982      -0.0000000151     0.999966    0.00002200
  347      -16.4408706132      -0.0000000150     0.999966    0.00002189
  348      -16.4408706280      -0.0000000148     0.999966    0.00002178
  349      -16.4408706427      -0.0000000147     0.999966    0.00002167
  350      -16.4408706572      -0.0000000145     0.999966    0.00002156
  351      -16.4408706716      -0.0000000144     0.999966    0.00002145
  352      -16.4408706859      -0.0000000143     0.999966    0.00002135
  353      -16.4408707000      -0.0000000141     0.999966    0.00002124
  354      -16.4408707140      -0.0000000140     0.999966    0.00002113
  355      -16.4408707279      -0.0000000138     0.999966    0.00002103
  356      -16.4408707416      -0.0000000137     0.999966    0.00002093
  357      -16.4408707551      -0.0000000136     0.999966    0.00002082
  358      -16.4408707686      -0.0000000134     0.999966    0.00002072
  359      -16.4408707819      -0.0000000133     0.999966    0.00002062
  360      -16.4408707951      -0.0000000132     0.999966    0.00002052
  361      -16.4408708082      -0.0000000131     0.999966    0.00002042
  362      -16.4408708211      -0.0000000129     0.999966    0.00002032
  363      -16.4408708339      -0.0000000128     0.999966    0.00002022
  364      -16.4408708466      -0.0000000127     0.999966    0.00002012
  365      -16.4408708591      -0.0000000126     0.999966    0.00002002
  366      -16.4408708716      -0.0000000124     0.999966    0.00001992
  367      -16.4408708839      -0.0000000123     0.999966    0.00001983
  368      -16.4408708961      -0.0000000122     0.999966    0.00001973
  369      -16.4408709082      -0.0000000121     0.999966    0.00001963
  370      -16.4408709202      -0.0000000120     0.999966    0.00001954
  371      -16.4408709320      -0.0000000119     0.999966    0.00001944
  372      -16.4408709438      -0.0000000117     0.999966    0.00001935
  373      -16.4408709554      -0.0000000116     0.999966    0.00001926
  374      -16.4408709669      -0.0000000115     0.999966    0.00001916
  375      -16.4408709783      -0.0000000114     0.999966    0.00001907
  376      -16.4408709896      -0.0000000113     0.999966    0.00001898
  377      -16.4408710008      -0.0000000112     0.999966    0.00001889
  378      -16.4408710119      -0.0000000111     0.999966    0.00001880
  379      -16.4408710229      -0.0000000110     0.999966    0.00001871
  380      -16.4408710338      -0.0000000109     0.999966    0.00001862
  381      -16.4408710445      -0.0000000108     0.999966    0.00001853
  382      -16.4408710552      -0.0000000107     0.999966    0.00001844
  383      -16.4408710658      -0.0000000106     0.999966    0.00001835
  384      -16.4408710763      -0.0000000105     0.999966    0.00001826
  385      -16.4408710866      -0.0000000104     0.999966    0.00001818
  386      -16.4408710969      -0.0000000103     0.999966    0.00001809
  387      -16.4408711071      -0.0000000102     0.999967    0.00001800
  388      -16.4408711172      -0.0000000101     0.999967    0.00001792
  389      -16.4408711272      -0.0000000100     0.999967    0.00001783
  390      -16.4408711371      -0.0000000099     0.999967    0.00001775
  391      -16.4408711469      -0.0000000098     0.999967    0.00001767
  392      -16.4408711566      -0.0000000097     0.999967    0.00001758
  393      -16.4408711662      -0.0000000096     0.999967    0.00001750
  394      -16.4408711757      -0.0000000095     0.999967    0.00001742
  395      -16.4408711852      -0.0000000094     0.999967    0.00001734
  396      -16.4408711945      -0.0000000094     0.999967    0.00001725
  397      -16.4408712038      -0.0000000093     0.999967    0.00001717
  398      -16.4408712130      -0.0000000092     0.999967    0.00001709
  399      -16.4408712221      -0.0000000091     0.999967    0.00001701
  400      -16.4408712311      -0.0000000090     0.999967    0.00001693
  401      -16.4408712400      -0.0000000089     0.999967    0.00001685
  402      -16.4408712489      -0.0000000089     0.999967    0.00001677
  403      -16.4408712577      -0.0000000088     0.999967    0.00001670
  404      -16.4408712664      -0.0000000087     0.999967    0.00001662
  405      -16.4408712750      -0.0000000086     0.999967    0.00001654
  406      -16.4408712835      -0.0000000085     0.999967    0.00001646
  407      -16.4408712919      -0.0000000085     0.999967    0.00001639
  408      -16.4408713003      -0.0000000084     0.999967    0.00001631
  409      -16.4408713086      -0.0000000083     0.999967    0.00001624
  410      -16.4408713168      -0.0000000082     0.999967    0.00001616
  411      -16.4408713250      -0.0000000081     0.999967    0.00001609
  412      -16.4408713330      -0.0000000081     0.999967    0.00001601
  413      -16.4408713410      -0.0000000080     0.999967    0.00001594
  414      -16.4408713490      -0.0000000079     0.999967    0.00001586
  415      -16.4408713568      -0.0000000079     0.999967    0.00001579
  416      -16.4408713646      -0.0000000078     0.999967    0.00001572
  417      -16.4408713723      -0.0000000077     0.999967    0.00001565
  418      -16.4408713800      -0.0000000076     0.999967    0.00001557
  419      -16.4408713875      -0.0000000076     0.999967    0.00001550
  420      -16.4408713950      -0.0000000075     0.999967    0.00001543
  421      -16.4408714025      -0.0000000074     0.999967    0.00001536
  422      -16.4408714098      -0.0000000074     0.999967    0.00001529
  423      -16.4408714171      -0.0000000073     0.999967    0.00001522
  424      -16.4408714244      -0.0000000072     0.999967    0.00001515
  425      -16.4408714315      -0.0000000072     0.999967    0.00001508
  426      -16.4408714386      -0.0000000071     0.999967    0.00001501
  427      -16.4408714457      -0.0000000070     0.999967    0.00001495
  428      -16.4408714526      -0.0000000070     0.999967    0.00001488
  429      -16.4408714596      -0.0000000069     0.999967    0.00001481
  430      -16.4408714664      -0.0000000069     0.999967    0.00001474
  431      -16.4408714732      -0.0000000068     0.999967    0.00001468
  432      -16.4408714799      -0.0000000067     0.999967    0.00001461
  433      -16.4408714866      -0.0000000067     0.999967    0.00001454
  434      -16.4408714932      -0.0000000066     0.999967    0.00001448
  435      -16.4408714998      -0.0000000066     0.999967    0.00001441
  436      -16.4408715063      -0.0000000065     0.999967    0.00001435
  437      -16.4408715127      -0.0000000064     0.999967    0.00001428
  438      -16.4408715191      -0.0000000064     0.999967    0.00001422
  439      -16.4408715254      -0.0000000063     0.999967    0.00001415
  440      -16.4408715317      -0.0000000063     0.999967    0.00001409
  441      -16.4408715379      -0.0000000062     0.999967    0.00001403
  442      -16.4408715440      -0.0000000062     0.999967    0.00001396
  443      -16.4408715501      -0.0000000061     0.999967    0.00001390
  444      -16.4408715562      -0.0000000060     0.999967    0.00001384
  445      -16.4408715622      -0.0000000060     0.999967    0.00001378
  446      -16.4408715681      -0.0000000059     0.999967    0.00001371
  447      -16.4408715740      -0.0000000059     0.999967    0.00001365
  448      -16.4408715798      -0.0000000058     0.999967    0.00001359
  449      -16.4408715856      -0.0000000058     0.999967    0.00001353
  450      -16.4408715913      -0.0000000057     0.999967    0.00001347
  451      -16.4408715970      -0.0000000057     0.999968    0.00001341
  452      -16.4408716026      -0.0000000056     0.999968    0.00001335
  453      -16.4408716082      -0.0000000056     0.999968    0.00001329
  454      -16.4408716137      -0.0000000055     0.999968    0.00001323
  455      -16.4408716192      -0.0000000055     0.999968    0.00001317
  456      -16.4408716247      -0.0000000054     0.999968    0.00001312
  457      -16.4408716300      -0.0000000054     0.999968    0.00001306
  458      -16.4408716354      -0.0000000053     0.999968    0.00001300
  459      -16.4408716407      -0.0000000053     0.999968    0.00001294
  460      -16.4408716459      -0.0000000052     0.999968    0.00001289
  461      -16.4408716511      -0.0000000052     0.999968    0.00001283
  462      -16.4408716563      -0.0000000052     0.999968    0.00001277
  463      -16.4408716614      -0.0000000051     0.999968    0.00001272
  464      -16.4408716665      -0.0000000051     0.999968    0.00001266
  465      -16.4408716715      -0.0000000050     0.999968    0.00001260
  466      -16.4408716765      -0.0000000050     0.999968    0.00001255
  467      -16.4408716814      -0.0000000049     0.999968    0.00001249
  468      -16.4408716863      -0.0000000049     0.999968    0.00001244
  469      -16.4408716911      -0.0000000048     0.999968    0.00001238
  470      -16.4408716959      -0.0000000048     0.999968    0.00001233
  471      -16.4408717007      -0.0000000048     0.999968    0.00001227
  472      -16.4408717054      -0.0000000047     0.999968    0.00001222
  473      -16.4408717101      -0.0000000047     0.999968    0.00001217
  474      -16.4408717148      -0.0000000046     0.999968    0.00001211
  475      -16.4408717194      -0.0000000046     0.999968    0.00001206
  476      -16.4408717239      -0.0000000046     0.999968    0.00001201
  477      -16.4408717284      -0.0000000045     0.999968    0.00001196
  478      -16.4408717329      -0.0000000045     0.999968    0.00001190
  479      -16.4408717374      -0.0000000044     0.999968    0.00001185
  480      -16.4408717418      -0.0000000044     0.999968    0.00001180
  481      -16.4408717462      -0.0000000044     0.999968    0.00001175
  482      -16.4408717505      -0.0000000043     0.999968    0.00001170
  483      -16.4408717548      -0.0000000043     0.999968    0.00001165
  484      -16.4408717590      -0.0000000043     0.999968    0.00001160
  485      -16.4408717633      -0.0000000042     0.999968    0.00001155
  486      -16.4408717674      -0.0000000042     0.999968    0.00001150
  487      -16.4408717716      -0.0000000041     0.999968    0.00001145
  488      -16.4408717757      -0.0000000041     0.999968    0.00001140
  489      -16.4408717798      -0.0000000041     0.999968    0.00001135
  490      -16.4408717838      -0.0000000040     0.999968    0.00001130
  491      -16.4408717878      -0.0000000040     0.999968    0.00001125
  492      -16.4408717918      -0.0000000040     0.999968    0.00001120
  493      -16.4408717957      -0.0000000039     0.999968    0.00001115
  494      -16.4408717996      -0.0000000039     0.999968    0.00001110
  495      -16.4408718035      -0.0000000039     0.999968    0.00001106
  496      -16.4408718074      -0.0000000038     0.999968    0.00001101
  497      -16.4408718112      -0.0000000038     0.999968    0.00001096
  498      -16.4408718149      -0.0000000038     0.999968    0.00001091
  499      -16.4408718187      -0.0000000037     0.999968    0.00001087
  500      -16.4408718224      -0.0000000037     0.999968    0.00001082
  501      -16.4408718261      -0.0000000037     0.999968    0.00001077
  502      -16.4408718297      -0.0000000036     0.999968    0.00001073
  503      -16.4408718333      -0.0000000036     0.999968    0.00001068
  504      -16.4408718369      -0.0000000036     0.999968    0.00001064
  505      -16.4408718405      -0.0000000036     0.999968    0.00001059
  506      -16.4408718440      -0.0000000035     0.999968    0.00001054
  507      -16.4408718475      -0.0000000035     0.999968    0.00001050
  508      -16.4408718510      -0.0000000035     0.999968    0.00001045
  509      -16.4408718544      -0.0000000034     0.999968    0.00001041
  510      -16.4408718578      -0.0000000034     0.999968    0.00001037
  511      -16.4408718612      -0.0000000034     0.999968    0.00001032
  512      -16.4408718645      -0.0000000034     0.999968    0.00001028
  513      -16.4408718679      -0.0000000033     0.999968    0.00001023
  514      -16.4408718712      -0.0000000033     0.999968    0.00001019
  515      -16.4408718744      -0.0000000033     0.999968    0.00001015
  516      -16.4408718777      -0.0000000032     0.999968    0.00001010
  517      -16.4408718809      -0.0000000032     0.999968    0.00001006
  518      -16.4408718841      -0.0000000032     0.999968    0.00001002
  519      -16.4408718872      -0.0000000032     0.999968    0.00000998
  520      -16.4408718903      -0.0000000031     0.999968    0.00000993
  521      -16.4408718934      -0.0000000031     0.999968    0.00000989
  522      -16.4408718965      -0.0000000031     0.999968    0.00000985
  523      -16.4408718996      -0.0000000031     0.999968    0.00000981
  524      -16.4408719026      -0.0000000030     0.999968    0.00000977
  525      -16.4408719056      -0.0000000030     0.999968    0.00000972
  526      -16.4408719086      -0.0000000030     0.999968    0.00000968
  527      -16.4408719115      -0.0000000030     0.999968    0.00000964
  528      -16.4408719145      -0.0000000029     0.999968    0.00000960
  529      -16.4408719174      -0.0000000029     0.999968    0.00000956
  530      -16.4408719202      -0.0000000029     0.999968    0.00000952
  531      -16.4408719231      -0.0000000029     0.999968    0.00000948
  532      -16.4408719259      -0.0000000028     0.999968    0.00000944
  533      -16.4408719287      -0.0000000028     0.999968    0.00000940
  534      -16.4408719315      -0.0000000028     0.999968    0.00000936
  535      -16.4408719343      -0.0000000028     0.999968    0.00000932
  536      -16.4408719370      -0.0000000027     0.999968    0.00000928
  537      -16.4408719397      -0.0000000027     0.999968    0.00000924
  538      -16.4408719424      -0.0000000027     0.999968    0.00000921
  539      -16.4408719451      -0.0000000027     0.999968    0.00000917
  540      -16.4408719477      -0.0000000026     0.999968    0.00000913
  541      -16.4408719504      -0.0000000026     0.999969    0.00000909
  542      -16.4408719530      -0.0000000026     0.999969    0.00000905
  543      -16.4408719555      -0.0000000026     0.999969    0.00000901
  544      -16.4408719581      -0.0000000026     0.999969    0.00000898
  545      -16.4408719606      -0.0000000025     0.999969    0.00000894
  546      -16.4408719632      -0.0000000025     0.999969    0.00000890
  547      -16.4408719657      -0.0000000025     0.999969    0.00000886
  548      -16.4408719681      -0.0000000025     0.999969    0.00000883
  549      -16.4408719706      -0.0000000025     0.999969    0.00000879
  550      -16.4408719730      -0.0000000024     0.999969    0.00000875
  551      -16.4408719754      -0.0000000024     0.999969    0.00000872
  552      -16.4408719778      -0.0000000024     0.999969    0.00000868
  553      -16.4408719802      -0.0000000024     0.999969    0.00000864
  554      -16.4408719826      -0.0000000024     0.999969    0.00000861
  555      -16.4408719849      -0.0000000023     0.999969    0.00000857
  556      -16.4408719872      -0.0000000023     0.999969    0.00000854
  557      -16.4408719895      -0.0000000023     0.999969    0.00000850
  558      -16.4408719918      -0.0000000023     0.999969    0.00000847
  559      -16.4408719941      -0.0000000023     0.999969    0.00000843
  560      -16.4408719963      -0.0000000022     0.999969    0.00000840
  561      -16.4408719985      -0.0000000022     0.999969    0.00000836
  562      -16.4408720007      -0.0000000022     0.999969    0.00000833
  563      -16.4408720029      -0.0000000022     0.999969    0.00000829
  564      -16.4408720051      -0.0000000022     0.999969    0.00000826
  565      -16.4408720072      -0.0000000022     0.999969    0.00000822
  566      -16.4408720094      -0.0000000021     0.999969    0.00000819
  567      -16.4408720115      -0.0000000021     0.999969    0.00000816
  568      -16.4408720136      -0.0000000021     0.999969    0.00000812
  569      -16.4408720157      -0.0000000021     0.999969    0.00000809
  570      -16.4408720177      -0.0000000021     0.999969    0.00000805
  571      -16.4408720198      -0.0000000020     0.999969    0.00000802
  572      -16.4408720218      -0.0000000020     0.999969    0.00000799
  573      -16.4408720238      -0.0000000020     0.999969    0.00000796
  574      -16.4408720258      -0.0000000020     0.999969    0.00000792
  575      -16.4408720278      -0.0000000020     0.999969    0.00000789
  576      -16.4408720298      -0.0000000020     0.999969    0.00000786
  577      -16.4408720317      -0.0000000019     0.999969    0.00000782
  578      -16.4408720337      -0.0000000019     0.999969    0.00000779
  579      -16.4408720356      -0.0000000019     0.999969    0.00000776
  580      -16.4408720375      -0.0000000019     0.999969    0.00000773
  581      -16.4408720394      -0.0000000019     0.999969    0.00000770
  582      -16.4408720412      -0.0000000019     0.999969    0.00000767
  583      -16.4408720431      -0.0000000019     0.999969    0.00000763
  584      -16.4408720449      -0.0000000018     0.999969    0.00000760
  585      -16.4408720467      -0.0000000018     0.999969    0.00000757
  586      -16.4408720486      -0.0000000018     0.999969    0.00000754
  587      -16.4408720504      -0.0000000018     0.999969    0.00000751
  588      -16.4408720521      -0.0000000018     0.999969    0.00000748
  589      -16.4408720539      -0.0000000018     0.999969    0.00000745
  590      -16.4408720557      -0.0000000018     0.999969    0.00000742
  591      -16.4408720574      -0.0000000017     0.999969    0.00000739
  592      -16.4408720591      -0.0000000017     0.999969    0.00000736
  593      -16.4408720608      -0.0000000017     0.999969    0.00000733
  594      -16.4408720625      -0.0000000017     0.999969    0.00000730
  595      -16.4408720642      -0.0000000017     0.999969    0.00000727
  596      -16.4408720659      -0.0000000017     0.999969    0.00000724
  597      -16.4408720675      -0.0000000017     0.999969    0.00000721
  598      -16.4408720692      -0.0000000016     0.999969    0.00000718
  599      -16.4408720708      -0.0000000016     0.999969    0.00000715
  600      -16.4408720724      -0.0000000016     0.999969    0.00000712
  601      -16.4408720740      -0.0000000016     0.999969    0.00000709
  602      -16.4408720756      -0.0000000016     0.999969    0.00000706
  603      -16.4408720772      -0.0000000016     0.999969    0.00000703
  604      -16.4408720788      -0.0000000016     0.999969    0.00000700
  605      -16.4408720803      -0.0000000016     0.999969    0.00000698
  606      -16.4408720818      -0.0000000015     0.999969    0.00000695
  607      -16.4408720834      -0.0000000015     0.999969    0.00000692
  608      -16.4408720849      -0.0000000015     0.999969    0.00000689
  609      -16.4408720864      -0.0000000015     0.999969    0.00000686
  610      -16.4408720879      -0.0000000015     0.999969    0.00000684
  611      -16.4408720893      -0.0000000015     0.999969    0.00000681
  612      -16.4408720908      -0.0000000015     0.999969    0.00000678
  613      -16.4408720923      -0.0000000015     0.999969    0.00000675
  614      -16.4408720937      -0.0000000014     0.999969    0.00000672
  615      -16.4408720951      -0.0000000014     0.999969    0.00000670
  616      -16.4408720966      -0.0000000014     0.999969    0.00000667
  617      -16.4408720980      -0.0000000014     0.999969    0.00000664
  618      -16.4408720994      -0.0000000014     0.999969    0.00000662
  619      -16.4408721008      -0.0000000014     0.999969    0.00000659
  620      -16.4408721021      -0.0000000014     0.999969    0.00000656
  621      -16.4408721035      -0.0000000014     0.999969    0.00000654
  622      -16.4408721048      -0.0000000014     0.999969    0.00000651
  623      -16.4408721062      -0.0000000013     0.999969    0.00000648
  624      -16.4408721075      -0.0000000013     0.999969    0.00000646
  625      -16.4408721088      -0.0000000013     0.999969    0.00000643
  626      -16.4408721101      -0.0000000013     0.999969    0.00000641
  627      -16.4408721114      -0.0000000013     0.999969    0.00000638
  628      -16.4408721127      -0.0000000013     0.999969    0.00000635
  629      -16.4408721140      -0.0000000013     0.999969    0.00000633
  630      -16.4408721153      -0.0000000013     0.999969    0.00000630
  631      -16.4408721165      -0.0000000013     0.999969    0.00000628
  632      -16.4408721178      -0.0000000012     0.999969    0.00000625
  633      -16.4408721190      -0.0000000012     0.999969    0.00000623
  634      -16.4408721202      -0.0000000012     0.999969    0.00000620
  635      -16.4408721215      -0.0000000012     0.999969    0.00000618
  636      -16.4408721227      -0.0000000012     0.999969    0.00000615
  637      -16.4408721239      -0.0000000012     0.999969    0.00000613
  638      -16.4408721251      -0.0000000012     0.999969    0.00000610
  639      -16.4408721262      -0.0000000012     0.999969    0.00000608
  640      -16.4408721274      -0.0000000012     0.999969    0.00000605
  641      -16.4408721286      -0.0000000012     0.999969    0.00000603
  642      -16.4408721297      -0.0000000012     0.999969    0.00000601
  643      -16.4408721309      -0.0000000011     0.999969    0.00000598
  644      -16.4408721320      -0.0000000011     0.999969    0.00000596
  645      -16.4408721331      -0.0000000011     0.999969    0.00000593
  646      -16.4408721342      -0.0000000011     0.999969    0.00000591
  647      -16.4408721353      -0.0000000011     0.999969    0.00000589
  648      -16.4408721364      -0.0000000011     0.999969    0.00000586
  649      -16.4408721375      -0.0000000011     0.999969    0.00000584
  650      -16.4408721386      -0.0000000011     0.999969    0.00000582
  651      -16.4408721397      -0.0000000011     0.999969    0.00000579
  652      -16.4408721407      -0.0000000011     0.999969    0.00000577
  653      -16.4408721418      -0.0000000011     0.999969    0.00000575
  654      -16.4408721428      -0.0000000010     0.999969    0.00000572
  655      -16.4408721439      -0.0000000010     0.999969    0.00000570
  656      -16.4408721449      -0.0000000010     0.999969    0.00000568
  657      -16.4408721459      -0.0000000010     0.999969    0.00000565
  658      -16.4408721469      -0.0000000010     0.999969    0.00000563
  659      -16.4408721479      -0.0000000010     0.999969    0.00000561
  660      -16.4408721489      -0.0000000010     0.999969    0.00000559
  661      -16.4408721499      -0.0000000010     0.999969    0.00000556
  662      -16.4408721509      -0.0000000010     0.999969    0.00000554
  663      -16.4408721519      -0.0000000010     0.999969    0.00000552
  664      -16.4408721529      -0.0000000010     0.999969    0.00000550
  665      -16.4408721538      -0.0000000010     0.999969    0.00000548
  666      -16.4408721548      -0.0000000010     0.999969    0.00000545
  667      -16.4408721557      -0.0000000009     0.999969    0.00000543
  668      -16.4408721566      -0.0000000009     0.999969    0.00000541
  669      -16.4408721576      -0.0000000009     0.999969    0.00000539
  670      -16.4408721585      -0.0000000009     0.999969    0.00000537
  671      -16.4408721594      -0.0000000009     0.999969    0.00000535
  672      -16.4408721603      -0.0000000009     0.999969    0.00000533
  673      -16.4408721612      -0.0000000009     0.999969    0.00000530
  674      -16.4408721621      -0.0000000009     0.999969    0.00000528
  675      -16.4408721630      -0.0000000009     0.999969    0.00000526
  676      -16.4408721639      -0.0000000009     0.999969    0.00000524
  677      -16.4408721647      -0.0000000009     0.999969    0.00000522
  678      -16.4408721656      -0.0000000009     0.999969    0.00000520
  679      -16.4408721665      -0.0000000009     0.999969    0.00000518
  680      -16.4408721673      -0.0000000009     0.999969    0.00000516
  681      -16.4408721682      -0.0000000008     0.999969    0.00000514
  682      -16.4408721690      -0.0000000008     0.999969    0.00000512
  683      -16.4408721698      -0.0000000008     0.999969    0.00000510
  684      -16.4408721707      -0.0000000008     0.999969    0.00000508
  685      -16.4408721715      -0.0000000008     0.999970    0.00000506
  686      -16.4408721723      -0.0000000008     0.999970    0.00000504
  687      -16.4408721731      -0.0000000008     0.999970    0.00000502
  688      -16.4408721739      -0.0000000008     0.999970    0.00000500
  689      -16.4408721747      -0.0000000008     0.999970    0.00000498
  690      -16.4408721755      -0.0000000008     0.999970    0.00000496
  691      -16.4408721762      -0.0000000008     0.999970    0.00000494
  692      -16.4408721770      -0.0000000008     0.999970    0.00000492
  693      -16.4408721778      -0.0000000008     0.999970    0.00000490
  694      -16.4408721786      -0.0000000008     0.999970    0.00000488
  695      -16.4408721793      -0.0000000008     0.999970    0.00000486
  696      -16.4408721801      -0.0000000007     0.999970    0.00000484
  697      -16.4408721808      -0.0000000007     0.999970    0.00000482
  698      -16.4408721815      -0.0000000007     0.999970    0.00000480
  699      -16.4408721823      -0.0000000007     0.999970    0.00000478
  700      -16.4408721830      -0.0000000007     0.999970    0.00000477
  701      -16.4408721837      -0.0000000007     0.999970    0.00000475
  702      -16.4408721844      -0.0000000007     0.999970    0.00000473
  703      -16.4408721851      -0.0000000007     0.999970    0.00000471
  704      -16.4408721858      -0.0000000007     0.999970    0.00000469
  705      -16.4408721865      -0.0000000007     0.999970    0.00000467
  706      -16.4408721872      -0.0000000007     0.999970    0.00000465
  707      -16.4408721879      -0.0000000007     0.999970    0.00000464
  708      -16.4408721886      -0.0000000007     0.999970    0.00000462
  709      -16.4408721893      -0.0000000007     0.999970    0.00000460
  710      -16.4408721900      -0.0000000007     0.999970    0.00000458
  711      -16.4408721906      -0.0000000007     0.999970    0.00000456
  712      -16.4408721913      -0.0000000007     0.999970    0.00000455
  713      -16.4408721919      -0.0000000007     0.999970    0.00000453
  714      -16.4408721926      -0.0000000007     0.999970    0.00000451
  715      -16.4408721932      -0.0000000006     0.999970    0.00000449
  716      -16.4408721939      -0.0000000006     0.999970    0.00000447
  717      -16.4408721945      -0.0000000006     0.999970    0.00000446
  718      -16.4408721951      -0.0000000006     0.999970    0.00000444
  719      -16.4408721958      -0.0000000006     0.999970    0.00000442
  720      -16.4408721964      -0.0000000006     0.999970    0.00000440
  721      -16.4408721970      -0.0000000006     0.999970    0.00000439
  722      -16.4408721976      -0.0000000006     0.999970    0.00000437
  723      -16.4408721982      -0.0000000006     0.999970    0.00000435
  724      -16.4408721988      -0.0000000006     0.999970    0.00000434
  725      -16.4408721994      -0.0000000006     0.999970    0.00000432
  726      -16.4408722000      -0.0000000006     0.999970    0.00000430
  727      -16.4408722006      -0.0000000006     0.999970    0.00000428
  728      -16.4408722012      -0.0000000006     0.999970    0.00000427
  729      -16.4408722018      -0.0000000006     0.999970    0.00000425
  730      -16.4408722023      -0.0000000006     0.999970    0.00000423
  731      -16.4408722029      -0.0000000006     0.999970    0.00000422
  732      -16.4408722035      -0.0000000006     0.999970    0.00000420
  733      -16.4408722040      -0.0000000006     0.999970    0.00000419
  734      -16.4408722046      -0.0000000006     0.999970    0.00000417
  735      -16.4408722052      -0.0000000006     0.999970    0.00000415
  736      -16.4408722057      -0.0000000005     0.999970    0.00000414
  737      -16.4408722062      -0.0000000005     0.999970    0.00000412
  738      -16.4408722068      -0.0000000005     0.999970    0.00000410
  739      -16.4408722073      -0.0000000005     0.999970    0.00000409
  740      -16.4408722078      -0.0000000005     0.999970    0.00000407
  741      -16.4408722084      -0.0000000005     0.999970    0.00000406
  742      -16.4408722089      -0.0000000005     0.999970    0.00000404
  743      -16.4408722094      -0.0000000005     0.999970    0.00000402
  744      -16.4408722099      -0.0000000005     0.999970    0.00000401
  745      -16.4408722104      -0.0000000005     0.999970    0.00000399
  746      -16.4408722110      -0.0000000005     0.999970    0.00000398
  747      -16.4408722115      -0.0000000005     0.999970    0.00000396
  748      -16.4408722120      -0.0000000005     0.999970    0.00000395
  749      -16.4408722124      -0.0000000005     0.999970    0.00000393
  750      -16.4408722129      -0.0000000005     0.999970    0.00000392
  751      -16.4408722134      -0.0000000005     0.999970    0.00000390
  752      -16.4408722139      -0.0000000005     0.999970    0.00000389
  753      -16.4408722144      -0.0000000005     0.999970    0.00000387
  754      -16.4408722149      -0.0000000005     0.999970    0.00000386
  755      -16.4408722153      -0.0000000005     0.999970    0.00000384
  756      -16.4408722158      -0.0000000005     0.999970    0.00000383
  757      -16.4408722163      -0.0000000005     0.999970    0.00000381
  758      -16.4408722167      -0.0000000005     0.999970    0.00000380
  759      -16.4408722172      -0.0000000005     0.999970    0.00000378
  760      -16.4408722176      -0.0000000005     0.999970    0.00000377
  761      -16.4408722181      -0.0000000005     0.999970    0.00000375
  762      -16.4408722185      -0.0000000004     0.999970    0.00000374
  763      -16.4408722190      -0.0000000004     0.999970    0.00000372
  764      -16.4408722194      -0.0000000004     0.999970    0.00000371
  765      -16.4408722199      -0.0000000004     0.999970    0.00000369
  766      -16.4408722203      -0.0000000004     0.999970    0.00000368
  767      -16.4408722207      -0.0000000004     0.999970    0.00000366
  768      -16.4408722212      -0.0000000004     0.999970    0.00000365
  769      -16.4408722216      -0.0000000004     0.999970    0.00000364
  770      -16.4408722220      -0.0000000004     0.999970    0.00000362
  771      -16.4408722224      -0.0000000004     0.999970    0.00000361
  772      -16.4408722228      -0.0000000004     0.999970    0.00000359
  773      -16.4408722232      -0.0000000004     0.999970    0.00000358
  774      -16.4408722237      -0.0000000004     0.999970    0.00000357
  775      -16.4408722241      -0.0000000004     0.999970    0.00000355
  776      -16.4408722245      -0.0000000004     0.999970    0.00000354
  777      -16.4408722249      -0.0000000004     0.999970    0.00000352
  778      -16.4408722253      -0.0000000004     0.999970    0.00000351
  779      -16.4408722256      -0.0000000004     0.999970    0.00000350
  780      -16.4408722260      -0.0000000004     0.999970    0.00000348
  781      -16.4408722264      -0.0000000004     0.999970    0.00000347
  782      -16.4408722268      -0.0000000004     0.999970    0.00000346
  783      -16.4408722272      -0.0000000004     0.999970    0.00000344
  784      -16.4408722276      -0.0000000004     0.999970    0.00000343
  785      -16.4408722279      -0.0000000004     0.999970    0.00000342
  786      -16.4408722283      -0.0000000004     0.999970    0.00000340
  787      -16.4408722287      -0.0000000004     0.999970    0.00000339
  788      -16.4408722290      -0.0000000004     0.999970    0.00000338
  789      -16.4408722294      -0.0000000004     0.999970    0.00000336
  790      -16.4408722298      -0.0000000004     0.999970    0.00000335
  791      -16.4408722301      -0.0000000004     0.999970    0.00000334
  792      -16.4408722305      -0.0000000004     0.999970    0.00000333
  793      -16.4408722308      -0.0000000004     0.999970    0.00000331
  794      -16.4408722312      -0.0000000003     0.999970    0.00000330
  795      -16.4408722315      -0.0000000003     0.999970    0.00000329
  796      -16.4408722319      -0.0000000003     0.999970    0.00000327
  797      -16.4408722322      -0.0000000003     0.999970    0.00000326
  798      -16.4408722326      -0.0000000003     0.999970    0.00000325
  799      -16.4408722329      -0.0000000003     0.999970    0.00000324
  800      -16.4408722332      -0.0000000003     0.999970    0.00000322
  801      -16.4408722336      -0.0000000003     0.999970    0.00000321
  802      -16.4408722339      -0.0000000003     0.999970    0.00000320
  803      -16.4408722342      -0.0000000003     0.999970    0.00000319
  804      -16.4408722345      -0.0000000003     0.999970    0.00000317
  805      -16.4408722349      -0.0000000003     0.999970    0.00000316
  806      -16.4408722352      -0.0000000003     0.999970    0.00000315
  807      -16.4408722355      -0.0000000003     0.999970    0.00000314
  808      -16.4408722358      -0.0000000003     0.999970    0.00000313
  809      -16.4408722361      -0.0000000003     0.999970    0.00000311
  810      -16.4408722364      -0.0000000003     0.999970    0.00000310
  811      -16.4408722367      -0.0000000003     0.999970    0.00000309
  812      -16.4408722370      -0.0000000003     0.999970    0.00000308
  813      -16.4408722373      -0.0000000003     0.999970    0.00000307
  814      -16.4408722376      -0.0000000003     0.999970    0.00000305
  815      -16.4408722379      -0.0000000003     0.999970    0.00000304
  816      -16.4408722382      -0.0000000003     0.999970    0.00000303
  817      -16.4408722385      -0.0000000003     0.999970    0.00000302
  818      -16.4408722388      -0.0000000003     0.999970    0.00000301
  819      -16.4408722391      -0.0000000003     0.999970    0.00000300
  820      -16.4408722394      -0.0000000003     0.999970    0.00000298
  821      -16.4408722397      -0.0000000003     0.999970    0.00000297
  822      -16.4408722399      -0.0000000003     0.999970    0.00000296
  823      -16.4408722402      -0.0000000003     0.999970    0.00000295
  824      -16.4408722405      -0.0000000003     0.999970    0.00000294
  825      -16.4408722408      -0.0000000003     0.999970    0.00000293
  826      -16.4408722410      -0.0000000003     0.999970    0.00000292
  827      -16.4408722413      -0.0000000003     0.999970    0.00000290
  828      -16.4408722416      -0.0000000003     0.999970    0.00000289
  829      -16.4408722419      -0.0000000003     0.999970    0.00000288
  830      -16.4408722421      -0.0000000003     0.999970    0.00000287
  831      -16.4408722424      -0.0000000003     0.999970    0.00000286
  832      -16.4408722426      -0.0000000003     0.999970    0.00000285
  833      -16.4408722429      -0.0000000003     0.999970    0.00000284
  834      -16.4408722432      -0.0000000003     0.999970    0.00000283
  835      -16.4408722434      -0.0000000003     0.999970    0.00000282
  836      -16.4408722437      -0.0000000003     0.999970    0.00000281
  837      -16.4408722439      -0.0000000003     0.999970    0.00000280
  838      -16.4408722442      -0.0000000002     0.999970    0.00000278
  839      -16.4408722444      -0.0000000002     0.999970    0.00000277
  840      -16.4408722447      -0.0000000002     0.999970    0.00000276
  841      -16.4408722449      -0.0000000002     0.999970    0.00000275
  842      -16.4408722451      -0.0000000002     0.999970    0.00000274
  843      -16.4408722454      -0.0000000002     0.999970    0.00000273
  844      -16.4408722456      -0.0000000002     0.999970    0.00000272
  845      -16.4408722459      -0.0000000002     0.999970    0.00000271
  846      -16.4408722461      -0.0000000002     0.999970    0.00000270
  847      -16.4408722463      -0.0000000002     0.999970    0.00000269
  848      -16.4408722466      -0.0000000002     0.999970    0.00000268
  849      -16.4408722468      -0.0000000002     0.999970    0.00000267
  850      -16.4408722470      -0.0000000002     0.999970    0.00000266
  851      -16.4408722472      -0.0000000002     0.999970    0.00000265
  852      -16.4408722475      -0.0000000002     0.999970    0.00000264
  853      -16.4408722477      -0.0000000002     0.999970    0.00000263
  854      -16.4408722479      -0.0000000002     0.999970    0.00000262
  855      -16.4408722481      -0.0000000002     0.999970    0.00000261
  856      -16.4408722483      -0.0000000002     0.999970    0.00000260
  857      -16.4408722486      -0.0000000002     0.999970    0.00000259
  858      -16.4408722488      -0.0000000002     0.999970    0.00000258
  859      -16.4408722490      -0.0000000002     0.999970    0.00000257
  860      -16.4408722492      -0.0000000002     0.999970    0.00000256
  861      -16.4408722494      -0.0000000002     0.999970    0.00000255
  862      -16.4408722496      -0.0000000002     0.999970    0.00000254
  863      -16.4408722498      -0.0000000002     0.999970    0.00000253
  864      -16.4408722500      -0.0000000002     0.999970    0.00000252
  865      -16.4408722502      -0.0000000002     0.999970    0.00000251
  866      -16.4408722504      -0.0000000002     0.999970    0.00000250
  867      -16.4408722506      -0.0000000002     0.999970    0.00000249
  868      -16.4408722508      -0.0000000002     0.999970    0.00000248
  869      -16.4408722510      -0.0000000002     0.999970    0.00000247
  870      -16.4408722512      -0.0000000002     0.999970    0.00000246
  871      -16.4408722514      -0.0000000002     0.999970    0.00000245
  872      -16.4408722516      -0.0000000002     0.999970    0.00000244
  873      -16.4408722518      -0.0000000002     0.999970    0.00000243
  874      -16.4408722520      -0.0000000002     0.999970    0.00000243
  875      -16.4408722522      -0.0000000002     0.999970    0.00000242
  876      -16.4408722523      -0.0000000002     0.999970    0.00000241
  877      -16.4408722525      -0.0000000002     0.999970    0.00000240
  878      -16.4408722527      -0.0000000002     0.999970    0.00000239
  879      -16.4408722529      -0.0000000002     0.999970    0.00000238
  880      -16.4408722531      -0.0000000002     0.999970    0.00000237
  881      -16.4408722533      -0.0000000002     0.999970    0.00000236
  882      -16.4408722534      -0.0000000002     0.999970    0.00000235
  883      -16.4408722536      -0.0000000002     0.999970    0.00000234
  884      -16.4408722538      -0.0000000002     0.999970    0.00000233
  885      -16.4408722540      -0.0000000002     0.999970    0.00000233
  886      -16.4408722541      -0.0000000002     0.999970    0.00000232
  887      -16.4408722543      -0.0000000002     0.999970    0.00000231
  888      -16.4408722545      -0.0000000002     0.999970    0.00000230
  889      -16.4408722546      -0.0000000002     0.999970    0.00000229
  890      -16.4408722548      -0.0000000002     0.999970    0.00000228
  891      -16.4408722550      -0.0000000002     0.999970    0.00000227
  892      -16.4408722551      -0.0000000002     0.999970    0.00000226
  893      -16.4408722553      -0.0000000002     0.999970    0.00000226
  894      -16.4408722555      -0.0000000002     0.999970    0.00000225
  895      -16.4408722556      -0.0000000002     0.999970    0.00000224
  896      -16.4408722558      -0.0000000002     0.999970    0.00000223
  897      -16.4408722559      -0.0000000002     0.999970    0.00000222
  898      -16.4408722561      -0.0000000002     0.999970    0.00000221
  899      -16.4408722563      -0.0000000002     0.999970    0.00000220
  900      -16.4408722564      -0.0000000002     0.999970    0.00000220
  901      -16.4408722566      -0.0000000002     0.999970    0.00000219
  902      -16.4408722567      -0.0000000002     0.999970    0.00000218
  903      -16.4408722569      -0.0000000002     0.999970    0.00000217
  904      -16.4408722570      -0.0000000002     0.999970    0.00000216
  905      -16.4408722572      -0.0000000001     0.999970    0.00000215
  906      -16.4408722573      -0.0000000001     0.999970    0.00000215
  907      -16.4408722575      -0.0000000001     0.999970    0.00000214
  908      -16.4408722576      -0.0000000001     0.999970    0.00000213
  909      -16.4408722578      -0.0000000001     0.999970    0.00000212
  910      -16.4408722579      -0.0000000001     0.999970    0.00000211
  911      -16.4408722580      -0.0000000001     0.999970    0.00000211
  912      -16.4408722582      -0.0000000001     0.999970    0.00000210
  913      -16.4408722583      -0.0000000001     0.999970    0.00000209
  914      -16.4408722585      -0.0000000001     0.999970    0.00000208
  915      -16.4408722586      -0.0000000001     0.999970    0.00000207
  916      -16.4408722587      -0.0000000001     0.999970    0.00000207
  917      -16.4408722589      -0.0000000001     0.999970    0.00000206
  918      -16.4408722590      -0.0000000001     0.999970    0.00000205
  919      -16.4408722591      -0.0000000001     0.999970    0.00000204
  920      -16.4408722593      -0.0000000001     0.999970    0.00000203
  921      -16.4408722594      -0.0000000001     0.999970    0.00000203
  922      -16.4408722595      -0.0000000001     0.999970    0.00000202
  923      -16.4408722597      -0.0000000001     0.999970    0.00000201
  924      -16.4408722598      -0.0000000001     0.999970    0.00000200
  925      -16.4408722599      -0.0000000001     0.999970    0.00000200
  926      -16.4408722601      -0.0000000001     0.999970    0.00000199
  927      -16.4408722602      -0.0000000001     0.999970    0.00000198
  928      -16.4408722603      -0.0000000001     0.999970    0.00000197
  929      -16.4408722604      -0.0000000001     0.999970    0.00000197
  930      -16.4408722606      -0.0000000001     0.999970    0.00000196
  931      -16.4408722607      -0.0000000001     0.999970    0.00000195
  932      -16.4408722608      -0.0000000001     0.999970    0.00000194
  933      -16.4408722609      -0.0000000001     0.999970    0.00000194
  934      -16.4408722610      -0.0000000001     0.999970    0.00000193
  935      -16.4408722612      -0.0000000001     0.999970    0.00000192
  936      -16.4408722613      -0.0000000001     0.999970    0.00000191
  937      -16.4408722614      -0.0000000001     0.999970    0.00000191
  938      -16.4408722615      -0.0000000001     0.999970    0.00000190
  939      -16.4408722616      -0.0000000001     0.999970    0.00000189
  940      -16.4408722617      -0.0000000001     0.999970    0.00000189
  941      -16.4408722618      -0.0000000001     0.999970    0.00000188
  942      -16.4408722620      -0.0000000001     0.999970    0.00000187
  943      -16.4408722621      -0.0000000001     0.999970    0.00000186
  944      -16.4408722622      -0.0000000001     0.999970    0.00000186
  945      -16.4408722623      -0.0000000001     0.999970    0.00000185
  946      -16.4408722624      -0.0000000001     0.999970    0.00000184
  947      -16.4408722625      -0.0000000001     0.999970    0.00000184
  948      -16.4408722626      -0.0000000001     0.999970    0.00000183
  949      -16.4408722627      -0.0000000001     0.999970    0.00000182
  950      -16.4408722628      -0.0000000001     0.999970    0.00000182
  951      -16.4408722629      -0.0000000001     0.999970    0.00000181
  952      -16.4408722630      -0.0000000001     0.999970    0.00000180
  953      -16.4408722631      -0.0000000001     0.999970    0.00000179
  954      -16.4408722632      -0.0000000001     0.999970    0.00000179
  955      -16.4408722634      -0.0000000001     0.999970    0.00000178
  956      -16.4408722635      -0.0000000001     0.999970    0.00000177
  957      -16.4408722636      -0.0000000001     0.999970    0.00000177
  958      -16.4408722637      -0.0000000001     0.999970    0.00000176
  959      -16.4408722638      -0.0000000001     0.999970    0.00000175
  960      -16.4408722639      -0.0000000001     0.999970    0.00000175
  961      -16.4408722639      -0.0000000001     0.999970    0.00000174
  962      -16.4408722640      -0.0000000001     0.999970    0.00000173
  963      -16.4408722641      -0.0000000001     0.999970    0.00000173
  964      -16.4408722642      -0.0000000001     0.999970    0.00000172
  965      -16.4408722643      -0.0000000001     0.999970    0.00000171
  966      -16.4408722644      -0.0000000001     0.999970    0.00000171
  967      -16.4408722645      -0.0000000001     0.999970    0.00000170
  968      -16.4408722646      -0.0000000001     0.999970    0.00000170
  969      -16.4408722647      -0.0000000001     0.999970    0.00000169
  970      -16.4408722648      -0.0000000001     0.999970    0.00000168
  971      -16.4408722649      -0.0000000001     0.999970    0.00000168
  972      -16.4408722650      -0.0000000001     0.999970    0.00000167
  973      -16.4408722651      -0.0000000001     0.999970    0.00000166
  974      -16.4408722652      -0.0000000001     0.999970    0.00000166
  975      -16.4408722652      -0.0000000001     0.999970    0.00000165
  976      -16.4408722653      -0.0000000001     0.999970    0.00000164
  977      -16.4408722654      -0.0000000001     0.999970    0.00000164
  978      -16.4408722655      -0.0000000001     0.999970    0.00000163
  979      -16.4408722656      -0.0000000001     0.999970    0.00000163
  980      -16.4408722657      -0.0000000001     0.999970    0.00000162
  981      -16.4408722658      -0.0000000001     0.999970    0.00000161
  982      -16.4408722658      -0.0000000001     0.999970    0.00000161
  983      -16.4408722659      -0.0000000001     0.999970    0.00000160
  984      -16.4408722660      -0.0000000001     0.999970    0.00000160
  985      -16.4408722661      -0.0000000001     0.999970    0.00000159
  986      -16.4408722662      -0.0000000001     0.999970    0.00000158
  987      -16.4408722662      -0.0000000001     0.999970    0.00000158
  988      -16.4408722663      -0.0000000001     0.999970    0.00000157
  989      -16.4408722664      -0.0000000001     0.999970    0.00000157
  990      -16.4408722665      -0.0000000001     0.999970    0.00000156
  991      -16.4408722666      -0.0000000001     0.999970    0.00000155
  992      -16.4408722666      -0.0000000001     0.999970    0.00000155
  993      -16.4408722667      -0.0000000001     0.999970    0.00000154
  994      -16.4408722668      -0.0000000001     0.999970    0.00000154
  995      -16.4408722669      -0.0000000001     0.999970    0.00000153
  996      -16.4408722669      -0.0000000001     0.999970    0.00000152
  997      -16.4408722670      -0.0000000001     0.999970    0.00000152
  998      -16.4408722671      -0.0000000001     0.999970    0.00000151
  999      -16.4408722672      -0.0000000001     0.999970    0.00000151
 1000      -16.4408722672      -0.0000000001     0.999970    0.00000150

Total Energy:                      -16.4408722672 H         -447.3789 eV
Extrapolated to 0:                 -16.4158875252 H         -446.6990 eV

----------------------------------------------------------------------------------
 Solving CP-REKS equation for  1 state vector...
----------------------------------------------------------------------------------
  CG solver: Constructing Y initial guess
  CG solver: Iteration    1    eps =    0.087156596958
  CG solver: Iteration    2    eps =    0.012438791621
  CG solver: Iteration    3    eps =    0.003886804771
  CG solver: Iteration    4    eps =    0.003192108698
  CG solver: Iteration    5    eps =    0.001592906503
  CG solver: Iteration    6    eps =    0.001576595812
  CG solver: Iteration    7    eps =    0.009221902356
  CG solver: Iteration    8    eps =    0.012956132739
  CG solver: Iteration    9    eps =    0.008476907272
  CG solver: Iteration   10    eps =    0.003865583778
  CG solver: Iteration   11    eps =    0.000409686464
  CG solver: Iteration   12    eps =    0.000027217044
  CG solver: Iteration   13    eps =    0.000003065557
  CG solver: Iteration   14    eps =    0.000000300401
  CG solver: Iteration   15    eps =    0.000000020829
  CG solver: Iteration   16    eps =    0.000000002113
  Convergence reached in CG solver after   16 iterations
  CG solver: Calculating converged R, Z, Q2 matrix
----------------------------------------------------------------------------------

----------------------------------------------------------------------------------
 Solving CP-REKS equation for SI between  1 and  2 state vectors...
----------------------------------------------------------------------------------
  CG solver: Constructing Y initial guess
  CG solver: Iteration    1    eps =    0.052957574642
  CG solver: Iteration    2    eps =    0.001889106001
  CG solver: Iteration    3    eps =    0.001430308039
  CG solver: Iteration    4    eps =    0.001573673134
  CG solver: Iteration    5    eps =    0.003501846904
  CG solver: Iteration    6    eps =    0.040639671901
  CG solver: Iteration    7    eps =    0.007561566076
  CG solver: Iteration    8    eps =    0.001251485563
  CG solver: Iteration    9    eps =    0.000155577697
  CG solver: Iteration   10    eps =    0.000013899968
  CG solver: Iteration   11    eps =    0.000000856590
  CG solver: Iteration   12    eps =    0.000000101062
  CG solver: Iteration   13    eps =    0.000000017771
  CG solver: Iteration   14    eps =    0.000000002043
  Convergence reached in CG solver after   14 iterations
  CG solver: Calculating converged R, Z, Q2 matrix
----------------------------------------------------------------------------------

--------------------------------------------------
 Gradient Information
--------------------------------------------------
           1 st state (SSR)
     0.00000000     0.00000000     0.00000000
     0.00000000     0.00000000     0.00000000
     0.00000000     0.00000000     0.00000000
     0.00000000     0.00000000     0.00000000
     0.00000000     0.00000000     0.00000000
     0.00000000     0.00000000     0.00000000
     0.00000000     0.00000000     0.00000000
     0.00000000     0.00000000     0.00000000
     0.00000000     0.00000000     0.00000000
     0.00000000     0.00000000     0.00000000
     0.00000000     0.00000000     0.00000000
     0.00000000     0.00000000     0.00000000
     0.00000000     0.00000000     0.00000000
     0.00000000     0.00000000     0.00000000

           2 st state (SSR)
     0.00000000     0.00000000     0.00000000
     0.00000000     0.00000000     0.00000000
     0.00000000     0.00000000     0.00000000
     0.00000000     0.00000000     0.00000000
     0.00000000     0.00000000     0.00000000
     0.00000000     0.00000000     0.00000000
     0.00000000     0.00000000     0.00000000
     0.00000000     0.00000000     0.00000000
     0.00000000     0.00000000     0.00000000
     0.00000000     0.00000000     0.00000000
     0.00000000     0.00000000     0.00000000
     0.00000000     0.00000000     0.00000000
     0.00000000     0.00000000     0.00000000
     0.00000000     0.00000000     0.00000000
--------------------------------------------------
 Coupling Information
--------------------------------------------------
 between  1 and  2 states
--------------------------------------------------
 g vector - difference gradient
     0.25963219     0.52423597    -0.13050105
    -0.66613743    -0.86888559     0.14693534
    -0.09325526     0.10200956     0.00466996
    -0.03594536    -0.05788316    -0.01083652
     0.21953703     0.21909660     0.08393482
     0.87901640     0.31005835    -0.28728105
    -0.40476916    -0.28928086     0.28451672
    -0.05659022     0.05293222     0.10396238
     0.04602168    -0.17021021     0.05509626
     0.31865055     0.31568794    -0.17712729
    -0.23212282     0.03242214    -0.05037996
    -0.36174821    -0.12677206     0.00599254
     0.21502702    -0.19166941     0.02719046
    -0.08731640     0.14825853    -0.05617262

 h vector - derivative coupling
    -0.38985341    -0.41273706     0.06024437
     0.70988916     0.67638165    -0.18989590
     0.06427043    -0.01221970     0.00487637
     0.00719938     0.06274227    -0.01558705
    -0.19644821    -0.08435690     0.01648111
    -0.63631044    -0.29512941     0.18616868
     0.19357419     0.18863622    -0.00715425
     0.10920877    -0.05918556     0.03272767
    -0.05149945     0.08838946    -0.04054219
     0.04086219    -0.28717677    -0.10068557
     0.09261164     0.02934675     0.05579487
     0.06833814     0.09971580     0.00593836
    -0.01519241     0.01018185    -0.00645945
     0.00335002    -0.00458858    -0.00190702

 G vector - GDV
     0.00000000     0.00000000     0.00000000
     0.00000000     0.00000000     0.00000000
     0.00000000     0.00000000     0.00000000
     0.00000000     0.00000000     0.00000000
     0.00000000     0.00000000     0.00000000
     0.00000000     0.00000000     0.00000000
     0.00000000     0.00000000     0.00000000
     0.00000000     0.00000000     0.00000000
     0.00000000     0.00000000     0.00000000
     0.00000000     0.00000000     0.00000000
     0.00000000     0.00000000     0.00000000
     0.00000000     0.00000000     0.00000000
     0.00000000     0.00000000     0.00000000
     0.00000000     0.00000000     0.00000000

 H vector - DCV - non-adiabatic coupling
     0.00000000     0.00000000     0.00000000
     0.00000000     0.00000000     0.00000000
     0.00000000     0.00000000     0.00000000
     0.00000000     0.00000000     0.00000000
     0.00000000     0.00000000     0.00000000
     0.00000000     0.00000000     0.00000000
     0.00000000     0.00000000     0.00000000
     0.00000000     0.00000000     0.00000000
     0.00000000     0.00000000     0.00000000
     0.00000000     0.00000000     0.00000000
     0.00000000     0.00000000     0.00000000
     0.00000000     0.00000000     0.00000000
     0.00000000     0.00000000     0.00000000
     0.00000000     0.00000000     0.00000000
--------------------------------------------------

WARNING!
-> SCC is NOT converged, maximal SCC iterations exceeded

--------------------------------------------------------------------------------
DFTB+ running times                          cpu [s]             wall clock [s]
--------------------------------------------------------------------------------
SCC                                    +     1.42  ( 78.3%)      1.42  ( 78.2%)
      Sparse to dense                        0.07  (  4.1%)      0.08  (  4.4%)
      Dense to sparse                        0.25  ( 13.9%)      0.24  ( 13.1%)
      Range separated Hamiltonian            0.12  (  6.9%)      0.12  (  6.8%)
  Density matrix creation                    0.15  (  8.5%)      0.16  (  8.8%)
  Force calculation                          0.39  ( 21.6%)      0.39  ( 21.6%)
--------------------------------------------------------------------------------
Missing                                +     0.39  ( 21.7%)      0.40  ( 21.8%)
Total                                  =     1.81  (100.0%)      1.82  (100.0%)
--------------------------------------------------------------------------------
