     6
  Step:     0            Position(A)                                  Velocity(au)
C        -0.04085660     0.01249666     0.02309426     0.00006330    -0.00013217     0.00032013
N        -0.04175321    -0.06329773     1.28520924    -0.00005968     0.00006698    -0.00030177
H         0.94218853     0.03724353    -0.49756699    -0.00040504     0.00025113    -0.00014896
H         0.77717042    -0.07802422     1.82658189     0.00052716     0.00005701     0.00075291
H        -0.91800314     0.00162827     1.93477914     0.00021641    -0.00029168    -0.00031259
H        -0.94722655     0.10007152    -0.50666453    -0.00026352     0.00062767     0.00008740
     6
  Step:     1            Position(A)                                  Velocity(au)
C        -0.04046160     0.01177110     0.02445156     0.00008048    -0.00013333     0.00017520
N        -0.04215918    -0.06297156     1.28392369    -0.00008741     0.00005221    -0.00016700
H         0.93995055     0.03875127    -0.49835691    -0.00040890     0.00030113    -0.00014028
H         0.78083455    -0.07757610     1.83106728     0.00079732     0.00010748     0.00087613
H        -0.91646765     0.00013876     1.93261039     0.00034131    -0.00025202    -0.00047917
H        -0.94925374     0.10371825    -0.50650072    -0.00047409     0.00070660    -0.00002377
     6
  Step:     2            Position(A)                                  Velocity(au)
C        -0.03997639     0.01103850     0.02501037     0.00009609    -0.00013479     0.00002869
N        -0.04270921    -0.06272675     1.28338283    -0.00011212     0.00003731    -0.00003005
H         0.93771645     0.04053693    -0.49910117    -0.00040386     0.00035280    -0.00013277
H         0.78589054    -0.07684875     1.83616393     0.00103401     0.00015893     0.00097567
H        -0.91427035    -0.00112798     1.92953858     0.00045697    -0.00021041    -0.00064136
H        -0.95241156     0.10779943    -0.50692446    -0.00067412     0.00078631    -0.00012593
     6
  Step:     3            Position(A)                                  Velocity(au)
C        -0.03941100     0.01029732     0.02476525     0.00010961    -0.00013648    -0.00011834
N        -0.04338505    -0.06256360     1.28359516    -0.00013321     0.00002239     0.00010790
H         0.93553477     0.04260878    -0.49980856    -0.00039001     0.00040583    -0.00012721
H         0.79214035    -0.07583832     1.84173521     0.00123244     0.00021087     0.00104932
H        -0.91147114    -0.00216190     1.92559779     0.00055986    -0.00016690    -0.00079530
H        -0.95662449     0.11231569    -0.50787761    -0.00085724     0.00086534    -0.00021614
     6
  Step:     4            Position(A)                                  Velocity(au)
C        -0.03877808     0.00954638     0.02371654     0.00012057    -0.00013829    -0.00026458
N        -0.04416559    -0.06248197     1.28456251    -0.00015016     0.00000753     0.00024537
H         0.93345254     0.04497381    -0.50049191    -0.00036763     0.00045982    -0.00012425
H         0.79936460    -0.07454329     1.84763603     0.00138892     0.00026276     0.00109572
H        -0.90814948    -0.00295264     1.92084362     0.00064600    -0.00012136    -0.00093657
H        -0.96178366     0.11726009    -0.50928746    -0.00101737     0.00094200    -0.00029193
     6
  Step:     5            Position(A)                                  Velocity(au)
C        -0.03809257     0.00878508     0.02187191     0.00012855    -0.00014007    -0.00040829
N        -0.04502706    -0.06248129     1.28627838    -0.00016244    -0.00000717     0.00038044
H         0.93151460     0.04763706    -0.50116726    -0.00033716     0.00051415    -0.00012439
H         0.80732876    -0.07296494     1.85371735     0.00150084     0.00031388     0.00111432
H        -0.90440691    -0.00348904     1.91535610     0.00071088    -0.00007372    -0.00106009
H        -0.96774986     0.12261686    -0.51106994    -0.00114909     0.00101431    -0.00035148
     6
  Step:     6            Position(A)                                  Velocity(au)
C        -0.03737138     0.00801365     0.01924869     0.00013323    -0.00014163    -0.00054719
N        -0.04594314    -0.06256041     1.28872563    -0.00016958    -0.00002155     0.00051071
H         0.92976306     0.05060010    -0.50185305    -0.00029915     0.00056788    -0.00012796
H         0.81578811    -0.07110855     1.85982988     0.00156652     0.00036325     0.00110527
H        -0.90037039    -0.00375938     1.90924326     0.00074958    -0.00002404    -0.00116032
H        -0.97435801     0.12835956    -0.51313362    -0.00124796     0.00107995    -0.00039378
     6
  Step:     7            Position(A)                                  Velocity(au)
C        -0.03663290     0.00723335     0.01587664     0.00013436    -0.00014275    -0.00067850
N        -0.04688506    -0.06271738     1.29187400    -0.00017116    -0.00003541     0.00063333
H         0.92823696     0.05385905    -0.50256928    -0.00025423     0.00061970    -0.00013515
H         0.82449226    -0.06898503     1.86582725     0.00158535     0.00040960     0.00106948
H        -0.89619415    -0.00375248     1.90264313     0.00075719     0.00002735    -0.00123167
H        -0.98142313     0.13444930    -0.51538435    -0.00131088     0.00113637    -0.00041873
     6
  Step:     8            Position(A)                                  Velocity(au)
C        -0.03589646     0.00644672     0.01180077     0.00013187    -0.00014319    -0.00079902
N        -0.04782202    -0.06294912     1.29567778    -0.00016691    -0.00004851     0.00074514
H         0.92697239     0.05740256    -0.50333665    -0.00020305     0.00066800    -0.00014597
H         0.83319064    -0.06661238     1.87156961     0.00155804     0.00045147     0.00100863
H        -0.89205871    -0.00345912     1.89572316     0.00072945     0.00007988    -0.00126913
H        -0.98874758     0.14083354    -0.51773007    -0.00133636     0.00118099    -0.00042718
     6
  Step:     9            Position(A)                                  Velocity(au)
C        -0.03518171     0.00565758     0.00708335     0.00012578    -0.00014274    -0.00090543
N        -0.04872190    -0.06325127     1.30007435    -0.00015673    -0.00006059     0.00084294
H         0.92600241     0.06121040    -0.50417568    -0.00014636     0.00071108    -0.00016024
H         0.84163857    -0.06401654     1.87692729     0.00148684     0.00048741     0.00092532
H        -0.88816653    -0.00287337     1.88867629     0.00066343     0.00013274    -0.00126895
H        -0.99612984     0.14744617    -0.52008554    -0.00132477     0.00121154    -0.00042084
     6
  Step:    10            Position(A)                                  Velocity(au)
C        -0.03450778     0.00487088     0.00180453     0.00011634    -0.00014124    -0.00099467
N        -0.04955238    -0.06361804     1.30498410    -0.00014083    -0.00007139     0.00092386
H         0.92535651     0.06525315    -0.50510574    -0.00008510     0.00074742    -0.00017763
H         0.84960576    -0.06123124     1.88178545     0.00137591     0.00051615     0.00082316
H        -0.88473425    -0.00199361     1.88171362     0.00055822     0.00018502    -0.00122935
H        -1.00337347     0.15420935    -0.52237628    -0.00127828     0.00122640    -0.00040202
     6
  Step:    11            Position(A)                                  Velocity(au)
C        -0.03389247     0.00409240    -0.00393949     0.00010393    -0.00013863    -0.00106449
N        -0.05028260    -0.06404238     1.31031249    -0.00011977    -0.00008072     0.00098586
H         0.92505933     0.06949326    -0.50614411    -0.00002044     0.00077593    -0.00019765
H         0.85688627    -0.05829662     1.88604952     0.00123140     0.00053689     0.00070675
H        -0.88198036    -0.00082299     1.87505271     0.00041566     0.00023582    -0.00115130
H        -1.01029566     0.16103704    -0.52454069    -0.00120078     0.00122494    -0.00037333
     6
  Step:    12            Position(A)                                  Velocity(au)
C        -0.03335125     0.00332820    -0.01004099     0.00008914    -0.00013499    -0.00111396
N        -0.05088514    -0.06451626     1.31595473    -0.00009445    -0.00008848     0.00102822
H         0.92512909     0.07388763    -0.50730519     0.00004621     0.00079628    -0.00021976
H         0.86330869    -0.05525673     1.88965009     0.00106119     0.00054950     0.00058140
H        -0.88010880     0.00063063     1.86890208     0.00024062     0.00028442    -0.00103881
H        -1.01673564     0.16784045    -0.52653066    -0.00109763     0.00120787    -0.00033734
     6
  Step:    13            Position(A)                                  Velocity(au)
C        -0.03289638     0.00258394    -0.01638796     0.00007265    -0.00013051    -0.00114393
N        -0.05133812    -0.06503118     1.32180278    -0.00006611    -0.00009472     0.00105185
H         0.92557569     0.07839162    -0.50859990     0.00011325     0.00080909    -0.00024339
H         0.86874505    -0.05215594     1.89254669     0.00087429     0.00055464     0.00045275
H        -0.87929146     0.00235536     1.86344401     0.00004066     0.00033036    -0.00089886
H        -1.02256164     0.17453495    -0.52831049    -0.00097528     0.00117733    -0.00029642
     6
  Step:    14            Position(A)                                  Velocity(au)
C        -0.03253622     0.00186414    -0.02287377     0.00005523    -0.00012553    -0.00115708
N        -0.05162678    -0.06557888     1.32775463    -0.00003608    -0.00009963     0.00105949
H         0.92639959     0.08296417    -0.51003554     0.00017920     0.00081599    -0.00026805
H         0.87311664    -0.04903465     1.89472917     0.00067986     0.00055376     0.00032609
H        -0.87965268     0.00433669     1.85881851    -0.00017503     0.00037365    -0.00074040
H        -1.02767652     0.18104792    -0.52985594    -0.00084076     0.00113681    -0.00025293
     6
  Step:    15            Position(A)                                  Velocity(au)
C        -0.03227498     0.00117152    -0.02940730     0.00003753    -0.00012044    -0.00115751
N        -0.05174409    -0.06615216     1.33372405    -0.00000563    -0.00010350     0.00105514
H         0.92759200     0.08757300    -0.51161594     0.00024282     0.00081928    -0.00029333
H         0.87639479    -0.04592510     1.89621584     0.00048608     0.00054885     0.00020575
H        -0.88126087     0.00655967     1.85511307    -0.00039717     0.00041473    -0.00057291
H        -1.03202179     0.18732623    -0.53115645    -0.00070081     0.00109060    -0.00020921
     6
  Step:    16            Position(A)                                  Velocity(au)
C        -0.03211318     0.00050666    -0.03592031     0.00003295    -0.00018961    -0.00188560
N        -0.05169019    -0.06674550     1.33964734     0.00003971    -0.00017503     0.00171085
H         0.92913642     0.09219847    -0.51334176     0.00049739     0.00134726    -0.00052305
H         0.87859532    -0.04284846     1.89704826     0.00049065     0.00088896     0.00015536
H        -0.88412931     0.00901124     1.85236112    -0.00101288     0.00074513    -0.00066396
H        -1.03557546     0.19334029    -0.53221402    -0.00091978     0.00171031    -0.00027405
     6
  Step:    17            Position(A)                                  Velocity(au)
C        -0.03196251    -0.00054860    -0.04613997     0.00002031    -0.00018192    -0.00170811
N        -0.05139462    -0.06770298     1.34895680     0.00006316    -0.00016178     0.00156209
H         0.93224606     0.09967171    -0.51667160     0.00059120     0.00128290    -0.00064241
H         0.88086136    -0.03799477     1.89765393     0.00031369     0.00081922     0.00006474
H        -0.89038600     0.01313074     1.84920910    -0.00117953     0.00070461    -0.00045083
H        -1.04059752     0.20277359    -0.53392796    -0.00084513     0.00160920    -0.00032505
     6
  Step:    18            Position(A)                                  Velocity(au)
C        -0.03188204    -0.00156393    -0.05536198     0.00000446    -0.00009321    -0.00081609
N        -0.05097126    -0.06858692     1.35742704     0.00004476    -0.00007927     0.00075282
H         0.93586540     0.10680034    -0.52065361     0.00035853     0.00065114    -0.00039923
H         0.88216568    -0.03352415     1.89778514     0.00008152     0.00040079    -0.00000607
H        -0.89755465     0.01703112     1.84722973    -0.00070604     0.00035464    -0.00013523
H        -1.04519467     0.21165612    -0.53591376    -0.00040922     0.00080564    -0.00019642
     6
  Step:    19            Position(A)                                  Velocity(au)
C        -0.03190472    -0.00207976    -0.05993226    -0.00001197    -0.00009006    -0.00080562
N        -0.05064334    -0.06904374     1.36162602     0.00007034    -0.00008277     0.00073733
H         0.93801370     0.11049872    -0.52295708     0.00040070     0.00066176    -0.00041738
H         0.88216612    -0.03127319     1.89751963    -0.00007426     0.00039853    -0.00008298
H        -0.90209817     0.01915816     1.84689263    -0.00089597     0.00039921     0.00000856
H        -1.04708676     0.21607449    -0.53689869    -0.00026544     0.00076385    -0.00015463
     6
  Step:    20            Position(A)                                  Velocity(au)
C        -0.03201679    -0.00257821    -0.06443475    -0.00002746    -0.00008794    -0.00080048
N        -0.05017907    -0.06951903     1.36573074     0.00009384    -0.00008672     0.00072711
H         0.94037805     0.11425293    -0.52535406     0.00043942     0.00067789    -0.00043676
H         0.88132938    -0.02903594     1.89685059    -0.00021674     0.00040021    -0.00015040
H        -0.90764488     0.02152698     1.84732611    -0.00107041     0.00044477     0.00013826
H        -1.04818399     0.22025845    -0.53765520    -0.00012911     0.00073016    -0.00011683
     6
  Step:    21            Position(A)                                  Velocity(au)
C        -0.03221232    -0.00306490    -0.06889931    -0.00004193    -0.00008642    -0.00079741
N        -0.04959215    -0.07001521     1.36977124     0.00011460    -0.00009081     0.00071926
H         0.94293619     0.11809257    -0.52784975     0.00047261     0.00069668    -0.00045540
H         0.87973816    -0.02679002     1.89583481    -0.00034456     0.00040441    -0.00020758
H        -0.91408901     0.02414049     1.84844143    -0.00122182     0.00048943     0.00025237
H        -1.04853304     0.22425387    -0.53820738     0.00000088     0.00070129    -0.00008252
     6
  Step:    22            Position(A)                                  Velocity(au)
C        -0.03248497    -0.00354316    -0.07333803    -0.00005519    -0.00008522    -0.00079415
N        -0.04889952    -0.07053299     1.37376144     0.00013194    -0.00009479     0.00071176
H         0.94565483     0.12203148    -0.53043873     0.00049840     0.00071589    -0.00047172
H         0.87748227    -0.02452058     1.89453297    -0.00045518     0.00041023    -0.00025324
H        -0.92128676     0.02699160     1.85014387    -0.00134329     0.00053147     0.00034895
H        -1.04817414     0.22808854    -0.53857651     0.00012415     0.00067517    -0.00005171
     6
  Step:    23            Position(A)                                  Velocity(au)
C        -0.03282740    -0.00401473    -0.07775041    -0.00006699    -0.00008415    -0.00078926
N        -0.04812161    -0.07107169     1.37770403     0.00014526    -0.00009847     0.00070333
H         0.94849098     0.12607134    -0.53310720     0.00051536     0.00073391    -0.00048457
H         0.87466501    -0.02221782     1.89301242    -0.00054569     0.00041716    -0.00028603
H        -0.92906042     0.03006392     1.85233059    -0.00142956     0.00056945     0.00042638
H        -1.04714932     0.23177890    -0.53878374     0.00023948     0.00065069    -0.00002472
     6
  Step:    24            Position(A)                                  Velocity(au)
C        -0.03323103    -0.00448038    -0.08212806    -0.00007711    -0.00008311    -0.00078191
N        -0.04728172    -0.07162971     1.38159450     0.00015413    -0.00010175     0.00069324
H         0.95139438     0.13020507    -0.53583543     0.00052255     0.00074963    -0.00049323
H         0.87140490    -0.01987463     1.89134749    -0.00061340     0.00042498    -0.00030479
H        -0.93720783     0.03333359     1.85489246    -0.00147749     0.00060230     0.00048377
H        -1.04550708     0.23533530    -0.53885176     0.00034526     0.00062737    -0.00000195
     6
  Step:    25            Position(A)                                  Velocity(au)
C        -0.03368611    -0.00494027    -0.08645809    -0.00008536    -0.00008203    -0.00077174
N        -0.04640513    -0.07220482     1.38542419     0.00015833    -0.00010456     0.00068111
H         0.95431030     0.13441951    -0.53859998     0.00051954     0.00076233    -0.00049731
H         0.86783402    -0.01748506     1.88961813    -0.00065624     0.00043368    -0.00030879
H        -0.94551424     0.03677129     1.85771806    -0.00148615     0.00062932     0.00052116
H        -1.04330441     0.23876551    -0.53880544     0.00043985     0.00060516     0.00001615
     6
  Step:    26            Position(A)                                  Velocity(au)
C        -0.03418199    -0.00539426    -0.09072550    -0.00009162    -0.00008091    -0.00075869
N        -0.04551791    -0.07279452     1.38918222     0.00015783    -0.00010689     0.00066683
H         0.95718223     0.13869763    -0.54137562     0.00050635     0.00077159    -0.00049674
H         0.86409418    -0.01504326     1.88790750    -0.00067304     0.00044338    -0.00029776
H        -0.95376400     0.04034439     1.86069828    -0.00145662     0.00065020     0.00053938
H        -1.04060700     0.24207696    -0.53867189     0.00052178     0.00058427     0.00002918
     6
  Step:    27            Position(A)                                  Velocity(au)
C        -0.03470734    -0.00584213    -0.09491497    -0.00009580    -0.00007974    -0.00074293
N        -0.04464588    -0.07339625     1.39285712     0.00015281    -0.00010876     0.00065050
H         0.95995446     0.14302024    -0.54413701     0.00048342     0.00077729    -0.00049170
H         0.86033183    -0.01254285     1.88629912    -0.00066361     0.00045426    -0.00027199
H        -0.96175076     0.04401886     1.86373041    -0.00139163     0.00066494     0.00054003
H        -1.03748827     0.24527821    -0.53848021     0.00058986     0.00056507     0.00003685
     6
  Step:    28            Position(A)                                  Velocity(au)
C        -0.03525057    -0.00628372    -0.09901214    -0.00009792    -0.00007857    -0.00072481
N        -0.04381345    -0.07400760     1.39643790     0.00014363    -0.00011023     0.00063236
H         0.96257430     0.14736754    -0.54686003     0.00045152     0.00077951    -0.00048256
H         0.85669226    -0.00997648     1.88487372    -0.00062880     0.00046655    -0.00023231
H        -0.96928627     0.04776116     1.86672179    -0.00129520     0.00067387     0.00052521
H        -1.03402768     0.24837973    -0.53826091     0.00064330     0.00054799     0.00003897
     6
  Step:    29            Position(A)                                  Velocity(au)
C        -0.03580016    -0.00671899    -0.10300446    -0.00009801    -0.00007741    -0.00070475
N        -0.04304284    -0.07462647     1.39991484     0.00013076    -0.00011136     0.00061274
H         0.96499379     0.15172031    -0.54952286     0.00041164     0.00077852    -0.00046985
H         0.85331389    -0.00733576     1.88370635    -0.00057045     0.00048047    -0.00018003
H        -0.97620640     0.05153983     1.86959218    -0.00117211     0.00067751     0.00049732
H        -1.03030845     0.25139430    -0.53804529     0.00068170     0.00053350     0.00003548
     6
  Step:    30            Position(A)                                  Velocity(au)
C        -0.03634495    -0.00714815    -0.10688177    -0.00009617    -0.00007633    -0.00068323
N        -0.04235336    -0.07525114     1.40328013     0.00011477    -0.00011225     0.00059203
H         0.96717089     0.15606086    -0.55210663     0.00036494     0.00077467    -0.00045415
H         0.85032235    -0.00461133     1.88286344    -0.00049134     0.00049619    -0.00011691
H        -0.98237468     0.05532662     1.87227510    -0.00102751     0.00067658     0.00045890
H        -1.02641542     0.25433705    -0.53786472     0.00070505     0.00052200     0.00002643
     6
  Step:    31            Position(A)                                  Velocity(au)
C        -0.03687442    -0.00757162    -0.11063640    -0.00009255    -0.00007536    -0.00066069
N        -0.04176087    -0.07588037     1.40652807     0.00009629    -0.00011298     0.00057062
H         0.96907030     0.16037368    -0.55459587     0.00031264     0.00076842    -0.00043608
H         0.84782544    -0.00179317     1.88240045    -0.00039502     0.00051379    -0.00004505
H        -0.98768400     0.05909742     1.87471831    -0.00086659     0.00067186     0.00041249
H        -1.02243277     0.25722519    -0.53775008     0.00071368     0.00051382     0.00001197
     6
  Step:    32            Position(A)                                  Velocity(au)
C        -0.03737892    -0.00799004    -0.11426313    -0.00008730    -0.00007453    -0.00063754
N        -0.04127757    -0.07651332     1.40965515     0.00007600    -0.00011361     0.00054886
H         0.97066371     0.16464576    -0.55697857     0.00025595     0.00076021    -0.00041624
H         0.84590915     0.00112885     1.88236012    -0.00028559     0.00053327     0.00003320
H        -0.99205637     0.06283272     1.87688348    -0.00069436     0.00066420     0.00036046
H        -1.01844207     0.26007751    -0.53773104     0.00070822     0.00050918    -0.00000766
     6
  Step:    33            Position(A)                                  Velocity(au)
C        -0.03784978    -0.00840426    -0.11775894    -0.00008062    -0.00007388    -0.00061411
N        -0.04091184    -0.07714960     1.41265991     0.00005455    -0.00011422     0.00052710
H         0.97192976     0.16886669    -0.55924607     0.00019607     0.00075049    -0.00039519
H         0.84463491     0.00416442     1.88277132    -0.00016753     0.00055446     0.00011534
H        -0.99544134     0.06651782     1.87874527    -0.00051542     0.00065444     0.00030498
H        -1.01452060     0.26291371    -0.53783561     0.00068954     0.00050817    -0.00003211
     6
  Step:    34            Position(A)                                  Velocity(au)
C        -0.03827942    -0.00881526    -0.12112261    -0.00007269    -0.00007342    -0.00059065
N        -0.04066830    -0.07778912     1.41554271     0.00003258    -0.00011485     0.00050559
H         0.97285376     0.17302863    -0.56139273     0.00013412     0.00073968    -0.00037340
H         0.84403786     0.00732206     1.88364847    -0.00004554     0.00057709     0.00019884
H        -0.99781356     0.07014271     1.88029004    -0.00033393     0.00064338     0.00024799
H        -1.01074000     0.26575367    -0.53808967     0.00065871     0.00051072    -0.00006099
     6
  Step:    35            Position(A)                                  Velocity(au)
C        -0.03866144    -0.00922409    -0.12435436    -0.00006372    -0.00007316    -0.00056737
N        -0.04054800    -0.07843205     1.41830543     0.00001073    -0.00011554     0.00048455
H         0.97342736     0.17712617    -0.56341554     0.00007117     0.00072816    -0.00035129
H         0.84412636     0.01060835     1.88499158     0.00007568     0.00060072     0.00028117
H        -0.99917012     0.07370196     1.88151442    -0.00015361     0.00063179     0.00019118
H        -1.00716526     0.26861662    -0.53851660     0.00061695     0.00051664    -0.00009383
     6
  Step:    36            Position(A)                                  Velocity(au)
C        -0.03899067    -0.00963181    -0.12745540    -0.00005395    -0.00007308    -0.00054436
N        -0.04054854    -0.07907874     1.42095115    -0.00001043    -0.00011631     0.00046415
H         0.97364818     0.18115620    -0.56531372     0.00000826     0.00071633    -0.00032919
H         0.84488263     0.01402720     1.88678678     0.00019165     0.00062482     0.00035996
H        -0.99952812     0.07719455     1.88242398     0.00002218     0.00062044     0.00013604
H        -1.00385373     0.27152027    -0.53913696     0.00056569     0.00052554    -0.00013011
     6
  Step:    37            Position(A)                                  Velocity(au)
C        -0.03926328    -0.01003946    -0.13042760    -0.00004360    -0.00007319    -0.00052171
N        -0.04066439    -0.07972964     1.42348374    -0.00003036    -0.00011716     0.00044446
H         0.97351955     0.18511791    -0.56708821    -0.00005361     0.00070458    -0.00030737
H         0.84626448     0.01757917     1.88900748     0.00029819     0.00064867     0.00043306
H        -0.99892266     0.08062389     1.88303213     0.00019038     0.00061011     0.00008386
H        -1.00085413     0.27447984    -0.53996821     0.00050650     0.00053688    -0.00016927
     6
  Step:    38            Position(A)                                  Velocity(au)
C        -0.03947684    -0.01044795    -0.13327300    -0.00003295    -0.00007345    -0.00049939
N        -0.04088712    -0.08038522     1.42590738    -0.00004857    -0.00011811     0.00042551
H         0.97305033     0.18901305    -0.56874126    -0.00011346     0.00069342    -0.00028600
H         0.84820780     0.02126062     1.89161588     0.00039167     0.00067144     0.00049863
H        -0.99740519     0.08399800     1.88335912     0.00034815     0.00060170     0.00003580
H        -0.99820573     0.27750702    -0.54102454     0.00044112     0.00054988    -0.00021074
     6
  Step:    39            Position(A)                                  Velocity(au)
C        -0.03963050    -0.01085808    -0.13599365    -0.00002229    -0.00007383    -0.00047740
N        -0.04120567    -0.08104600     1.42822635    -0.00006458    -0.00011914     0.00040729
H         0.97225496     0.19284652    -0.57027585    -0.00017023     0.00068354    -0.00026513
H         0.85062987     0.02506280     1.89456507     0.00046904     0.00069204     0.00055525
H        -0.99504230     0.08733022     1.88343113     0.00049285     0.00059627    -0.00000717
H        -0.99593760     0.28060863    -0.54231704     0.00037142     0.00056351    -0.00025402
     6
  Step:    40            Position(A)                                  Velocity(au)
C        -0.03972519    -0.01127048    -0.13859142    -0.00001200    -0.00007432    -0.00045566
N        -0.04160658    -0.08171245     1.43044470    -0.00007798    -0.00012025     0.00038971
H         0.97115387     0.19662795    -0.57169489    -0.00022272     0.00067611    -0.00024464
H         0.85343310     0.02897019     1.89780156     0.00052794     0.00070891     0.00060199
H        -0.99191463     0.09064068     1.88327921     0.00062199     0.00059536    -0.00004430
H        -0.99406800     0.28378474    -0.54385446     0.00029938     0.00057621    -0.00029891
     6
  Step:    41            Position(A)                                  Velocity(au)
C        -0.03976415    -0.01168564    -0.14106764    -0.00000262    -0.00007490    -0.00043392
N        -0.04207397    -0.08238503     1.43256593    -0.00008826    -0.00012143     0.00037256
H         0.96977491     0.20037538    -0.57300001    -0.00026905     0.00067369    -0.00022407
H         0.85650875     0.03295682     1.90126847     0.00056660     0.00071915     0.00063872
H        -0.98811619     0.09395987     1.88293784     0.00073312     0.00060175    -0.00007525
H        -0.99260390     0.28702503    -0.54564552     0.00022702     0.00058530    -0.00034610
     6
  Step:    42            Position(A)                                  Velocity(au)
C        -0.03975440    -0.01210417    -0.14342133     0.00000457    -0.00007583    -0.00041029
N        -0.04258895    -0.08306405     1.43459167    -0.00009449    -0.00012250     0.00035450
H         0.96815911     0.20412675    -0.57418901    -0.00030373     0.00068449    -0.00020276
H         0.85973994     0.03697501     1.90491110     0.00058347     0.00071432     0.00066737
H        -0.98375431     0.09733875     1.88244165     0.00082328     0.00062254    -0.00010086
H        -0.99154102     0.29029967    -0.54770693     0.00015564     0.00058447    -0.00040094
     6
  Step:    43            Position(A)                                  Velocity(au)
C        -0.03971331    -0.01252934    -0.14563283     0.00000693    -0.00008043    -0.00036468
N        -0.04312536    -0.08374802     1.43651032    -0.00009490    -0.00012125     0.00032145
H         0.96639540     0.20799153    -0.57525603    -0.00029564     0.00073257    -0.00020114
H         0.86300083     0.04090484     1.90869408     0.00057884     0.00067296     0.00069619
H        -0.97895584     0.10088669     1.88181556     0.00088467     0.00066110    -0.00012025
H        -0.99087213     0.29352824    -0.55010670     0.00006831     0.00057664    -0.00049618
     6
  Step:    44            Position(A)                                  Velocity(au)
C        -0.03967738    -0.01299874    -0.14747752     0.00000760    -0.00009051    -0.00028790
N        -0.04364443    -0.08441260     1.43816698    -0.00009183    -0.00011644     0.00026685
H         0.96487089     0.21227474    -0.57642615    -0.00024155     0.00079909    -0.00024348
H         0.86617808     0.04446004     1.91265440     0.00055862     0.00061699     0.00072122
H        -0.97391459     0.10469179     1.88110422     0.00091671     0.00068545    -0.00012412
H        -0.99078119     0.29671330    -0.55322568    -0.00004830     0.00059505    -0.00063118
     6