|===============================================================================
|
|  DFTB+ release 20.1
|
|  Copyright (C) 2006 - 2020  DFTB+ developers group
|
|===============================================================================
|
|  When publishing results obtained with DFTB+, please cite the following
|  reference:
|
|  * DFTB+, a software package for efficient approximate density functional
|    theory based atomistic simulations, J. Chem. Phys. 152, 124101 (2020).
|    [doi: 10.1063/1.5143190]
|
|  You should also cite additional publications crediting the parametrization
|  data you use. Please consult the documentation of the SK-files for the
|  references.
|
|===============================================================================

Reading input file 'dftb_in.hsd'
Parser version: 8

--------------------------------------------------------------------------------
Reading SK-files:
Done.


Processed input in HSD format written to 'dftb_pin.hsd'

Starting initialization...
--------------------------------------------------------------------------------
OpenMP threads:              1
Chosen random seed:          449651144
Mode:                        Static calculation
Self consistent charges:     Yes
SCC-tolerance:                 0.100000E-05
Max. scc iterations:                   1000
Shell resolved Hubbard:      No
Spin polarisation:           No
Nr. of up electrons:             6.000000
Nr. of down electrons:           6.000000
Periodic boundaries:         No
Electronic solver:           Relatively robust
Maximal SCC-cycles:                    1000
Initial charges:             Set automatically (system chrg:   0.100E+01)
Included shells:             C:  s, p
                             N:  s, p
                             H:  s
Spin coupling constants:     C   1(s)-1(s):  -0.455900E-01
                             C   1(s)-2(p):  -0.293000E-01
                             C   2(p)-1(s):  -0.293000E-01
                             C   2(p)-2(p):  -0.275500E-01
                             N   1(s)-1(s):  -0.468700E-01
                             N   1(s)-2(p):  -0.317000E-01
                             N   2(p)-1(s):  -0.317000E-01
                             N   2(p)-2(p):  -0.307200E-01
                             H   1(s)-1(s):  -0.792500E-01
Range separated hybrid:      Yes
  Screening parameter omega:   0.300000E+00
  Range separated algorithm:   MatrixBased
Extra options:
                             Mulliken analysis
                             Force calculation
Force type                   original
                             Eigenvector printing


REKS Calcuation:             Yes
SSR(2,2) Calcuation:         Yes
Energy Functional:           (PPS+OSS)/2
Number of Core Orbitals:                  5
Number of Active Orbitals:                2
Number of Basis:                         12
Number of States:                         2
State-Averaging Weight:          0.500000
                                 0.500000
State of Interest:                        1
Initial Guess:               Diagonalize H0 matrix
Newton-Raphson for FON opt:  Yes
NR max. Iterations:                      50
Level Shifting:              Yes
Shift Value:                     0.300000
W Scale Factor:              C  =    3.200000
                             N  =    3.200000
                             H  =    3.200000
Transition Dipole:           No
Gradient of Microstate:      No
CP-REKS Solver:              Preconditioned Conjugate-Gradient
CG max. Iterations:                     100
CG Tolerance:                  0.100000E-07
Memory for A and Hxc:        Direct Updating Without Saving
Non-Adiabatic Coupling:      Yes

--------------------------------------------------------------------------------

***  Geometry step: 0

  iSCC       reks energy        Diff energy         x_a       SCC error   
    1       -6.1901386743       0.0000000000     0.975425    1.16834546
    2       -6.1955706007      -0.0054319263     0.985020    0.04554742
    3       -6.1977012239      -0.0021306232     0.990667    0.02143003
    4       -6.1988001704      -0.0010989465     0.993684    0.01360097
    5       -6.1993880336      -0.0005878632     0.995303    0.00943902
    6       -6.1997104442      -0.0003224106     0.996218    0.00666679
    7       -6.1998934968      -0.0001830526     0.996764    0.00470689
    8       -6.2000016909      -0.0001081941     0.997106    0.00329682
    9       -6.2000683104      -0.0000666195     0.997327    0.00264126
   10       -6.2001109783      -0.0000426680     0.997474    0.00220006
   11       -6.2001393456      -0.0000283673     0.997574    0.00184298
   12       -6.2001588815      -0.0000195359     0.997642    0.00155318
   13       -6.2001727848      -0.0000139033     0.997688    0.00131723
   14       -6.2001829803      -0.0000101954     0.997719    0.00113182
   15       -6.2001906571      -0.0000076768     0.997740    0.00100512
   16       -6.2001965694      -0.0000059123     0.997753    0.00089336
   17       -6.2002012083      -0.0000046389     0.997761    0.00079502
   18       -6.2002049025      -0.0000036942     0.997765    0.00070856
   19       -6.2002078786      -0.0000029761     0.997766    0.00063251
   20       -6.2002102972      -0.0000024186     0.997765    0.00056556
   21       -6.2002122756      -0.0000019784     0.997763    0.00050650
   22       -6.2002139015      -0.0000016259     0.997760    0.00045432
   23       -6.2002152423      -0.0000013407     0.997757    0.00040810
   24       -6.2002163504      -0.0000011082     0.997753    0.00036867
   25       -6.2002172678      -0.0000009174     0.997749    0.00034367
   26       -6.2002180279      -0.0000007602     0.997745    0.00031919
   27       -6.2002186582      -0.0000006303     0.997741    0.00029557
   28       -6.2002191810      -0.0000005228     0.997737    0.00027299
   29       -6.2002196146      -0.0000004336     0.997734    0.00025159
   30       -6.2002199744      -0.0000003597     0.997730    0.00023144
   31       -6.2002202727      -0.0000002983     0.997727    0.00021258
   32       -6.2002205201      -0.0000002474     0.997724    0.00019499
   33       -6.2002207252      -0.0000002051     0.997721    0.00017865
   34       -6.2002208952      -0.0000001700     0.997719    0.00016351
   35       -6.2002210360      -0.0000001409     0.997716    0.00014953
   36       -6.2002211527      -0.0000001167     0.997714    0.00013664
   37       -6.2002212494      -0.0000000967     0.997712    0.00012478
   38       -6.2002213294      -0.0000000800     0.997710    0.00011388
   39       -6.2002213957      -0.0000000663     0.997708    0.00010389
   40       -6.2002214505      -0.0000000548     0.997707    0.00009473
   41       -6.2002214959      -0.0000000454     0.997705    0.00008634
   42       -6.2002215334      -0.0000000375     0.997704    0.00007867
   43       -6.2002215645      -0.0000000311     0.997703    0.00007166
   44       -6.2002215902      -0.0000000257     0.997702    0.00006526
   45       -6.2002216114      -0.0000000212     0.997701    0.00005942
   46       -6.2002216290      -0.0000000176     0.997700    0.00005409
   47       -6.2002216435      -0.0000000145     0.997699    0.00004922
   48       -6.2002216555      -0.0000000120     0.997698    0.00004479
   49       -6.2002216655      -0.0000000099     0.997698    0.00004075
   50       -6.2002216737      -0.0000000082     0.997697    0.00003707
   51       -6.2002216804      -0.0000000068     0.997696    0.00003372
   52       -6.2002216860      -0.0000000056     0.997696    0.00003067
   53       -6.2002216907      -0.0000000046     0.997695    0.00002789
   54       -6.2002216945      -0.0000000038     0.997695    0.00002536
   55       -6.2002216977      -0.0000000032     0.997695    0.00002306
   56       -6.2002217003      -0.0000000026     0.997694    0.00002097
   57       -6.2002217024      -0.0000000022     0.997694    0.00001906
   58       -6.2002217042      -0.0000000018     0.997694    0.00001733
   59       -6.2002217057      -0.0000000015     0.997693    0.00001576
   60       -6.2002217069      -0.0000000012     0.997693    0.00001432
   61       -6.2002217079      -0.0000000010     0.997693    0.00001302
   62       -6.2002217087      -0.0000000008     0.997693    0.00001184
   63       -6.2002217094      -0.0000000007     0.997693    0.00001076
   64       -6.2002217100      -0.0000000006     0.997692    0.00000978
   65       -6.2002217105      -0.0000000005     0.997692    0.00000889
   66       -6.2002217108      -0.0000000004     0.997692    0.00000808
   67       -6.2002217112      -0.0000000003     0.997692    0.00000734
   68       -6.2002217114      -0.0000000003     0.997692    0.00000667
   69       -6.2002217116      -0.0000000002     0.997692    0.00000606
   70       -6.2002217118      -0.0000000002     0.997692    0.00000551
   71       -6.2002217120      -0.0000000001     0.997692    0.00000501
   72       -6.2002217121      -0.0000000001     0.997691    0.00000455
   73       -6.2002217122      -0.0000000001     0.997691    0.00000414
   74       -6.2002217123      -0.0000000001     0.997691    0.00000376
   75       -6.2002217123      -0.0000000001     0.997691    0.00000342
   76       -6.2002217124      -0.0000000001     0.997691    0.00000310
   77       -6.2002217125      -0.0000000000     0.997691    0.00000282
   78       -6.2002217125      -0.0000000000     0.997691    0.00000256
   79       -6.2002217125      -0.0000000000     0.997691    0.00000233
   80       -6.2002217125      -0.0000000000     0.997691    0.00000212
   81       -6.2002217126      -0.0000000000     0.997691    0.00000192
   82       -6.2002217126      -0.0000000000     0.997691    0.00000175
   83       -6.2002217126      -0.0000000000     0.997691    0.00000159
   84       -6.2002217126      -0.0000000000     0.997691    0.00000144
   85       -6.2002217126      -0.0000000000     0.997691    0.00000131
   86       -6.2002217126      -0.0000000000     0.997691    0.00000119
   87       -6.2002217126      -0.0000000000     0.997691    0.00000108
   88       -6.2002217126      -0.0000000000     0.997691    0.00000098
  
--------------------------------------------------
 Final SA-REKS(2,2) energy:      -6.20022171
  
 State     Energy      FON(1)    FON(2)   Spin
  PPS   -6.29904301   1.995382  0.004618  0.00
  OSS   -6.10140042   1.000000  1.000000  0.00
 Trip   -6.20127162   1.000000  1.000000  1.00
--------------------------------------------------

 Lagrangian Wab:  -0.00825220 -0.00825187

--------------------------------------------------
 SSR: 2SI-2SA-REKS(2,2) Hamiltonian matrix
               PPS           OSS
   PPS    -6.29904301   -0.01109609
   OSS    -0.01109609   -6.10140042
--------------------------------------------------

----------------------------------------------------------------
 SSR: 2SI-2SA-REKS(2,2) states
                    E_n       C_{PPS}    C_{OSS}
 SSR state  1   -6.29966402  -0.998438  -0.055879
 SSR state  2   -6.10077941   0.055879  -0.998438
----------------------------------------------------------------

 unrelaxed SSR FONs for S0:  1.992274  0.007726

Total Energy:                       -6.2996640157 H         -171.4226 eV
Extrapolated to 0:                  -6.2996640157 H         -171.4226 eV

----------------------------------------------------------------------------------
 Solving CP-REKS equation for  1 state vector...
----------------------------------------------------------------------------------
  CG solver: Constructing Y initial guess
  CG solver: Iteration    1    eps =    0.000476138727
  CG solver: Iteration    2    eps =    0.000327054219
  CG solver: Iteration    3    eps =    0.000053637496
  CG solver: Iteration    4    eps =    0.000032921210
  CG solver: Iteration    5    eps =    0.000002201089
  CG solver: Iteration    6    eps =    0.000000400895
  CG solver: Iteration    7    eps =    0.000000015296
  CG solver: Iteration    8    eps =    0.000000001029
  Convergence reached in CG solver after    8 iterations
  CG solver: Calculating converged R, Z, Q2 matrix
----------------------------------------------------------------------------------

----------------------------------------------------------------------------------
 Solving CP-REKS equation for SI between  1 and  2 state vectors...
----------------------------------------------------------------------------------
  CG solver: Constructing Y initial guess
  CG solver: Iteration    1    eps =    0.008813774231
  CG solver: Iteration    2    eps =    0.005960618433
  CG solver: Iteration    3    eps =    0.001447411344
  CG solver: Iteration    4    eps =    0.000125430432
  CG solver: Iteration    5    eps =    0.000022211323
  CG solver: Iteration    6    eps =    0.000001022976
  CG solver: Iteration    7    eps =    0.000000100752
  CG solver: Iteration    8    eps =    0.000000003452
  Convergence reached in CG solver after    8 iterations
  CG solver: Calculating converged R, Z, Q2 matrix
----------------------------------------------------------------------------------

--------------------------------------------------
 Gradient Information
--------------------------------------------------
           1 st state (SSR)
    -0.09699177    -0.13008795    -0.13558441
     0.05027227    -0.00126425     0.14943406
     0.03572187     0.15105457     0.06776048
     0.01014906     0.05663414    -0.00754656
    -0.01117123    -0.06347112    -0.00117248
     0.01201980    -0.01286538    -0.07289110

           2 st state (SSR)
    -0.04945157    -0.10177313    -0.11803403
     0.02792939     0.01384445     0.09367955
     0.05123546     0.13790689     0.08943683
    -0.01785862     0.04758282    -0.01180088
     0.01015117    -0.07479095    -0.01876439
    -0.02200584    -0.02277007    -0.03451708
--------------------------------------------------
 Coupling Information
--------------------------------------------------
 between  1 and  2 states
--------------------------------------------------
 g vector - difference gradient
    -0.02414042    -0.01476606    -0.01380336
     0.01130022    -0.00762412     0.02995659
    -0.01041159     0.00681776    -0.00897436
     0.01669818     0.00496611     0.00181418
    -0.01320215     0.00558153     0.01021975
     0.01975576     0.00502478    -0.01921281

 h vector - derivative coupling
     0.00196775     0.00462824     0.04428958
    -0.00052170     0.00019856    -0.01695832
     0.02320937    -0.00180442    -0.01720568
    -0.02321188    -0.00366932     0.00290646
     0.02203286     0.00101488    -0.01218797
    -0.02347640    -0.00036794    -0.00084407

 G vector - GDV
    -0.02377010    -0.01415741    -0.00877519
     0.01117144    -0.00755435     0.02787725
    -0.00775680     0.00657384    -0.01083818
     0.01400384     0.00452566     0.00212716
    -0.01066120     0.00565992     0.00879596
     0.01701282     0.00495235    -0.01918701

 H vector - DCV - non-adiabatic coupling
     0.02337600     0.03141007     0.22904345
    -0.00894669     0.00526962    -0.10154164
     0.12181029    -0.01284112    -0.08093558
    -0.12534986    -0.02112049     0.01350471
     0.11749730     0.00193952    -0.06663268
    -0.12838703    -0.00465759     0.00656174
--------------------------------------------------


--------------------------------------------------------------------------------
DFTB+ running times                          cpu [s]             wall clock [s]
--------------------------------------------------------------------------------
SCC                                    +     0.04  ( 76.0%)      0.04  ( 71.4%)
Post-SCC processing                    +     0.01  ( 21.3%)      0.01  ( 19.6%)
  Force calculation                          0.01  ( 20.9%)      0.01  ( 19.6%)
--------------------------------------------------------------------------------
Missing                                +     0.00  (  2.7%)      0.01  (  8.9%)
Total                                  =     0.05  (100.0%)      0.06  (100.0%)
--------------------------------------------------------------------------------
