|===============================================================================
|
|  DFTB+ release 20.1
|
|  Copyright (C) 2006 - 2020  DFTB+ developers group
|
|===============================================================================
|
|  When publishing results obtained with DFTB+, please cite the following
|  reference:
|
|  * DFTB+, a software package for efficient approximate density functional
|    theory based atomistic simulations, J. Chem. Phys. 152, 124101 (2020).
|    [doi: 10.1063/1.5143190]
|
|  You should also cite additional publications crediting the parametrization
|  data you use. Please consult the documentation of the SK-files for the
|  references.
|
|===============================================================================

Reading input file 'dftb_in.hsd'
Parser version: 8

--------------------------------------------------------------------------------
Reading SK-files:
Done.


Processed input in HSD format written to 'dftb_pin.hsd'

Starting initialization...
--------------------------------------------------------------------------------
OpenMP threads:              1
Chosen random seed:          502727112
Mode:                        Static calculation
Self consistent charges:     Yes
SCC-tolerance:                 0.100000E-05
Max. scc iterations:                   1000
Shell resolved Hubbard:      No
Spin polarisation:           No
Nr. of up electrons:            16.000000
Nr. of down electrons:          16.000000
Periodic boundaries:         No
Electronic solver:           Relatively robust
Maximal SCC-cycles:                    1000
Initial charges:             Set automatically (system chrg:   0.100E+01)
Included shells:             C:  s, p
                             H:  s
                             N:  s, p
Spin coupling constants:     C   1(s)-1(s):  -0.455900E-01
                             C   1(s)-2(p):  -0.293000E-01
                             C   2(p)-1(s):  -0.293000E-01
                             C   2(p)-2(p):  -0.275500E-01
                             H   1(s)-1(s):  -0.792500E-01
                             N   1(s)-1(s):  -0.468700E-01
                             N   1(s)-2(p):  -0.317000E-01
                             N   2(p)-1(s):  -0.317000E-01
                             N   2(p)-2(p):  -0.307200E-01
Range separated hybrid:      Yes
  Screening parameter omega:   0.300000E+00
  Range separated algorithm:   MatrixBased
Extra options:
                             Mulliken analysis
                             Force calculation
Force type                   original
                             Eigenvector printing


REKS Calcuation:             Yes
SSR(2,2) Calcuation:         Yes
Energy Functional:           (PPS+OSS)/2
Number of Core Orbitals:                 15
Number of Active Orbitals:                2
Number of Basis:                         32
Number of States:                         2
State-Averaging Weight:          0.500000
                                 0.500000
State of Interest:                        1
Initial Guess:               Diagonalize H0 matrix
Newton-Raphson for FON opt:  Yes
NR max. Iterations:                      50
Level Shifting:              Yes
Shift Value:                     0.300000
W Scale Factor:              C  =    3.200000
                             H  =    3.200000
                             N  =    3.200000
Transition Dipole:           No
Gradient of Microstate:      No
CP-REKS Solver:              Preconditioned Conjugate-Gradient
CG max. Iterations:                     100
CG Tolerance:                  0.100000E-07
Memory for A and Hxc:        Direct Updating Without Saving
Non-Adiabatic Coupling:      Yes

--------------------------------------------------------------------------------

***  Geometry step: 0

  iSCC       reks energy        Diff energy         x_a       SCC error   
    1      -16.3498688129       0.0000000000     0.990810    1.21768229
    2      -16.3719573648      -0.0220885520     0.998300    0.03831038
    3      -16.3793198610      -0.0073624961     0.999606    0.02465673
    4      -16.3822898670      -0.0029700060     0.999868    0.01630431
    5      -16.3834997910      -0.0012099240     0.999937    0.01024726
    6      -16.3840205117      -0.0005207207     0.999960    0.00642934
    7      -16.3842732976      -0.0002527859     0.999970    0.00417194
    8      -16.3844150831      -0.0001417855     0.999975    0.00305966
    9      -16.3845056164      -0.0000905333     0.999978    0.00248043
   10      -16.3845695410      -0.0000639246     0.999979    0.00207527
   11      -16.3846181317      -0.0000485908     0.999980    0.00177770
   12      -16.3846570870      -0.0000389553     0.999981    0.00154951
   13      -16.3846895376      -0.0000324505     0.999982    0.00136845
   14      -16.3847173242      -0.0000277866     0.999982    0.00122106
   15      -16.3847415931      -0.0000242689     0.999982    0.00109881
   16      -16.3847630956      -0.0000215025     0.999982    0.00099595
   17      -16.3847823475      -0.0000192519     0.999983    0.00090844
   18      -16.3847997188      -0.0000173713     0.999983    0.00083330
   19      -16.3848154856      -0.0000157668     0.999983    0.00076825
   20      -16.3848298613      -0.0000143757     0.999983    0.00071153
   21      -16.3848430158      -0.0000131546     0.999983    0.00066174
   22      -16.3848550882      -0.0000120724     0.999983    0.00061776
   23      -16.3848661945      -0.0000111062     0.999983    0.00059451
   24      -16.3848764329      -0.0000102385     0.999983    0.00057752
   25      -16.3848858885      -0.0000094556     0.999984    0.00056090
   26      -16.3848946350      -0.0000087464     0.999984    0.00054469
   27      -16.3849027371      -0.0000081022     0.999984    0.00052891
   28      -16.3849102523      -0.0000075152     0.999984    0.00051360
   29      -16.3849172317      -0.0000069793     0.999984    0.00049876
   30      -16.3849237207      -0.0000064891     0.999984    0.00048441
   31      -16.3849297606      -0.0000060398     0.999984    0.00047057
   32      -16.3849353880      -0.0000056275     0.999984    0.00045722
   33      -16.3849406365      -0.0000052485     0.999984    0.00044437
   34      -16.3849455363      -0.0000048998     0.999984    0.00043201
   35      -16.3849501147      -0.0000045784     0.999984    0.00042013
   36      -16.3849543968      -0.0000042821     0.999984    0.00040871
   37      -16.3849584053      -0.0000040085     0.999984    0.00039774
   38      -16.3849621609      -0.0000037556     0.999984    0.00038720
   39      -16.3849656826      -0.0000035217     0.999985    0.00037708
   40      -16.3849689877      -0.0000033051     0.999985    0.00036735
   41      -16.3849720922      -0.0000031045     0.999985    0.00035801
   42      -16.3849750106      -0.0000029184     0.999985    0.00034903
   43      -16.3849777562      -0.0000027457     0.999985    0.00034039
   44      -16.3849803415      -0.0000025852     0.999985    0.00033209
   45      -16.3849827776      -0.0000024361     0.999985    0.00032410
   46      -16.3849850749      -0.0000022974     0.999985    0.00031641
   47      -16.3849872431      -0.0000021682     0.999985    0.00030900
   48      -16.3849892910      -0.0000020479     0.999985    0.00030186
   49      -16.3849912267      -0.0000019357     0.999985    0.00029498
   50      -16.3849930578      -0.0000018310     0.999985    0.00028834
   51      -16.3849947911      -0.0000017333     0.999985    0.00028194
   52      -16.3849964331      -0.0000016420     0.999985    0.00027576
   53      -16.3849979898      -0.0000015567     0.999985    0.00026979
   54      -16.3849994666      -0.0000014768     0.999985    0.00026402
   55      -16.3850008686      -0.0000014020     0.999985    0.00025844
   56      -16.3850022006      -0.0000013320     0.999985    0.00025304
   57      -16.3850034669      -0.0000012663     0.999985    0.00024782
   58      -16.3850046715      -0.0000012047     0.999985    0.00024277
   59      -16.3850058183      -0.0000011468     0.999985    0.00023788
   60      -16.3850069107      -0.0000010924     0.999986    0.00023313
   61      -16.3850079521      -0.0000010413     0.999986    0.00022854
   62      -16.3850089453      -0.0000009932     0.999986    0.00022408
   63      -16.3850098933      -0.0000009480     0.999986    0.00021976
   64      -16.3850107987      -0.0000009053     0.999986    0.00021556
   65      -16.3850116638      -0.0000008652     0.999986    0.00021149
   66      -16.3850124910      -0.0000008272     0.999986    0.00020754
   67      -16.3850132825      -0.0000007914     0.999986    0.00020370
   68      -16.3850140401      -0.0000007576     0.999986    0.00019996
   69      -16.3850147658      -0.0000007257     0.999986    0.00019634
   70      -16.3850154613      -0.0000006955     0.999986    0.00019281
   71      -16.3850161281      -0.0000006669     0.999986    0.00018938
   72      -16.3850167679      -0.0000006398     0.999986    0.00018604
   73      -16.3850173820      -0.0000006141     0.999986    0.00018279
   74      -16.3850179718      -0.0000005898     0.999986    0.00017963
   75      -16.3850185385      -0.0000005667     0.999986    0.00017655
   76      -16.3850190833      -0.0000005448     0.999986    0.00017355
   77      -16.3850196073      -0.0000005240     0.999986    0.00017063
   78      -16.3850201115      -0.0000005042     0.999986    0.00016778
   79      -16.3850205969      -0.0000004854     0.999986    0.00016501
   80      -16.3850210644      -0.0000004675     0.999986    0.00016242
   81      -16.3850215148      -0.0000004504     0.999986    0.00016002
   82      -16.3850219490      -0.0000004342     0.999986    0.00015767
   83      -16.3850223678      -0.0000004187     0.999986    0.00015537
   84      -16.3850227717      -0.0000004040     0.999986    0.00015311
   85      -16.3850231616      -0.0000003899     0.999986    0.00015090
   86      -16.3850235381      -0.0000003765     0.999986    0.00014873
   87      -16.3850239017      -0.0000003636     0.999986    0.00014661
   88      -16.3850242531      -0.0000003514     0.999986    0.00014453
   89      -16.3850245927      -0.0000003396     0.999986    0.00014249
   90      -16.3850249211      -0.0000003284     0.999986    0.00014048
   91      -16.3850252388      -0.0000003177     0.999986    0.00013852
   92      -16.3850255462      -0.0000003074     0.999986    0.00013660
   93      -16.3850258438      -0.0000002976     0.999987    0.00013471
   94      -16.3850261319      -0.0000002881     0.999987    0.00013286
   95      -16.3850264109      -0.0000002791     0.999987    0.00013105
   96      -16.3850266813      -0.0000002704     0.999987    0.00012927
   97      -16.3850269434      -0.0000002621     0.999987    0.00012752
   98      -16.3850271975      -0.0000002541     0.999987    0.00012581
   99      -16.3850274439      -0.0000002464     0.999987    0.00012413
  100      -16.3850276829      -0.0000002390     0.999987    0.00012248
  101      -16.3850279149      -0.0000002319     0.999987    0.00012086
  102      -16.3850281400      -0.0000002251     0.999987    0.00011927
  103      -16.3850283586      -0.0000002186     0.999987    0.00011771
  104      -16.3850285708      -0.0000002123     0.999987    0.00011618
  105      -16.3850287770      -0.0000002062     0.999987    0.00011468
  106      -16.3850289774      -0.0000002003     0.999987    0.00011321
  107      -16.3850291721      -0.0000001947     0.999987    0.00011176
  108      -16.3850293614      -0.0000001893     0.999987    0.00011034
  109      -16.3850295454      -0.0000001841     0.999987    0.00010894
  110      -16.3850297245      -0.0000001790     0.999987    0.00010757
  111      -16.3850298986      -0.0000001742     0.999987    0.00010622
  112      -16.3850300681      -0.0000001695     0.999987    0.00010490
  113      -16.3850302330      -0.0000001649     0.999987    0.00010360
  114      -16.3850303936      -0.0000001606     0.999987    0.00010233
  115      -16.3850305499      -0.0000001563     0.999987    0.00010108
  116      -16.3850307022      -0.0000001523     0.999987    0.00009985
  117      -16.3850308505      -0.0000001483     0.999987    0.00009864
  118      -16.3850309950      -0.0000001445     0.999987    0.00009745
  119      -16.3850311358      -0.0000001408     0.999987    0.00009628
  120      -16.3850312731      -0.0000001373     0.999987    0.00009513
  121      -16.3850314069      -0.0000001338     0.999987    0.00009401
  122      -16.3850315374      -0.0000001305     0.999987    0.00009290
  123      -16.3850316646      -0.0000001272     0.999987    0.00009181
  124      -16.3850317887      -0.0000001241     0.999987    0.00009074
  125      -16.3850319098      -0.0000001211     0.999987    0.00008969
  126      -16.3850320280      -0.0000001182     0.999987    0.00008865
  127      -16.3850321433      -0.0000001153     0.999987    0.00008764
  128      -16.3850322559      -0.0000001126     0.999987    0.00008664
  129      -16.3850323658      -0.0000001099     0.999987    0.00008565
  130      -16.3850324731      -0.0000001073     0.999987    0.00008469
  131      -16.3850325780      -0.0000001048     0.999987    0.00008374
  132      -16.3850326803      -0.0000001024     0.999987    0.00008280
  133      -16.3850327804      -0.0000001000     0.999987    0.00008188
  134      -16.3850328781      -0.0000000977     0.999987    0.00008098
  135      -16.3850329736      -0.0000000955     0.999987    0.00008009
  136      -16.3850330670      -0.0000000934     0.999987    0.00007921
  137      -16.3850331582      -0.0000000913     0.999987    0.00007835
  138      -16.3850332475      -0.0000000892     0.999987    0.00007750
  139      -16.3850333347      -0.0000000873     0.999987    0.00007667
  140      -16.3850334201      -0.0000000853     0.999987    0.00007585
  141      -16.3850335035      -0.0000000835     0.999987    0.00007504
  142      -16.3850335852      -0.0000000817     0.999987    0.00007425
  143      -16.3850336651      -0.0000000799     0.999987    0.00007347
  144      -16.3850337433      -0.0000000782     0.999987    0.00007270
  145      -16.3850338198      -0.0000000765     0.999987    0.00007194
  146      -16.3850338947      -0.0000000749     0.999987    0.00007119
  147      -16.3850339680      -0.0000000733     0.999987    0.00007046
  148      -16.3850340398      -0.0000000718     0.999988    0.00006974
  149      -16.3850341101      -0.0000000703     0.999988    0.00006902
  150      -16.3850341789      -0.0000000688     0.999988    0.00006832
  151      -16.3850342464      -0.0000000674     0.999988    0.00006763
  152      -16.3850343124      -0.0000000660     0.999988    0.00006695
  153      -16.3850343771      -0.0000000647     0.999988    0.00006629
  154      -16.3850344405      -0.0000000634     0.999988    0.00006563
  155      -16.3850345026      -0.0000000621     0.999988    0.00006498
  156      -16.3850345635      -0.0000000609     0.999988    0.00006434
  157      -16.3850346232      -0.0000000597     0.999988    0.00006371
  158      -16.3850346817      -0.0000000585     0.999988    0.00006309
  159      -16.3850347391      -0.0000000574     0.999988    0.00006248
  160      -16.3850347953      -0.0000000562     0.999988    0.00006187
  161      -16.3850348505      -0.0000000552     0.999988    0.00006128
  162      -16.3850349046      -0.0000000541     0.999988    0.00006069
  163      -16.3850349576      -0.0000000531     0.999988    0.00006012
  164      -16.3850350097      -0.0000000520     0.999988    0.00005955
  165      -16.3850350607      -0.0000000511     0.999988    0.00005899
  166      -16.3850351108      -0.0000000501     0.999988    0.00005844
  167      -16.3850351600      -0.0000000492     0.999988    0.00005789
  168      -16.3850352082      -0.0000000482     0.999988    0.00005736
  169      -16.3850352555      -0.0000000473     0.999988    0.00005683
  170      -16.3850353020      -0.0000000465     0.999988    0.00005631
  171      -16.3850353476      -0.0000000456     0.999988    0.00005579
  172      -16.3850353924      -0.0000000448     0.999988    0.00005529
  173      -16.3850354364      -0.0000000440     0.999988    0.00005479
  174      -16.3850354795      -0.0000000432     0.999988    0.00005429
  175      -16.3850355219      -0.0000000424     0.999988    0.00005381
  176      -16.3850355636      -0.0000000416     0.999988    0.00005333
  177      -16.3850356045      -0.0000000409     0.999988    0.00005285
  178      -16.3850356447      -0.0000000402     0.999988    0.00005239
  179      -16.3850356841      -0.0000000395     0.999988    0.00005193
  180      -16.3850357229      -0.0000000388     0.999988    0.00005147
  181      -16.3850357610      -0.0000000381     0.999988    0.00005103
  182      -16.3850357984      -0.0000000374     0.999988    0.00005058
  183      -16.3850358352      -0.0000000368     0.999988    0.00005015
  184      -16.3850358714      -0.0000000362     0.999988    0.00004972
  185      -16.3850359070      -0.0000000355     0.999988    0.00004929
  186      -16.3850359419      -0.0000000349     0.999988    0.00004888
  187      -16.3850359762      -0.0000000344     0.999988    0.00004846
  188      -16.3850360100      -0.0000000338     0.999988    0.00004805
  189      -16.3850360432      -0.0000000332     0.999988    0.00004765
  190      -16.3850360759      -0.0000000327     0.999988    0.00004725
  191      -16.3850361080      -0.0000000321     0.999988    0.00004686
  192      -16.3850361396      -0.0000000316     0.999988    0.00004647
  193      -16.3850361706      -0.0000000311     0.999988    0.00004609
  194      -16.3850362012      -0.0000000306     0.999988    0.00004571
  195      -16.3850362313      -0.0000000301     0.999988    0.00004534
  196      -16.3850362608      -0.0000000296     0.999988    0.00004497
  197      -16.3850362899      -0.0000000291     0.999988    0.00004461
  198      -16.3850363185      -0.0000000286     0.999988    0.00004425
  199      -16.3850363467      -0.0000000282     0.999988    0.00004390
  200      -16.3850363744      -0.0000000277     0.999988    0.00004355
  201      -16.3850364017      -0.0000000273     0.999988    0.00004320
  202      -16.3850364286      -0.0000000269     0.999988    0.00004286
  203      -16.3850364550      -0.0000000264     0.999988    0.00004252
  204      -16.3850364810      -0.0000000260     0.999988    0.00004219
  205      -16.3850365066      -0.0000000256     0.999988    0.00004186
  206      -16.3850365319      -0.0000000252     0.999988    0.00004154
  207      -16.3850365567      -0.0000000248     0.999988    0.00004121
  208      -16.3850365811      -0.0000000244     0.999988    0.00004090
  209      -16.3850366052      -0.0000000241     0.999988    0.00004058
  210      -16.3850366289      -0.0000000237     0.999988    0.00004027
  211      -16.3850366523      -0.0000000234     0.999988    0.00003997
  212      -16.3850366753      -0.0000000230     0.999988    0.00003967
  213      -16.3850366979      -0.0000000227     0.999988    0.00003937
  214      -16.3850367202      -0.0000000223     0.999988    0.00003907
  215      -16.3850367422      -0.0000000220     0.999988    0.00003878
  216      -16.3850367639      -0.0000000217     0.999988    0.00003849
  217      -16.3850367852      -0.0000000213     0.999988    0.00003821
  218      -16.3850368062      -0.0000000210     0.999988    0.00003792
  219      -16.3850368270      -0.0000000207     0.999988    0.00003764
  220      -16.3850368474      -0.0000000204     0.999988    0.00003737
  221      -16.3850368675      -0.0000000201     0.999988    0.00003710
  222      -16.3850368873      -0.0000000198     0.999988    0.00003683
  223      -16.3850369069      -0.0000000195     0.999988    0.00003656
  224      -16.3850369261      -0.0000000193     0.999988    0.00003630
  225      -16.3850369451      -0.0000000190     0.999988    0.00003604
  226      -16.3850369638      -0.0000000187     0.999988    0.00003578
  227      -16.3850369823      -0.0000000185     0.999988    0.00003553
  228      -16.3850370005      -0.0000000182     0.999988    0.00003527
  229      -16.3850370184      -0.0000000179     0.999988    0.00003503
  230      -16.3850370361      -0.0000000177     0.999988    0.00003478
  231      -16.3850370536      -0.0000000174     0.999988    0.00003454
  232      -16.3850370708      -0.0000000172     0.999988    0.00003430
  233      -16.3850370877      -0.0000000170     0.999988    0.00003406
  234      -16.3850371045      -0.0000000167     0.999988    0.00003382
  235      -16.3850371210      -0.0000000165     0.999988    0.00003359
  236      -16.3850371372      -0.0000000163     0.999988    0.00003336
  237      -16.3850371533      -0.0000000161     0.999988    0.00003313
  238      -16.3850371691      -0.0000000158     0.999988    0.00003290
  239      -16.3850371848      -0.0000000156     0.999988    0.00003268
  240      -16.3850372002      -0.0000000154     0.999988    0.00003246
  241      -16.3850372154      -0.0000000152     0.999988    0.00003224
  242      -16.3850372304      -0.0000000150     0.999988    0.00003203
  243      -16.3850372452      -0.0000000148     0.999988    0.00003181
  244      -16.3850372598      -0.0000000146     0.999988    0.00003160
  245      -16.3850372742      -0.0000000144     0.999988    0.00003139
  246      -16.3850372884      -0.0000000142     0.999988    0.00003118
  247      -16.3850373025      -0.0000000140     0.999988    0.00003098
  248      -16.3850373163      -0.0000000139     0.999988    0.00003077
  249      -16.3850373300      -0.0000000137     0.999988    0.00003057
  250      -16.3850373435      -0.0000000135     0.999988    0.00003037
  251      -16.3850373569      -0.0000000133     0.999988    0.00003018
  252      -16.3850373700      -0.0000000132     0.999988    0.00002998
  253      -16.3850373830      -0.0000000130     0.999988    0.00002979
  254      -16.3850373958      -0.0000000128     0.999988    0.00002960
  255      -16.3850374085      -0.0000000127     0.999988    0.00002941
  256      -16.3850374210      -0.0000000125     0.999988    0.00002922
  257      -16.3850374333      -0.0000000123     0.999989    0.00002904
  258      -16.3850374455      -0.0000000122     0.999989    0.00002885
  259      -16.3850374576      -0.0000000120     0.999989    0.00002867
  260      -16.3850374694      -0.0000000119     0.999989    0.00002849
  261      -16.3850374812      -0.0000000117     0.999989    0.00002831
  262      -16.3850374928      -0.0000000116     0.999989    0.00002814
  263      -16.3850375042      -0.0000000115     0.999989    0.00002796
  264      -16.3850375155      -0.0000000113     0.999989    0.00002779
  265      -16.3850375267      -0.0000000112     0.999989    0.00002762
  266      -16.3850375377      -0.0000000110     0.999989    0.00002745
  267      -16.3850375486      -0.0000000109     0.999989    0.00002728
  268      -16.3850375594      -0.0000000108     0.999989    0.00002712
  269      -16.3850375700      -0.0000000106     0.999989    0.00002695
  270      -16.3850375806      -0.0000000105     0.999989    0.00002679
  271      -16.3850375909      -0.0000000104     0.999989    0.00002663
  272      -16.3850376012      -0.0000000103     0.999989    0.00002647
  273      -16.3850376113      -0.0000000101     0.999989    0.00002631
  274      -16.3850376214      -0.0000000100     0.999989    0.00002615
  275      -16.3850376313      -0.0000000099     0.999989    0.00002599
  276      -16.3850376410      -0.0000000098     0.999989    0.00002584
  277      -16.3850376507      -0.0000000097     0.999989    0.00002569
  278      -16.3850376603      -0.0000000096     0.999989    0.00002554
  279      -16.3850376697      -0.0000000094     0.999989    0.00002539
  280      -16.3850376790      -0.0000000093     0.999989    0.00002524
  281      -16.3850376883      -0.0000000092     0.999989    0.00002509
  282      -16.3850376974      -0.0000000091     0.999989    0.00002494
  283      -16.3850377064      -0.0000000090     0.999989    0.00002480
  284      -16.3850377153      -0.0000000089     0.999989    0.00002466
  285      -16.3850377241      -0.0000000088     0.999989    0.00002451
  286      -16.3850377328      -0.0000000087     0.999989    0.00002437
  287      -16.3850377414      -0.0000000086     0.999989    0.00002423
  288      -16.3850377500      -0.0000000085     0.999989    0.00002410
  289      -16.3850377584      -0.0000000084     0.999989    0.00002396
  290      -16.3850377667      -0.0000000083     0.999989    0.00002382
  291      -16.3850377749      -0.0000000082     0.999989    0.00002369
  292      -16.3850377831      -0.0000000081     0.999989    0.00002356
  293      -16.3850377911      -0.0000000080     0.999989    0.00002342
  294      -16.3850377991      -0.0000000080     0.999989    0.00002329
  295      -16.3850378069      -0.0000000079     0.999989    0.00002316
  296      -16.3850378147      -0.0000000078     0.999989    0.00002303
  297      -16.3850378224      -0.0000000077     0.999989    0.00002291
  298      -16.3850378300      -0.0000000076     0.999989    0.00002278
  299      -16.3850378376      -0.0000000075     0.999989    0.00002266
  300      -16.3850378450      -0.0000000074     0.999989    0.00002253
  301      -16.3850378524      -0.0000000074     0.999989    0.00002241
  302      -16.3850378597      -0.0000000073     0.999989    0.00002229
  303      -16.3850378669      -0.0000000072     0.999989    0.00002217
  304      -16.3850378740      -0.0000000071     0.999989    0.00002205
  305      -16.3850378811      -0.0000000071     0.999989    0.00002193
  306      -16.3850378880      -0.0000000070     0.999989    0.00002181
  307      -16.3850378949      -0.0000000069     0.999989    0.00002169
  308      -16.3850379018      -0.0000000068     0.999989    0.00002158
  309      -16.3850379085      -0.0000000068     0.999989    0.00002146
  310      -16.3850379152      -0.0000000067     0.999989    0.00002135
  311      -16.3850379218      -0.0000000066     0.999989    0.00002123
  312      -16.3850379284      -0.0000000065     0.999989    0.00002112
  313      -16.3850379349      -0.0000000065     0.999989    0.00002101
  314      -16.3850379413      -0.0000000064     0.999989    0.00002090
  315      -16.3850379476      -0.0000000063     0.999989    0.00002079
  316      -16.3850379539      -0.0000000063     0.999989    0.00002068
  317      -16.3850379601      -0.0000000062     0.999989    0.00002057
  318      -16.3850379663      -0.0000000062     0.999989    0.00002047
  319      -16.3850379724      -0.0000000061     0.999989    0.00002036
  320      -16.3850379784      -0.0000000060     0.999989    0.00002026
  321      -16.3850379843      -0.0000000060     0.999989    0.00002015
  322      -16.3850379902      -0.0000000059     0.999989    0.00002005
  323      -16.3850379961      -0.0000000058     0.999989    0.00001995
  324      -16.3850380019      -0.0000000058     0.999989    0.00001985
  325      -16.3850380076      -0.0000000057     0.999989    0.00001974
  326      -16.3850380133      -0.0000000057     0.999989    0.00001964
  327      -16.3850380189      -0.0000000056     0.999989    0.00001955
  328      -16.3850380244      -0.0000000056     0.999989    0.00001945
  329      -16.3850380299      -0.0000000055     0.999989    0.00001935
  330      -16.3850380354      -0.0000000054     0.999989    0.00001925
  331      -16.3850380408      -0.0000000054     0.999989    0.00001916
  332      -16.3850380461      -0.0000000053     0.999989    0.00001906
  333      -16.3850380514      -0.0000000053     0.999989    0.00001897
  334      -16.3850380566      -0.0000000052     0.999989    0.00001887
  335      -16.3850380618      -0.0000000052     0.999989    0.00001878
  336      -16.3850380669      -0.0000000051     0.999989    0.00001869
  337      -16.3850380720      -0.0000000051     0.999989    0.00001860
  338      -16.3850380771      -0.0000000050     0.999989    0.00001850
  339      -16.3850380820      -0.0000000050     0.999989    0.00001841
  340      -16.3850380870      -0.0000000049     0.999989    0.00001832
  341      -16.3850380919      -0.0000000049     0.999989    0.00001824
  342      -16.3850380967      -0.0000000048     0.999989    0.00001815
  343      -16.3850381015      -0.0000000048     0.999989    0.00001806
  344      -16.3850381062      -0.0000000047     0.999989    0.00001797
  345      -16.3850381110      -0.0000000047     0.999989    0.00001789
  346      -16.3850381156      -0.0000000047     0.999989    0.00001780
  347      -16.3850381202      -0.0000000046     0.999989    0.00001772
  348      -16.3850381248      -0.0000000046     0.999989    0.00001763
  349      -16.3850381293      -0.0000000045     0.999989    0.00001755
  350      -16.3850381338      -0.0000000045     0.999989    0.00001747
  351      -16.3850381383      -0.0000000044     0.999989    0.00001738
  352      -16.3850381427      -0.0000000044     0.999989    0.00001730
  353      -16.3850381470      -0.0000000044     0.999989    0.00001722
  354      -16.3850381513      -0.0000000043     0.999989    0.00001714
  355      -16.3850381556      -0.0000000043     0.999989    0.00001706
  356      -16.3850381599      -0.0000000042     0.999989    0.00001698
  357      -16.3850381641      -0.0000000042     0.999989    0.00001690
  358      -16.3850381682      -0.0000000042     0.999989    0.00001682
  359      -16.3850381723      -0.0000000041     0.999989    0.00001675
  360      -16.3850381764      -0.0000000041     0.999989    0.00001667
  361      -16.3850381805      -0.0000000041     0.999989    0.00001659
  362      -16.3850381845      -0.0000000040     0.999989    0.00001652
  363      -16.3850381885      -0.0000000040     0.999989    0.00001644
  364      -16.3850381924      -0.0000000039     0.999989    0.00001637
  365      -16.3850381963      -0.0000000039     0.999989    0.00001629
  366      -16.3850382002      -0.0000000039     0.999989    0.00001622
  367      -16.3850382040      -0.0000000038     0.999989    0.00001614
  368      -16.3850382078      -0.0000000038     0.999989    0.00001607
  369      -16.3850382116      -0.0000000038     0.999989    0.00001600
  370      -16.3850382153      -0.0000000037     0.999989    0.00001593
  371      -16.3850382190      -0.0000000037     0.999989    0.00001586
  372      -16.3850382227      -0.0000000037     0.999989    0.00001579
  373      -16.3850382263      -0.0000000036     0.999989    0.00001572
  374      -16.3850382299      -0.0000000036     0.999989    0.00001565
  375      -16.3850382335      -0.0000000036     0.999989    0.00001558
  376      -16.3850382371      -0.0000000035     0.999989    0.00001551
  377      -16.3850382406      -0.0000000035     0.999989    0.00001544
  378      -16.3850382440      -0.0000000035     0.999989    0.00001537
  379      -16.3850382475      -0.0000000034     0.999989    0.00001530
  380      -16.3850382509      -0.0000000034     0.999989    0.00001524
  381      -16.3850382543      -0.0000000034     0.999989    0.00001517
  382      -16.3850382577      -0.0000000034     0.999989    0.00001511
  383      -16.3850382610      -0.0000000033     0.999989    0.00001504
  384      -16.3850382643      -0.0000000033     0.999989    0.00001498
  385      -16.3850382676      -0.0000000033     0.999989    0.00001491
  386      -16.3850382708      -0.0000000032     0.999989    0.00001485
  387      -16.3850382740      -0.0000000032     0.999989    0.00001478
  388      -16.3850382772      -0.0000000032     0.999989    0.00001472
  389      -16.3850382804      -0.0000000032     0.999989    0.00001466
  390      -16.3850382835      -0.0000000031     0.999989    0.00001459
  391      -16.3850382866      -0.0000000031     0.999989    0.00001453
  392      -16.3850382897      -0.0000000031     0.999989    0.00001447
  393      -16.3850382928      -0.0000000031     0.999989    0.00001441
  394      -16.3850382958      -0.0000000030     0.999989    0.00001435
  395      -16.3850382988      -0.0000000030     0.999989    0.00001429
  396      -16.3850383018      -0.0000000030     0.999989    0.00001423
  397      -16.3850383048      -0.0000000030     0.999989    0.00001417
  398      -16.3850383077      -0.0000000029     0.999989    0.00001411
  399      -16.3850383106      -0.0000000029     0.999989    0.00001405
  400      -16.3850383135      -0.0000000029     0.999989    0.00001399
  401      -16.3850383164      -0.0000000029     0.999989    0.00001394
  402      -16.3850383192      -0.0000000028     0.999989    0.00001388
  403      -16.3850383220      -0.0000000028     0.999989    0.00001382
  404      -16.3850383248      -0.0000000028     0.999989    0.00001376
  405      -16.3850383276      -0.0000000028     0.999989    0.00001371
  406      -16.3850383303      -0.0000000027     0.999989    0.00001365
  407      -16.3850383330      -0.0000000027     0.999989    0.00001360
  408      -16.3850383358      -0.0000000027     0.999989    0.00001354
  409      -16.3850383384      -0.0000000027     0.999989    0.00001348
  410      -16.3850383411      -0.0000000027     0.999989    0.00001343
  411      -16.3850383437      -0.0000000026     0.999989    0.00001338
  412      -16.3850383463      -0.0000000026     0.999989    0.00001332
  413      -16.3850383489      -0.0000000026     0.999989    0.00001327
  414      -16.3850383515      -0.0000000026     0.999989    0.00001322
  415      -16.3850383541      -0.0000000026     0.999989    0.00001316
  416      -16.3850383566      -0.0000000025     0.999989    0.00001311
  417      -16.3850383591      -0.0000000025     0.999989    0.00001306
  418      -16.3850383616      -0.0000000025     0.999989    0.00001301
  419      -16.3850383641      -0.0000000025     0.999989    0.00001295
  420      -16.3850383665      -0.0000000025     0.999989    0.00001290
  421      -16.3850383690      -0.0000000024     0.999989    0.00001285
  422      -16.3850383714      -0.0000000024     0.999989    0.00001280
  423      -16.3850383738      -0.0000000024     0.999989    0.00001275
  424      -16.3850383762      -0.0000000024     0.999989    0.00001270
  425      -16.3850383785      -0.0000000024     0.999989    0.00001265
  426      -16.3850383809      -0.0000000023     0.999989    0.00001260
  427      -16.3850383832      -0.0000000023     0.999989    0.00001255
  428      -16.3850383855      -0.0000000023     0.999989    0.00001250
  429      -16.3850383878      -0.0000000023     0.999989    0.00001246
  430      -16.3850383901      -0.0000000023     0.999989    0.00001241
  431      -16.3850383923      -0.0000000023     0.999989    0.00001236
  432      -16.3850383946      -0.0000000022     0.999989    0.00001231
  433      -16.3850383968      -0.0000000022     0.999989    0.00001226
  434      -16.3850383990      -0.0000000022     0.999989    0.00001222
  435      -16.3850384012      -0.0000000022     0.999989    0.00001217
  436      -16.3850384033      -0.0000000022     0.999989    0.00001212
  437      -16.3850384055      -0.0000000022     0.999989    0.00001208
  438      -16.3850384076      -0.0000000021     0.999989    0.00001203
  439      -16.3850384098      -0.0000000021     0.999989    0.00001199
  440      -16.3850384119      -0.0000000021     0.999989    0.00001194
  441      -16.3850384139      -0.0000000021     0.999989    0.00001190
  442      -16.3850384160      -0.0000000021     0.999989    0.00001185
  443      -16.3850384181      -0.0000000021     0.999989    0.00001181
  444      -16.3850384201      -0.0000000020     0.999989    0.00001176
  445      -16.3850384221      -0.0000000020     0.999989    0.00001172
  446      -16.3850384242      -0.0000000020     0.999989    0.00001168
  447      -16.3850384262      -0.0000000020     0.999989    0.00001163
  448      -16.3850384281      -0.0000000020     0.999989    0.00001159
  449      -16.3850384301      -0.0000000020     0.999989    0.00001155
  450      -16.3850384321      -0.0000000020     0.999989    0.00001150
  451      -16.3850384340      -0.0000000019     0.999989    0.00001146
  452      -16.3850384359      -0.0000000019     0.999989    0.00001142
  453      -16.3850384378      -0.0000000019     0.999989    0.00001138
  454      -16.3850384397      -0.0000000019     0.999989    0.00001134
  455      -16.3850384416      -0.0000000019     0.999989    0.00001129
  456      -16.3850384435      -0.0000000019     0.999989    0.00001125
  457      -16.3850384453      -0.0000000019     0.999989    0.00001121
  458      -16.3850384472      -0.0000000018     0.999989    0.00001117
  459      -16.3850384490      -0.0000000018     0.999989    0.00001113
  460      -16.3850384508      -0.0000000018     0.999989    0.00001109
  461      -16.3850384526      -0.0000000018     0.999989    0.00001105
  462      -16.3850384544      -0.0000000018     0.999989    0.00001101
  463      -16.3850384562      -0.0000000018     0.999989    0.00001097
  464      -16.3850384580      -0.0000000018     0.999989    0.00001093
  465      -16.3850384597      -0.0000000018     0.999989    0.00001089
  466      -16.3850384615      -0.0000000017     0.999989    0.00001085
  467      -16.3850384632      -0.0000000017     0.999989    0.00001082
  468      -16.3850384649      -0.0000000017     0.999989    0.00001078
  469      -16.3850384666      -0.0000000017     0.999989    0.00001074
  470      -16.3850384683      -0.0000000017     0.999989    0.00001070
  471      -16.3850384700      -0.0000000017     0.999989    0.00001066
  472      -16.3850384717      -0.0000000017     0.999989    0.00001063
  473      -16.3850384733      -0.0000000017     0.999989    0.00001059
  474      -16.3850384750      -0.0000000016     0.999989    0.00001055
  475      -16.3850384766      -0.0000000016     0.999989    0.00001051
  476      -16.3850384782      -0.0000000016     0.999989    0.00001048
  477      -16.3850384798      -0.0000000016     0.999989    0.00001044
  478      -16.3850384814      -0.0000000016     0.999989    0.00001040
  479      -16.3850384830      -0.0000000016     0.999989    0.00001037
  480      -16.3850384846      -0.0000000016     0.999989    0.00001033
  481      -16.3850384862      -0.0000000016     0.999989    0.00001030
  482      -16.3850384877      -0.0000000016     0.999989    0.00001026
  483      -16.3850384893      -0.0000000015     0.999989    0.00001023
  484      -16.3850384908      -0.0000000015     0.999989    0.00001019
  485      -16.3850384923      -0.0000000015     0.999989    0.00001016
  486      -16.3850384938      -0.0000000015     0.999989    0.00001012
  487      -16.3850384953      -0.0000000015     0.999989    0.00001009
  488      -16.3850384968      -0.0000000015     0.999989    0.00001005
  489      -16.3850384983      -0.0000000015     0.999989    0.00001002
  490      -16.3850384998      -0.0000000015     0.999989    0.00000998
  491      -16.3850385013      -0.0000000015     0.999989    0.00000995
  492      -16.3850385027      -0.0000000015     0.999989    0.00000992
  493      -16.3850385042      -0.0000000014     0.999989    0.00000988
  494      -16.3850385056      -0.0000000014     0.999989    0.00000985
  495      -16.3850385070      -0.0000000014     0.999989    0.00000982
  496      -16.3850385084      -0.0000000014     0.999989    0.00000978
  497      -16.3850385098      -0.0000000014     0.999989    0.00000975
  498      -16.3850385112      -0.0000000014     0.999989    0.00000972
  499      -16.3850385126      -0.0000000014     0.999989    0.00000969
  500      -16.3850385140      -0.0000000014     0.999989    0.00000965
  501      -16.3850385154      -0.0000000014     0.999989    0.00000962
  502      -16.3850385167      -0.0000000014     0.999989    0.00000959
  503      -16.3850385181      -0.0000000014     0.999989    0.00000956
  504      -16.3850385194      -0.0000000013     0.999989    0.00000953
  505      -16.3850385208      -0.0000000013     0.999989    0.00000950
  506      -16.3850385221      -0.0000000013     0.999989    0.00000946
  507      -16.3850385234      -0.0000000013     0.999989    0.00000943
  508      -16.3850385247      -0.0000000013     0.999989    0.00000940
  509      -16.3850385260      -0.0000000013     0.999989    0.00000937
  510      -16.3850385273      -0.0000000013     0.999989    0.00000934
  511      -16.3850385286      -0.0000000013     0.999989    0.00000931
  512      -16.3850385299      -0.0000000013     0.999989    0.00000928
  513      -16.3850385311      -0.0000000013     0.999989    0.00000925
  514      -16.3850385324      -0.0000000013     0.999989    0.00000922
  515      -16.3850385336      -0.0000000013     0.999989    0.00000919
  516      -16.3850385349      -0.0000000012     0.999989    0.00000916
  517      -16.3850385361      -0.0000000012     0.999989    0.00000913
  518      -16.3850385373      -0.0000000012     0.999989    0.00000910
  519      -16.3850385386      -0.0000000012     0.999989    0.00000907
  520      -16.3850385398      -0.0000000012     0.999989    0.00000905
  521      -16.3850385410      -0.0000000012     0.999989    0.00000902
  522      -16.3850385422      -0.0000000012     0.999989    0.00000899
  523      -16.3850385434      -0.0000000012     0.999989    0.00000896
  524      -16.3850385445      -0.0000000012     0.999989    0.00000893
  525      -16.3850385457      -0.0000000012     0.999989    0.00000890
  526      -16.3850385469      -0.0000000012     0.999989    0.00000887
  527      -16.3850385480      -0.0000000012     0.999989    0.00000885
  528      -16.3850385492      -0.0000000012     0.999989    0.00000882
  529      -16.3850385503      -0.0000000011     0.999989    0.00000879
  530      -16.3850385515      -0.0000000011     0.999989    0.00000876
  531      -16.3850385526      -0.0000000011     0.999989    0.00000874
  532      -16.3850385537      -0.0000000011     0.999989    0.00000871
  533      -16.3850385548      -0.0000000011     0.999989    0.00000868
  534      -16.3850385559      -0.0000000011     0.999989    0.00000865
  535      -16.3850385570      -0.0000000011     0.999989    0.00000863
  536      -16.3850385581      -0.0000000011     0.999989    0.00000860
  537      -16.3850385592      -0.0000000011     0.999989    0.00000857
  538      -16.3850385603      -0.0000000011     0.999989    0.00000855
  539      -16.3850385614      -0.0000000011     0.999989    0.00000852
  540      -16.3850385625      -0.0000000011     0.999989    0.00000850
  541      -16.3850385635      -0.0000000011     0.999989    0.00000847
  542      -16.3850385646      -0.0000000011     0.999989    0.00000844
  543      -16.3850385656      -0.0000000010     0.999989    0.00000842
  544      -16.3850385667      -0.0000000010     0.999990    0.00000839
  545      -16.3850385677      -0.0000000010     0.999990    0.00000837
  546      -16.3850385687      -0.0000000010     0.999990    0.00000834
  547      -16.3850385698      -0.0000000010     0.999990    0.00000832
  548      -16.3850385708      -0.0000000010     0.999990    0.00000829
  549      -16.3850385718      -0.0000000010     0.999990    0.00000827
  550      -16.3850385728      -0.0000000010     0.999990    0.00000824
  551      -16.3850385738      -0.0000000010     0.999990    0.00000822
  552      -16.3850385748      -0.0000000010     0.999990    0.00000819
  553      -16.3850385758      -0.0000000010     0.999990    0.00000817
  554      -16.3850385768      -0.0000000010     0.999990    0.00000814
  555      -16.3850385777      -0.0000000010     0.999990    0.00000812
  556      -16.3850385787      -0.0000000010     0.999990    0.00000809
  557      -16.3850385797      -0.0000000010     0.999990    0.00000807
  558      -16.3850385806      -0.0000000010     0.999990    0.00000805
  559      -16.3850385816      -0.0000000010     0.999990    0.00000802
  560      -16.3850385825      -0.0000000009     0.999990    0.00000800
  561      -16.3850385835      -0.0000000009     0.999990    0.00000798
  562      -16.3850385844      -0.0000000009     0.999990    0.00000795
  563      -16.3850385853      -0.0000000009     0.999990    0.00000793
  564      -16.3850385863      -0.0000000009     0.999990    0.00000790
  565      -16.3850385872      -0.0000000009     0.999990    0.00000788
  566      -16.3850385881      -0.0000000009     0.999990    0.00000786
  567      -16.3850385890      -0.0000000009     0.999990    0.00000784
  568      -16.3850385899      -0.0000000009     0.999990    0.00000781
  569      -16.3850385908      -0.0000000009     0.999990    0.00000779
  570      -16.3850385917      -0.0000000009     0.999990    0.00000777
  571      -16.3850385926      -0.0000000009     0.999990    0.00000775
  572      -16.3850385935      -0.0000000009     0.999990    0.00000772
  573      -16.3850385944      -0.0000000009     0.999990    0.00000770
  574      -16.3850385952      -0.0000000009     0.999990    0.00000768
  575      -16.3850385961      -0.0000000009     0.999990    0.00000766
  576      -16.3850385970      -0.0000000009     0.999990    0.00000763
  577      -16.3850385978      -0.0000000009     0.999990    0.00000761
  578      -16.3850385987      -0.0000000009     0.999990    0.00000759
  579      -16.3850385995      -0.0000000008     0.999990    0.00000757
  580      -16.3850386004      -0.0000000008     0.999990    0.00000755
  581      -16.3850386012      -0.0000000008     0.999990    0.00000753
  582      -16.3850386021      -0.0000000008     0.999990    0.00000750
  583      -16.3850386029      -0.0000000008     0.999990    0.00000748
  584      -16.3850386037      -0.0000000008     0.999990    0.00000746
  585      -16.3850386045      -0.0000000008     0.999990    0.00000744
  586      -16.3850386053      -0.0000000008     0.999990    0.00000742
  587      -16.3850386062      -0.0000000008     0.999990    0.00000740
  588      -16.3850386070      -0.0000000008     0.999990    0.00000738
  589      -16.3850386078      -0.0000000008     0.999990    0.00000736
  590      -16.3850386086      -0.0000000008     0.999990    0.00000734
  591      -16.3850386094      -0.0000000008     0.999990    0.00000732
  592      -16.3850386102      -0.0000000008     0.999990    0.00000730
  593      -16.3850386109      -0.0000000008     0.999990    0.00000728
  594      -16.3850386117      -0.0000000008     0.999990    0.00000726
  595      -16.3850386125      -0.0000000008     0.999990    0.00000724
  596      -16.3850386133      -0.0000000008     0.999990    0.00000722
  597      -16.3850386140      -0.0000000008     0.999990    0.00000720
  598      -16.3850386148      -0.0000000008     0.999990    0.00000718
  599      -16.3850386156      -0.0000000008     0.999990    0.00000716
  600      -16.3850386163      -0.0000000008     0.999990    0.00000714
  601      -16.3850386171      -0.0000000008     0.999990    0.00000712
  602      -16.3850386178      -0.0000000007     0.999990    0.00000710
  603      -16.3850386186      -0.0000000007     0.999990    0.00000708
  604      -16.3850386193      -0.0000000007     0.999990    0.00000706
  605      -16.3850386200      -0.0000000007     0.999990    0.00000704
  606      -16.3850386208      -0.0000000007     0.999990    0.00000702
  607      -16.3850386215      -0.0000000007     0.999990    0.00000700
  608      -16.3850386222      -0.0000000007     0.999990    0.00000698
  609      -16.3850386229      -0.0000000007     0.999990    0.00000696
  610      -16.3850386236      -0.0000000007     0.999990    0.00000694
  611      -16.3850386244      -0.0000000007     0.999990    0.00000693
  612      -16.3850386251      -0.0000000007     0.999990    0.00000691
  613      -16.3850386258      -0.0000000007     0.999990    0.00000689
  614      -16.3850386265      -0.0000000007     0.999990    0.00000687
  615      -16.3850386272      -0.0000000007     0.999990    0.00000685
  616      -16.3850386279      -0.0000000007     0.999990    0.00000683
  617      -16.3850386285      -0.0000000007     0.999990    0.00000681
  618      -16.3850386292      -0.0000000007     0.999990    0.00000680
  619      -16.3850386299      -0.0000000007     0.999990    0.00000678
  620      -16.3850386306      -0.0000000007     0.999990    0.00000676
  621      -16.3850386313      -0.0000000007     0.999990    0.00000674
  622      -16.3850386319      -0.0000000007     0.999990    0.00000672
  623      -16.3850386326      -0.0000000007     0.999990    0.00000671
  624      -16.3850386333      -0.0000000007     0.999990    0.00000669
  625      -16.3850386339      -0.0000000007     0.999990    0.00000667
  626      -16.3850386346      -0.0000000007     0.999990    0.00000665
  627      -16.3850386352      -0.0000000007     0.999990    0.00000664
  628      -16.3850386359      -0.0000000007     0.999990    0.00000662
  629      -16.3850386365      -0.0000000006     0.999990    0.00000660
  630      -16.3850386372      -0.0000000006     0.999990    0.00000658
  631      -16.3850386378      -0.0000000006     0.999990    0.00000657
  632      -16.3850386385      -0.0000000006     0.999990    0.00000655
  633      -16.3850386391      -0.0000000006     0.999990    0.00000653
  634      -16.3850386397      -0.0000000006     0.999990    0.00000652
  635      -16.3850386404      -0.0000000006     0.999990    0.00000650
  636      -16.3850386410      -0.0000000006     0.999990    0.00000648
  637      -16.3850386416      -0.0000000006     0.999990    0.00000647
  638      -16.3850386422      -0.0000000006     0.999990    0.00000645
  639      -16.3850386428      -0.0000000006     0.999990    0.00000643
  640      -16.3850386434      -0.0000000006     0.999990    0.00000642
  641      -16.3850386440      -0.0000000006     0.999990    0.00000640
  642      -16.3850386447      -0.0000000006     0.999990    0.00000638
  643      -16.3850386453      -0.0000000006     0.999990    0.00000637
  644      -16.3850386459      -0.0000000006     0.999990    0.00000635
  645      -16.3850386465      -0.0000000006     0.999990    0.00000633
  646      -16.3850386470      -0.0000000006     0.999990    0.00000632
  647      -16.3850386476      -0.0000000006     0.999990    0.00000630
  648      -16.3850386482      -0.0000000006     0.999990    0.00000629
  649      -16.3850386488      -0.0000000006     0.999990    0.00000627
  650      -16.3850386494      -0.0000000006     0.999990    0.00000625
  651      -16.3850386500      -0.0000000006     0.999990    0.00000624
  652      -16.3850386505      -0.0000000006     0.999990    0.00000622
  653      -16.3850386511      -0.0000000006     0.999990    0.00000621
  654      -16.3850386517      -0.0000000006     0.999990    0.00000619
  655      -16.3850386522      -0.0000000006     0.999990    0.00000618
  656      -16.3850386528      -0.0000000006     0.999990    0.00000616
  657      -16.3850386534      -0.0000000006     0.999990    0.00000615
  658      -16.3850386539      -0.0000000006     0.999990    0.00000613
  659      -16.3850386545      -0.0000000006     0.999990    0.00000612
  660      -16.3850386550      -0.0000000006     0.999990    0.00000610
  661      -16.3850386556      -0.0000000006     0.999990    0.00000608
  662      -16.3850386561      -0.0000000005     0.999990    0.00000607
  663      -16.3850386567      -0.0000000005     0.999990    0.00000605
  664      -16.3850386572      -0.0000000005     0.999990    0.00000604
  665      -16.3850386578      -0.0000000005     0.999990    0.00000602
  666      -16.3850386583      -0.0000000005     0.999990    0.00000601
  667      -16.3850386588      -0.0000000005     0.999990    0.00000600
  668      -16.3850386594      -0.0000000005     0.999990    0.00000598
  669      -16.3850386599      -0.0000000005     0.999990    0.00000597
  670      -16.3850386604      -0.0000000005     0.999990    0.00000595
  671      -16.3850386609      -0.0000000005     0.999990    0.00000594
  672      -16.3850386615      -0.0000000005     0.999990    0.00000592
  673      -16.3850386620      -0.0000000005     0.999990    0.00000591
  674      -16.3850386625      -0.0000000005     0.999990    0.00000589
  675      -16.3850386630      -0.0000000005     0.999990    0.00000588
  676      -16.3850386635      -0.0000000005     0.999990    0.00000587
  677      -16.3850386640      -0.0000000005     0.999990    0.00000585
  678      -16.3850386645      -0.0000000005     0.999990    0.00000584
  679      -16.3850386650      -0.0000000005     0.999990    0.00000582
  680      -16.3850386655      -0.0000000005     0.999990    0.00000581
  681      -16.3850386660      -0.0000000005     0.999990    0.00000579
  682      -16.3850386665      -0.0000000005     0.999990    0.00000578
  683      -16.3850386670      -0.0000000005     0.999990    0.00000577
  684      -16.3850386675      -0.0000000005     0.999990    0.00000575
  685      -16.3850386680      -0.0000000005     0.999990    0.00000574
  686      -16.3850386685      -0.0000000005     0.999990    0.00000573
  687      -16.3850386690      -0.0000000005     0.999990    0.00000571
  688      -16.3850386695      -0.0000000005     0.999990    0.00000570
  689      -16.3850386700      -0.0000000005     0.999990    0.00000569
  690      -16.3850386704      -0.0000000005     0.999990    0.00000567
  691      -16.3850386709      -0.0000000005     0.999990    0.00000566
  692      -16.3850386714      -0.0000000005     0.999990    0.00000565
  693      -16.3850386719      -0.0000000005     0.999990    0.00000563
  694      -16.3850386723      -0.0000000005     0.999990    0.00000562
  695      -16.3850386728      -0.0000000005     0.999990    0.00000561
  696      -16.3850386733      -0.0000000005     0.999990    0.00000559
  697      -16.3850386737      -0.0000000005     0.999990    0.00000558
  698      -16.3850386742      -0.0000000005     0.999990    0.00000557
  699      -16.3850386746      -0.0000000005     0.999990    0.00000555
  700      -16.3850386751      -0.0000000005     0.999990    0.00000554
  701      -16.3850386755      -0.0000000005     0.999990    0.00000553
  702      -16.3850386760      -0.0000000005     0.999990    0.00000551
  703      -16.3850386764      -0.0000000005     0.999990    0.00000550
  704      -16.3850386769      -0.0000000004     0.999990    0.00000549
  705      -16.3850386773      -0.0000000004     0.999990    0.00000548
  706      -16.3850386778      -0.0000000004     0.999990    0.00000546
  707      -16.3850386782      -0.0000000004     0.999990    0.00000545
  708      -16.3850386787      -0.0000000004     0.999990    0.00000544
  709      -16.3850386791      -0.0000000004     0.999990    0.00000543
  710      -16.3850386795      -0.0000000004     0.999990    0.00000541
  711      -16.3850386800      -0.0000000004     0.999990    0.00000540
  712      -16.3850386804      -0.0000000004     0.999990    0.00000539
  713      -16.3850386808      -0.0000000004     0.999990    0.00000538
  714      -16.3850386813      -0.0000000004     0.999990    0.00000536
  715      -16.3850386817      -0.0000000004     0.999990    0.00000535
  716      -16.3850386821      -0.0000000004     0.999990    0.00000534
  717      -16.3850386825      -0.0000000004     0.999990    0.00000533
  718      -16.3850386830      -0.0000000004     0.999990    0.00000532
  719      -16.3850386834      -0.0000000004     0.999990    0.00000530
  720      -16.3850386838      -0.0000000004     0.999990    0.00000529
  721      -16.3850386842      -0.0000000004     0.999990    0.00000528
  722      -16.3850386846      -0.0000000004     0.999990    0.00000527
  723      -16.3850386850      -0.0000000004     0.999990    0.00000526
  724      -16.3850386854      -0.0000000004     0.999990    0.00000524
  725      -16.3850386858      -0.0000000004     0.999990    0.00000523
  726      -16.3850386863      -0.0000000004     0.999990    0.00000522
  727      -16.3850386867      -0.0000000004     0.999990    0.00000521
  728      -16.3850386871      -0.0000000004     0.999990    0.00000520
  729      -16.3850386875      -0.0000000004     0.999990    0.00000519
  730      -16.3850386879      -0.0000000004     0.999990    0.00000517
  731      -16.3850386883      -0.0000000004     0.999990    0.00000516
  732      -16.3850386886      -0.0000000004     0.999990    0.00000515
  733      -16.3850386890      -0.0000000004     0.999990    0.00000514
  734      -16.3850386894      -0.0000000004     0.999990    0.00000513
  735      -16.3850386898      -0.0000000004     0.999990    0.00000512
  736      -16.3850386902      -0.0000000004     0.999990    0.00000511
  737      -16.3850386906      -0.0000000004     0.999990    0.00000509
  738      -16.3850386910      -0.0000000004     0.999990    0.00000508
  739      -16.3850386914      -0.0000000004     0.999990    0.00000507
  740      -16.3850386917      -0.0000000004     0.999990    0.00000506
  741      -16.3850386921      -0.0000000004     0.999990    0.00000505
  742      -16.3850386925      -0.0000000004     0.999990    0.00000504
  743      -16.3850386929      -0.0000000004     0.999990    0.00000503
  744      -16.3850386933      -0.0000000004     0.999990    0.00000502
  745      -16.3850386936      -0.0000000004     0.999990    0.00000501
  746      -16.3850386940      -0.0000000004     0.999990    0.00000500
  747      -16.3850386944      -0.0000000004     0.999990    0.00000498
  748      -16.3850386947      -0.0000000004     0.999990    0.00000497
  749      -16.3850386951      -0.0000000004     0.999990    0.00000496
  750      -16.3850386955      -0.0000000004     0.999990    0.00000495
  751      -16.3850386958      -0.0000000004     0.999990    0.00000494
  752      -16.3850386962      -0.0000000004     0.999990    0.00000493
  753      -16.3850386966      -0.0000000004     0.999990    0.00000492
  754      -16.3850386969      -0.0000000004     0.999990    0.00000491
  755      -16.3850386973      -0.0000000004     0.999990    0.00000490
  756      -16.3850386976      -0.0000000004     0.999990    0.00000489
  757      -16.3850386980      -0.0000000004     0.999990    0.00000488
  758      -16.3850386983      -0.0000000004     0.999990    0.00000487
  759      -16.3850386987      -0.0000000004     0.999990    0.00000486
  760      -16.3850386990      -0.0000000003     0.999990    0.00000485
  761      -16.3850386994      -0.0000000003     0.999990    0.00000484
  762      -16.3850386997      -0.0000000003     0.999990    0.00000483
  763      -16.3850387001      -0.0000000003     0.999990    0.00000482
  764      -16.3850387004      -0.0000000003     0.999990    0.00000481
  765      -16.3850387008      -0.0000000003     0.999990    0.00000480
  766      -16.3850387011      -0.0000000003     0.999990    0.00000479
  767      -16.3850387014      -0.0000000003     0.999990    0.00000478
  768      -16.3850387018      -0.0000000003     0.999990    0.00000477
  769      -16.3850387021      -0.0000000003     0.999990    0.00000476
  770      -16.3850387025      -0.0000000003     0.999990    0.00000475
  771      -16.3850387028      -0.0000000003     0.999990    0.00000474
  772      -16.3850387031      -0.0000000003     0.999990    0.00000473
  773      -16.3850387034      -0.0000000003     0.999990    0.00000472
  774      -16.3850387038      -0.0000000003     0.999990    0.00000471
  775      -16.3850387041      -0.0000000003     0.999990    0.00000470
  776      -16.3850387044      -0.0000000003     0.999990    0.00000469
  777      -16.3850387048      -0.0000000003     0.999990    0.00000468
  778      -16.3850387051      -0.0000000003     0.999990    0.00000467
  779      -16.3850387054      -0.0000000003     0.999990    0.00000466
  780      -16.3850387057      -0.0000000003     0.999990    0.00000465
  781      -16.3850387061      -0.0000000003     0.999990    0.00000464
  782      -16.3850387064      -0.0000000003     0.999990    0.00000463
  783      -16.3850387067      -0.0000000003     0.999990    0.00000462
  784      -16.3850387070      -0.0000000003     0.999990    0.00000461
  785      -16.3850387073      -0.0000000003     0.999990    0.00000460
  786      -16.3850387076      -0.0000000003     0.999990    0.00000459
  787      -16.3850387079      -0.0000000003     0.999990    0.00000458
  788      -16.3850387083      -0.0000000003     0.999990    0.00000457
  789      -16.3850387086      -0.0000000003     0.999990    0.00000456
  790      -16.3850387089      -0.0000000003     0.999990    0.00000455
  791      -16.3850387092      -0.0000000003     0.999990    0.00000455
  792      -16.3850387095      -0.0000000003     0.999990    0.00000454
  793      -16.3850387098      -0.0000000003     0.999990    0.00000453
  794      -16.3850387101      -0.0000000003     0.999990    0.00000452
  795      -16.3850387104      -0.0000000003     0.999990    0.00000451
  796      -16.3850387107      -0.0000000003     0.999990    0.00000450
  797      -16.3850387110      -0.0000000003     0.999990    0.00000449
  798      -16.3850387113      -0.0000000003     0.999990    0.00000448
  799      -16.3850387116      -0.0000000003     0.999990    0.00000447
  800      -16.3850387119      -0.0000000003     0.999990    0.00000446
  801      -16.3850387122      -0.0000000003     0.999990    0.00000445
  802      -16.3850387125      -0.0000000003     0.999990    0.00000445
  803      -16.3850387128      -0.0000000003     0.999990    0.00000444
  804      -16.3850387131      -0.0000000003     0.999990    0.00000443
  805      -16.3850387134      -0.0000000003     0.999990    0.00000442
  806      -16.3850387137      -0.0000000003     0.999990    0.00000441
  807      -16.3850387139      -0.0000000003     0.999990    0.00000440
  808      -16.3850387142      -0.0000000003     0.999990    0.00000439
  809      -16.3850387145      -0.0000000003     0.999990    0.00000438
  810      -16.3850387148      -0.0000000003     0.999990    0.00000438
  811      -16.3850387151      -0.0000000003     0.999990    0.00000437
  812      -16.3850387154      -0.0000000003     0.999990    0.00000436
  813      -16.3850387157      -0.0000000003     0.999990    0.00000435
  814      -16.3850387159      -0.0000000003     0.999990    0.00000434
  815      -16.3850387162      -0.0000000003     0.999990    0.00000433
  816      -16.3850387165      -0.0000000003     0.999990    0.00000432
  817      -16.3850387168      -0.0000000003     0.999990    0.00000432
  818      -16.3850387170      -0.0000000003     0.999990    0.00000431
  819      -16.3850387173      -0.0000000003     0.999990    0.00000430
  820      -16.3850387176      -0.0000000003     0.999990    0.00000429
  821      -16.3850387179      -0.0000000003     0.999990    0.00000428
  822      -16.3850387181      -0.0000000003     0.999990    0.00000427
  823      -16.3850387184      -0.0000000003     0.999990    0.00000427
  824      -16.3850387187      -0.0000000003     0.999990    0.00000426
  825      -16.3850387190      -0.0000000003     0.999990    0.00000425
  826      -16.3850387192      -0.0000000003     0.999990    0.00000424
  827      -16.3850387195      -0.0000000003     0.999990    0.00000423
  828      -16.3850387198      -0.0000000003     0.999990    0.00000423
  829      -16.3850387200      -0.0000000003     0.999990    0.00000422
  830      -16.3850387203      -0.0000000003     0.999990    0.00000421
  831      -16.3850387205      -0.0000000003     0.999990    0.00000420
  832      -16.3850387208      -0.0000000003     0.999990    0.00000419
  833      -16.3850387211      -0.0000000003     0.999990    0.00000419
  834      -16.3850387213      -0.0000000003     0.999990    0.00000418
  835      -16.3850387216      -0.0000000003     0.999990    0.00000417
  836      -16.3850387218      -0.0000000003     0.999990    0.00000416
  837      -16.3850387221      -0.0000000003     0.999990    0.00000415
  838      -16.3850387224      -0.0000000003     0.999990    0.00000415
  839      -16.3850387226      -0.0000000003     0.999990    0.00000414
  840      -16.3850387229      -0.0000000003     0.999990    0.00000413
  841      -16.3850387231      -0.0000000003     0.999990    0.00000412
  842      -16.3850387234      -0.0000000003     0.999990    0.00000412
  843      -16.3850387236      -0.0000000003     0.999990    0.00000411
  844      -16.3850387239      -0.0000000003     0.999990    0.00000410
  845      -16.3850387241      -0.0000000002     0.999990    0.00000409
  846      -16.3850387244      -0.0000000002     0.999990    0.00000408
  847      -16.3850387246      -0.0000000002     0.999990    0.00000408
  848      -16.3850387249      -0.0000000002     0.999990    0.00000407
  849      -16.3850387251      -0.0000000002     0.999990    0.00000406
  850      -16.3850387254      -0.0000000002     0.999990    0.00000405
  851      -16.3850387256      -0.0000000002     0.999990    0.00000405
  852      -16.3850387258      -0.0000000002     0.999990    0.00000404
  853      -16.3850387261      -0.0000000002     0.999990    0.00000403
  854      -16.3850387263      -0.0000000002     0.999990    0.00000402
  855      -16.3850387266      -0.0000000002     0.999990    0.00000402
  856      -16.3850387268      -0.0000000002     0.999990    0.00000401
  857      -16.3850387270      -0.0000000002     0.999990    0.00000400
  858      -16.3850387273      -0.0000000002     0.999990    0.00000400
  859      -16.3850387275      -0.0000000002     0.999990    0.00000399
  860      -16.3850387278      -0.0000000002     0.999990    0.00000398
  861      -16.3850387280      -0.0000000002     0.999990    0.00000397
  862      -16.3850387282      -0.0000000002     0.999990    0.00000397
  863      -16.3850387285      -0.0000000002     0.999990    0.00000396
  864      -16.3850387287      -0.0000000002     0.999990    0.00000395
  865      -16.3850387289      -0.0000000002     0.999990    0.00000394
  866      -16.3850387292      -0.0000000002     0.999990    0.00000394
  867      -16.3850387294      -0.0000000002     0.999990    0.00000393
  868      -16.3850387296      -0.0000000002     0.999990    0.00000392
  869      -16.3850387298      -0.0000000002     0.999990    0.00000392
  870      -16.3850387301      -0.0000000002     0.999990    0.00000391
  871      -16.3850387303      -0.0000000002     0.999990    0.00000390
  872      -16.3850387305      -0.0000000002     0.999990    0.00000390
  873      -16.3850387307      -0.0000000002     0.999990    0.00000389
  874      -16.3850387310      -0.0000000002     0.999990    0.00000388
  875      -16.3850387312      -0.0000000002     0.999990    0.00000387
  876      -16.3850387314      -0.0000000002     0.999990    0.00000387
  877      -16.3850387316      -0.0000000002     0.999990    0.00000386
  878      -16.3850387319      -0.0000000002     0.999990    0.00000385
  879      -16.3850387321      -0.0000000002     0.999990    0.00000385
  880      -16.3850387323      -0.0000000002     0.999990    0.00000384
  881      -16.3850387325      -0.0000000002     0.999990    0.00000383
  882      -16.3850387327      -0.0000000002     0.999990    0.00000383
  883      -16.3850387330      -0.0000000002     0.999990    0.00000382
  884      -16.3850387332      -0.0000000002     0.999990    0.00000381
  885      -16.3850387334      -0.0000000002     0.999990    0.00000381
  886      -16.3850387336      -0.0000000002     0.999990    0.00000380
  887      -16.3850387338      -0.0000000002     0.999990    0.00000379
  888      -16.3850387340      -0.0000000002     0.999990    0.00000379
  889      -16.3850387342      -0.0000000002     0.999990    0.00000378
  890      -16.3850387345      -0.0000000002     0.999990    0.00000377
  891      -16.3850387347      -0.0000000002     0.999990    0.00000377
  892      -16.3850387349      -0.0000000002     0.999990    0.00000376
  893      -16.3850387351      -0.0000000002     0.999990    0.00000375
  894      -16.3850387353      -0.0000000002     0.999990    0.00000375
  895      -16.3850387355      -0.0000000002     0.999990    0.00000374
  896      -16.3850387357      -0.0000000002     0.999990    0.00000373
  897      -16.3850387359      -0.0000000002     0.999990    0.00000373
  898      -16.3850387361      -0.0000000002     0.999990    0.00000372
  899      -16.3850387363      -0.0000000002     0.999990    0.00000371
  900      -16.3850387365      -0.0000000002     0.999990    0.00000371
  901      -16.3850387367      -0.0000000002     0.999990    0.00000370
  902      -16.3850387369      -0.0000000002     0.999990    0.00000369
  903      -16.3850387371      -0.0000000002     0.999990    0.00000369
  904      -16.3850387373      -0.0000000002     0.999990    0.00000368
  905      -16.3850387375      -0.0000000002     0.999990    0.00000368
  906      -16.3850387377      -0.0000000002     0.999990    0.00000367
  907      -16.3850387379      -0.0000000002     0.999990    0.00000366
  908      -16.3850387381      -0.0000000002     0.999990    0.00000366
  909      -16.3850387383      -0.0000000002     0.999990    0.00000365
  910      -16.3850387385      -0.0000000002     0.999990    0.00000364
  911      -16.3850387387      -0.0000000002     0.999990    0.00000364
  912      -16.3850387389      -0.0000000002     0.999990    0.00000363
  913      -16.3850387391      -0.0000000002     0.999990    0.00000363
  914      -16.3850387393      -0.0000000002     0.999990    0.00000362
  915      -16.3850387395      -0.0000000002     0.999990    0.00000361
  916      -16.3850387397      -0.0000000002     0.999990    0.00000361
  917      -16.3850387399      -0.0000000002     0.999990    0.00000360
  918      -16.3850387401      -0.0000000002     0.999990    0.00000360
  919      -16.3850387403      -0.0000000002     0.999990    0.00000359
  920      -16.3850387405      -0.0000000002     0.999990    0.00000358
  921      -16.3850387407      -0.0000000002     0.999990    0.00000358
  922      -16.3850387409      -0.0000000002     0.999990    0.00000357
  923      -16.3850387410      -0.0000000002     0.999990    0.00000357
  924      -16.3850387412      -0.0000000002     0.999990    0.00000356
  925      -16.3850387414      -0.0000000002     0.999990    0.00000355
  926      -16.3850387416      -0.0000000002     0.999990    0.00000355
  927      -16.3850387418      -0.0000000002     0.999990    0.00000354
  928      -16.3850387420      -0.0000000002     0.999990    0.00000354
  929      -16.3850387422      -0.0000000002     0.999990    0.00000353
  930      -16.3850387423      -0.0000000002     0.999990    0.00000352
  931      -16.3850387425      -0.0000000002     0.999990    0.00000352
  932      -16.3850387427      -0.0000000002     0.999990    0.00000351
  933      -16.3850387429      -0.0000000002     0.999990    0.00000351
  934      -16.3850387431      -0.0000000002     0.999990    0.00000350
  935      -16.3850387433      -0.0000000002     0.999990    0.00000350
  936      -16.3850387434      -0.0000000002     0.999990    0.00000349
  937      -16.3850387436      -0.0000000002     0.999990    0.00000348
  938      -16.3850387438      -0.0000000002     0.999990    0.00000348
  939      -16.3850387440      -0.0000000002     0.999990    0.00000347
  940      -16.3850387442      -0.0000000002     0.999990    0.00000347
  941      -16.3850387443      -0.0000000002     0.999990    0.00000346
  942      -16.3850387445      -0.0000000002     0.999990    0.00000346
  943      -16.3850387447      -0.0000000002     0.999990    0.00000345
  944      -16.3850387449      -0.0000000002     0.999990    0.00000344
  945      -16.3850387450      -0.0000000002     0.999990    0.00000344
  946      -16.3850387452      -0.0000000002     0.999990    0.00000343
  947      -16.3850387454      -0.0000000002     0.999990    0.00000343
  948      -16.3850387456      -0.0000000002     0.999990    0.00000342
  949      -16.3850387457      -0.0000000002     0.999990    0.00000342
  950      -16.3850387459      -0.0000000002     0.999990    0.00000341
  951      -16.3850387461      -0.0000000002     0.999990    0.00000340
  952      -16.3850387463      -0.0000000002     0.999990    0.00000340
  953      -16.3850387464      -0.0000000002     0.999990    0.00000339
  954      -16.3850387466      -0.0000000002     0.999990    0.00000339
  955      -16.3850387468      -0.0000000002     0.999990    0.00000338
  956      -16.3850387469      -0.0000000002     0.999990    0.00000338
  957      -16.3850387471      -0.0000000002     0.999990    0.00000337
  958      -16.3850387473      -0.0000000002     0.999990    0.00000337
  959      -16.3850387475      -0.0000000002     0.999990    0.00000336
  960      -16.3850387476      -0.0000000002     0.999990    0.00000336
  961      -16.3850387478      -0.0000000002     0.999990    0.00000335
  962      -16.3850387480      -0.0000000002     0.999990    0.00000335
  963      -16.3850387481      -0.0000000002     0.999990    0.00000334
  964      -16.3850387483      -0.0000000002     0.999990    0.00000333
  965      -16.3850387484      -0.0000000002     0.999990    0.00000333
  966      -16.3850387486      -0.0000000002     0.999990    0.00000332
  967      -16.3850387488      -0.0000000002     0.999990    0.00000332
  968      -16.3850387489      -0.0000000002     0.999990    0.00000331
  969      -16.3850387491      -0.0000000002     0.999990    0.00000331
  970      -16.3850387493      -0.0000000002     0.999990    0.00000330
  971      -16.3850387494      -0.0000000002     0.999990    0.00000330
  972      -16.3850387496      -0.0000000002     0.999990    0.00000329
  973      -16.3850387497      -0.0000000002     0.999990    0.00000329
  974      -16.3850387499      -0.0000000002     0.999990    0.00000328
  975      -16.3850387501      -0.0000000002     0.999990    0.00000328
  976      -16.3850387502      -0.0000000002     0.999990    0.00000327
  977      -16.3850387504      -0.0000000002     0.999990    0.00000327
  978      -16.3850387505      -0.0000000002     0.999990    0.00000326
  979      -16.3850387507      -0.0000000002     0.999990    0.00000326
  980      -16.3850387509      -0.0000000002     0.999990    0.00000325
  981      -16.3850387510      -0.0000000002     0.999990    0.00000325
  982      -16.3850387512      -0.0000000002     0.999990    0.00000324
  983      -16.3850387513      -0.0000000002     0.999990    0.00000324
  984      -16.3850387515      -0.0000000002     0.999990    0.00000323
  985      -16.3850387516      -0.0000000002     0.999990    0.00000323
  986      -16.3850387518      -0.0000000002     0.999990    0.00000322
  987      -16.3850387519      -0.0000000002     0.999990    0.00000322
  988      -16.3850387521      -0.0000000002     0.999990    0.00000321
  989      -16.3850387523      -0.0000000002     0.999990    0.00000321
  990      -16.3850387524      -0.0000000002     0.999990    0.00000320
  991      -16.3850387526      -0.0000000002     0.999990    0.00000320
  992      -16.3850387527      -0.0000000002     0.999990    0.00000319
  993      -16.3850387529      -0.0000000002     0.999990    0.00000319
  994      -16.3850387530      -0.0000000002     0.999990    0.00000318
  995      -16.3850387532      -0.0000000002     0.999990    0.00000318
  996      -16.3850387533      -0.0000000001     0.999990    0.00000317
  997      -16.3850387535      -0.0000000001     0.999990    0.00000317
  998      -16.3850387536      -0.0000000001     0.999990    0.00000316
  999      -16.3850387538      -0.0000000001     0.999990    0.00000316
 1000      -16.3850387539      -0.0000000001     0.999990    0.00000315

Total Energy:                      -16.3850387539 H         -445.8596 eV
Extrapolated to 0:                 -16.3499208468 H         -444.9040 eV

----------------------------------------------------------------------------------
 Solving CP-REKS equation for  1 state vector...
----------------------------------------------------------------------------------
  CG solver: Constructing Y initial guess
  CG solver: Iteration    1    eps =    0.077195169182
  CG solver: Iteration    2    eps =    0.034076006570
  CG solver: Iteration    3    eps =    0.014351888366
  CG solver: Iteration    4    eps =    0.003988200847
  CG solver: Iteration    5    eps =    0.001761851090
  CG solver: Iteration    6    eps =    0.001075797853
  CG solver: Iteration    7    eps =    0.001072390660
  CG solver: Iteration    8    eps =    0.006824205147
  CG solver: Iteration    9    eps =    0.027308748421
  CG solver: Iteration   10    eps =    0.018147656867
  CG solver: Iteration   11    eps =    0.005209900531
  CG solver: Iteration   12    eps =    0.000713032148
  CG solver: Iteration   13    eps =    0.000066679278
  CG solver: Iteration   14    eps =    0.000011652563
  CG solver: Iteration   15    eps =    0.000001805904
  CG solver: Iteration   16    eps =    0.000000129620
  CG solver: Iteration   17    eps =    0.000000009427
  Convergence reached in CG solver after   17 iterations
  CG solver: Calculating converged R, Z, Q2 matrix
----------------------------------------------------------------------------------

----------------------------------------------------------------------------------
 Solving CP-REKS equation for SI between  1 and  2 state vectors...
----------------------------------------------------------------------------------
  CG solver: Constructing Y initial guess
  CG solver: Iteration    1    eps =    0.053343492767
  CG solver: Iteration    2    eps =    0.009151386610
  CG solver: Iteration    3    eps =    0.069418065608
  CG solver: Iteration    4    eps =    0.208995060638
  CG solver: Iteration    5    eps =    0.099574860587
  CG solver: Iteration    6    eps =    0.219970750142
  CG solver: Iteration    7    eps =    0.698243592482
  CG solver: Iteration    8    eps =    0.101891546433
  CG solver: Iteration    9    eps =    0.009579260490
  CG solver: Iteration   10    eps =    0.002191964688
  CG solver: Iteration   11    eps =    0.000344664057
  CG solver: Iteration   12    eps =    0.000032794717
  CG solver: Iteration   13    eps =    0.000008142834
  CG solver: Iteration   14    eps =    0.000000950985
  CG solver: Iteration   15    eps =    0.000000073863
  CG solver: Iteration   16    eps =    0.000000004185
  Convergence reached in CG solver after   16 iterations
  CG solver: Calculating converged R, Z, Q2 matrix
----------------------------------------------------------------------------------

--------------------------------------------------
 Gradient Information
--------------------------------------------------
           1 st state (SSR)
     0.00000000     0.00000000     0.00000000
     0.00000000     0.00000000     0.00000000
     0.00000000     0.00000000     0.00000000
     0.00000000     0.00000000     0.00000000
     0.00000000     0.00000000     0.00000000
     0.00000000     0.00000000     0.00000000
     0.00000000     0.00000000     0.00000000
     0.00000000     0.00000000     0.00000000
     0.00000000     0.00000000     0.00000000
     0.00000000     0.00000000     0.00000000
     0.00000000     0.00000000     0.00000000
     0.00000000     0.00000000     0.00000000
     0.00000000     0.00000000     0.00000000
     0.00000000     0.00000000     0.00000000

           2 st state (SSR)
     0.00000000     0.00000000     0.00000000
     0.00000000     0.00000000     0.00000000
     0.00000000     0.00000000     0.00000000
     0.00000000     0.00000000     0.00000000
     0.00000000     0.00000000     0.00000000
     0.00000000     0.00000000     0.00000000
     0.00000000     0.00000000     0.00000000
     0.00000000     0.00000000     0.00000000
     0.00000000     0.00000000     0.00000000
     0.00000000     0.00000000     0.00000000
     0.00000000     0.00000000     0.00000000
     0.00000000     0.00000000     0.00000000
     0.00000000     0.00000000     0.00000000
     0.00000000     0.00000000     0.00000000
--------------------------------------------------
 Coupling Information
--------------------------------------------------
 between  1 and  2 states
--------------------------------------------------
 g vector - difference gradient
     0.14607403     0.11523867    -0.14790616
    -0.01313881    -0.13237058     0.05918759
    -0.01148235    -0.11885530     0.04126980
     0.00700718     0.07040012    -0.11304860
     0.04022602    -0.05389908    -0.10434915
    -0.99914904    -0.84323452     0.19210327
     0.94141659     1.03147058    -0.68734420
     0.09819740    -0.11858119     0.04345198
     0.00986938    -0.01605449    -0.09171645
     0.62214928    -0.15100892     1.36884400
    -0.05491183    -0.04102495     0.10356853
    -0.80655366     0.32955532    -0.75189078
     0.02600977    -0.05777942     0.01718251
    -0.00571397    -0.01385625     0.07064767

 h vector - derivative coupling
     0.13623805    -0.55911747     0.09427549
    -1.21756806     1.75427483     0.34541804
     0.06078978    -0.04315902    -0.05463512
     0.01747630     0.02644770    -0.07795493
    -0.20242806    -0.28428456    -0.44060668
    -3.13936008    -4.09350219    -0.41040298
     3.89540488     4.94579693    -3.89663411
     1.27436055    -1.05189104     0.20858494
     0.23103155    -0.22099014     0.05611919
     3.24484154    -1.14294256     7.19164127
    -0.30817091    -0.68581706     0.26431629
    -4.18560320     1.43512918    -3.52349276
     0.32675107     0.19524345    -0.17666564
    -0.13376342    -0.27518806     0.42003699

 G vector - GDV
     0.00000000     0.00000000     0.00000000
     0.00000000     0.00000000     0.00000000
     0.00000000     0.00000000     0.00000000
     0.00000000     0.00000000     0.00000000
     0.00000000     0.00000000     0.00000000
     0.00000000     0.00000000     0.00000000
     0.00000000     0.00000000     0.00000000
     0.00000000     0.00000000     0.00000000
     0.00000000     0.00000000     0.00000000
     0.00000000     0.00000000     0.00000000
     0.00000000     0.00000000     0.00000000
     0.00000000     0.00000000     0.00000000
     0.00000000     0.00000000     0.00000000
     0.00000000     0.00000000     0.00000000

 H vector - DCV - non-adiabatic coupling
     0.00000000     0.00000000     0.00000000
     0.00000000     0.00000000     0.00000000
     0.00000000     0.00000000     0.00000000
     0.00000000     0.00000000     0.00000000
     0.00000000     0.00000000     0.00000000
     0.00000000     0.00000000     0.00000000
     0.00000000     0.00000000     0.00000000
     0.00000000     0.00000000     0.00000000
     0.00000000     0.00000000     0.00000000
     0.00000000     0.00000000     0.00000000
     0.00000000     0.00000000     0.00000000
     0.00000000     0.00000000     0.00000000
     0.00000000     0.00000000     0.00000000
     0.00000000     0.00000000     0.00000000
--------------------------------------------------

WARNING!
-> SCC is NOT converged, maximal SCC iterations exceeded

--------------------------------------------------------------------------------
DFTB+ running times                          cpu [s]             wall clock [s]
--------------------------------------------------------------------------------
Global initialisation                  +     0.00  (  0.1%)      0.01  (  0.6%)
SCC                                    +     1.56  ( 78.4%)      1.57  ( 77.9%)
      Sparse to dense                        0.07  (  3.8%)      0.07  (  3.3%)
      Dense to sparse                        0.26  ( 12.9%)      0.25  ( 12.4%)
      Range separated Hamiltonian            0.12  (  6.2%)      0.13  (  6.2%)
  Density matrix creation                    0.16  (  7.9%)      0.16  (  7.9%)
  Force calculation                          0.43  ( 21.5%)      0.43  ( 21.3%)
--------------------------------------------------------------------------------
Missing                                +     0.43  ( 21.5%)      0.43  ( 21.5%)
Total                                  =     1.99  (100.0%)      2.01  (100.0%)
--------------------------------------------------------------------------------
