|===============================================================================
|
|  DFTB+ release 20.1
|
|  Copyright (C) 2006 - 2020  DFTB+ developers group
|
|===============================================================================
|
|  When publishing results obtained with DFTB+, please cite the following
|  reference:
|
|  * DFTB+, a software package for efficient approximate density functional
|    theory based atomistic simulations, J. Chem. Phys. 152, 124101 (2020).
|    [doi: 10.1063/1.5143190]
|
|  You should also cite additional publications crediting the parametrization
|  data you use. Please consult the documentation of the SK-files for the
|  references.
|
|===============================================================================

Reading input file 'dftb_in.hsd'
Parser version: 8

--------------------------------------------------------------------------------
Reading SK-files:
Done.


Processed input in HSD format written to 'dftb_pin.hsd'

Starting initialization...
--------------------------------------------------------------------------------
OpenMP threads:              1
Chosen random seed:          501401822
Mode:                        Static calculation
Self consistent charges:     Yes
SCC-tolerance:                 0.100000E-05
Max. scc iterations:                   1000
Shell resolved Hubbard:      No
Spin polarisation:           No
Nr. of up electrons:            16.000000
Nr. of down electrons:          16.000000
Periodic boundaries:         No
Electronic solver:           Relatively robust
Maximal SCC-cycles:                    1000
Initial charges:             Set automatically (system chrg:   0.100E+01)
Included shells:             C:  s, p
                             H:  s
                             N:  s, p
Spin coupling constants:     C   1(s)-1(s):  -0.455900E-01
                             C   1(s)-2(p):  -0.293000E-01
                             C   2(p)-1(s):  -0.293000E-01
                             C   2(p)-2(p):  -0.275500E-01
                             H   1(s)-1(s):  -0.792500E-01
                             N   1(s)-1(s):  -0.468700E-01
                             N   1(s)-2(p):  -0.317000E-01
                             N   2(p)-1(s):  -0.317000E-01
                             N   2(p)-2(p):  -0.307200E-01
Range separated hybrid:      Yes
  Screening parameter omega:   0.300000E+00
  Range separated algorithm:   MatrixBased
Extra options:
                             Mulliken analysis
                             Force calculation
Force type                   original
                             Eigenvector printing


REKS Calcuation:             Yes
SSR(2,2) Calcuation:         Yes
Energy Functional:           (PPS+OSS)/2
Number of Core Orbitals:                 15
Number of Active Orbitals:                2
Number of Basis:                         32
Number of States:                         2
State-Averaging Weight:          0.500000
                                 0.500000
State of Interest:                        1
Initial Guess:               Diagonalize H0 matrix
Newton-Raphson for FON opt:  Yes
NR max. Iterations:                      50
Level Shifting:              Yes
Shift Value:                     0.300000
W Scale Factor:              C  =    3.200000
                             H  =    3.200000
                             N  =    3.200000
Transition Dipole:           No
Gradient of Microstate:      No
CP-REKS Solver:              Preconditioned Conjugate-Gradient
CG max. Iterations:                     100
CG Tolerance:                  0.100000E-07
Memory for A and Hxc:        Direct Updating Without Saving
Non-Adiabatic Coupling:      Yes

--------------------------------------------------------------------------------

***  Geometry step: 0

  iSCC       reks energy        Diff energy         x_a       SCC error   
    1      -16.3895831224       0.0000000000     0.999745    1.20080058
    2      -16.4053744245      -0.0157913021     0.999982    0.03641837
    3      -16.4090560455      -0.0036816210     0.999996    0.01701826
    4      -16.4104058410      -0.0013497955     0.999999    0.01035134
    5      -16.4110425815      -0.0006367405     0.999999    0.00686501
    6      -16.4114028046      -0.0003602231     1.000000    0.00478193
    7      -16.4116391682      -0.0002363636     1.000000    0.00362323
    8      -16.4118129264      -0.0001737582     1.000000    0.00288015
    9      -16.4119510181      -0.0001380917     1.000000    0.00235509
   10      -16.4120662820      -0.0001152638     1.000000    0.00197436
   11      -16.4121653721      -0.0000990901     1.000000    0.00169173
   12      -16.4122520659      -0.0000866938     1.000000    0.00147710
   13      -16.4123287181      -0.0000766522     1.000000    0.00135783
   14      -16.4123969310      -0.0000682129     1.000000    0.00132309
   15      -16.4124578792      -0.0000609482     1.000000    0.00127768
   16      -16.4125124756      -0.0000545964     1.000000    0.00122601
   17      -16.4125614611      -0.0000489855     1.000000    0.00117108
   18      -16.4126054561      -0.0000439950     1.000000    0.00111491
   19      -16.4126449920      -0.0000395359     1.000000    0.00105884
   20      -16.4126805311      -0.0000355390     1.000000    0.00100377
   21      -16.4127124799      -0.0000319488     1.000000    0.00095026
   22      -16.4127411994      -0.0000287195     1.000000    0.00089868
   23      -16.4127670114      -0.0000258121     1.000000    0.00085349
   24      -16.4127902046      -0.0000231931     1.000000    0.00081420
   25      -16.4128110381      -0.0000208335     1.000000    0.00077586
   26      -16.4128297454      -0.0000187073     1.000000    0.00073861
   27      -16.4128465372      -0.0000167918     1.000000    0.00070277
   28      -16.4128616036      -0.0000150664     1.000000    0.00066949
   29      -16.4128751164      -0.0000135128     1.000000    0.00063733
   30      -16.4128872307      -0.0000121143     1.000000    0.00060631
   31      -16.4128980867      -0.0000108560     1.000000    0.00057644
   32      -16.4129078111      -0.0000097244     1.000000    0.00054773
   33      -16.4129165183      -0.0000087072     1.000000    0.00052017
   34      -16.4129243115      -0.0000077932     1.000000    0.00049375
   35      -16.4129312840      -0.0000069724     1.000000    0.00046846
   36      -16.4129375197      -0.0000062357     1.000000    0.00044427
   37      -16.4129430945      -0.0000055748     1.000000    0.00042116
   38      -16.4129480766      -0.0000049821     1.000000    0.00039910
   39      -16.4129525274      -0.0000044509     1.000000    0.00037806
   40      -16.4129565024      -0.0000039750     1.000000    0.00035801
   41      -16.4129600512      -0.0000035488     1.000000    0.00033892
   42      -16.4129632185      -0.0000031673     1.000000    0.00032075
   43      -16.4129660446      -0.0000028261     1.000000    0.00030347
   44      -16.4129685654      -0.0000025208     1.000000    0.00028705
   45      -16.4129708134      -0.0000022480     1.000000    0.00027145
   46      -16.4129728175      -0.0000020041     1.000000    0.00025664
   47      -16.4129746038      -0.0000017863     1.000000    0.00024259
   48      -16.4129761955      -0.0000015918     1.000000    0.00022925
   49      -16.4129776136      -0.0000014181     1.000000    0.00021661
   50      -16.4129788767      -0.0000012631     1.000000    0.00020464
   51      -16.4129800015      -0.0000011248     1.000000    0.00019329
   52      -16.4129810030      -0.0000010015     1.000000    0.00018254
   53      -16.4129818946      -0.0000008915     1.000000    0.00017236
   54      -16.4129826881      -0.0000007935     1.000000    0.00016273
   55      -16.4129833942      -0.0000007061     1.000000    0.00015361
   56      -16.4129840225      -0.0000006283     1.000000    0.00014499
   57      -16.4129845815      -0.0000005589     1.000000    0.00013684
   58      -16.4129850786      -0.0000004972     1.000000    0.00012913
   59      -16.4129855208      -0.0000004422     1.000000    0.00012184
   60      -16.4129859141      -0.0000003932     1.000000    0.00011495
   61      -16.4129862637      -0.0000003497     1.000000    0.00010845
   62      -16.4129865746      -0.0000003109     1.000000    0.00010230
   63      -16.4129868509      -0.0000002764     1.000000    0.00009649
   64      -16.4129870966      -0.0000002456     1.000000    0.00009101
   65      -16.4129873149      -0.0000002183     1.000000    0.00008583
   66      -16.4129875090      -0.0000001940     1.000000    0.00008094
   67      -16.4129876814      -0.0000001724     1.000000    0.00007632
   68      -16.4129878346      -0.0000001532     1.000000    0.00007197
   69      -16.4129879708      -0.0000001361     1.000000    0.00006785
   70      -16.4129880917      -0.0000001210     1.000000    0.00006397
   71      -16.4129881992      -0.0000001075     1.000000    0.00006031
   72      -16.4129882946      -0.0000000955     1.000000    0.00005686
   73      -16.4129883794      -0.0000000848     1.000000    0.00005360
   74      -16.4129884547      -0.0000000753     1.000000    0.00005052
   75      -16.4129885216      -0.0000000669     1.000000    0.00004763
   76      -16.4129885810      -0.0000000594     1.000000    0.00004489
   77      -16.4129886338      -0.0000000528     1.000000    0.00004231
   78      -16.4129886806      -0.0000000469     1.000000    0.00003988
   79      -16.4129887222      -0.0000000416     1.000000    0.00003758
   80      -16.4129887592      -0.0000000369     1.000000    0.00003542
   81      -16.4129887920      -0.0000000328     1.000000    0.00003338
   82      -16.4129888211      -0.0000000291     1.000000    0.00003146
   83      -16.4129888470      -0.0000000259     1.000000    0.00002965
   84      -16.4129888700      -0.0000000230     1.000000    0.00002794
   85      -16.4129888904      -0.0000000204     1.000000    0.00002633
   86      -16.4129889085      -0.0000000181     1.000000    0.00002481
   87      -16.4129889245      -0.0000000161     1.000000    0.00002338
   88      -16.4129889388      -0.0000000143     1.000000    0.00002203
   89      -16.4129889515      -0.0000000127     1.000000    0.00002076
   90      -16.4129889627      -0.0000000112     1.000000    0.00001956
   91      -16.4129889727      -0.0000000100     1.000000    0.00001843
   92      -16.4129889815      -0.0000000089     1.000000    0.00001736
   93      -16.4129889894      -0.0000000079     1.000000    0.00001636
   94      -16.4129889964      -0.0000000070     1.000000    0.00001542
   95      -16.4129890026      -0.0000000062     1.000000    0.00001452
   96      -16.4129890081      -0.0000000055     1.000000    0.00001368
   97      -16.4129890130      -0.0000000049     1.000000    0.00001289
   98      -16.4129890173      -0.0000000043     1.000000    0.00001215
   99      -16.4129890212      -0.0000000038     1.000000    0.00001145
  100      -16.4129890246      -0.0000000034     1.000000    0.00001078
  101      -16.4129890276      -0.0000000030     1.000000    0.00001016
  102      -16.4129890303      -0.0000000027     1.000000    0.00000957
  103      -16.4129890327      -0.0000000024     1.000000    0.00000902
  104      -16.4129890348      -0.0000000021     1.000000    0.00000850
  105      -16.4129890367      -0.0000000019     1.000000    0.00000800
  106      -16.4129890383      -0.0000000017     1.000000    0.00000754
  107      -16.4129890398      -0.0000000015     1.000000    0.00000710
  108      -16.4129890411      -0.0000000013     1.000000    0.00000669
  109      -16.4129890423      -0.0000000012     1.000000    0.00000631
  110      -16.4129890433      -0.0000000010     1.000000    0.00000594
  111      -16.4129890443      -0.0000000009     1.000000    0.00000560
  112      -16.4129890451      -0.0000000008     1.000000    0.00000527
  113      -16.4129890458      -0.0000000007     1.000000    0.00000497
  114      -16.4129890464      -0.0000000006     1.000000    0.00000468
  115      -16.4129890470      -0.0000000006     1.000000    0.00000441
  116      -16.4129890475      -0.0000000005     1.000000    0.00000415
  117      -16.4129890480      -0.0000000004     1.000000    0.00000391
  118      -16.4129890484      -0.0000000004     1.000000    0.00000369
  119      -16.4129890487      -0.0000000004     1.000000    0.00000347
  120      -16.4129890490      -0.0000000003     1.000000    0.00000327
  121      -16.4129890493      -0.0000000003     1.000000    0.00000308
  122      -16.4129890496      -0.0000000002     1.000000    0.00000290
  123      -16.4129890498      -0.0000000002     1.000000    0.00000273
  124      -16.4129890500      -0.0000000002     1.000000    0.00000258
  125      -16.4129890501      -0.0000000002     1.000000    0.00000243
  126      -16.4129890503      -0.0000000002     1.000000    0.00000229
  127      -16.4129890504      -0.0000000001     1.000000    0.00000215
  128      -16.4129890506      -0.0000000001     1.000000    0.00000203
  129      -16.4129890507      -0.0000000001     1.000000    0.00000191
  130      -16.4129890508      -0.0000000001     1.000000    0.00000180
  131      -16.4129890508      -0.0000000001     1.000000    0.00000170
  132      -16.4129890509      -0.0000000001     1.000000    0.00000160
  133      -16.4129890510      -0.0000000001     1.000000    0.00000151
  134      -16.4129890510      -0.0000000001     1.000000    0.00000142
  135      -16.4129890511      -0.0000000001     1.000000    0.00000134
  136      -16.4129890511      -0.0000000000     1.000000    0.00000126
  137      -16.4129890512      -0.0000000000     1.000000    0.00000119
  138      -16.4129890512      -0.0000000000     1.000000    0.00000112
  139      -16.4129890512      -0.0000000000     1.000000    0.00000105
  140      -16.4129890513      -0.0000000000     1.000000    0.00000099
  
--------------------------------------------------
 Final SA-REKS(2,2) energy:     -16.41298905
  
 State     Energy      FON(1)    FON(2)   Spin
  PPS  -16.48342963   2.000000  0.000000  0.00
  OSS  -16.34254847   1.000000  1.000000  0.00
 Trip  -16.36196017   1.000000  1.000000  1.00
--------------------------------------------------

 Lagrangian Wab:   0.00050253  0.00050251

--------------------------------------------------
 SSR: 2SI-2SA-REKS(2,2) Hamiltonian matrix
               PPS           OSS
   PPS   -16.48342963    0.00071063
   OSS     0.00071063  -16.34254847
--------------------------------------------------

----------------------------------------------------------------
 SSR: 2SI-2SA-REKS(2,2) states
                    E_n       C_{PPS}    C_{OSS}
 SSR state  1  -16.48343322  -0.999987   0.005044
 SSR state  2  -16.34254489  -0.005044  -0.999987
----------------------------------------------------------------

 unrelaxed SSR FONs for S0:  1.999975  0.000025

Total Energy:                      -16.4834332154 H         -448.5370 eV
Extrapolated to 0:                 -16.4834332154 H         -448.5370 eV

----------------------------------------------------------------------------------
 Solving CP-REKS equation for  1 state vector...
----------------------------------------------------------------------------------
  CG solver: Constructing Y initial guess
  CG solver: Iteration    1    eps =    0.000247768281
  CG solver: Iteration    2    eps =    0.000039364793
  CG solver: Iteration    3    eps =    0.000020707001
  CG solver: Iteration    4    eps =    0.000003769565
  CG solver: Iteration    5    eps =    0.000003174636
  CG solver: Iteration    6    eps =    0.000001405160
  CG solver: Iteration    7    eps =    0.000000083047
  CG solver: Iteration    8    eps =    0.000000011983
  CG solver: Iteration    9    eps =    0.000000001197
  Convergence reached in CG solver after    9 iterations
  CG solver: Calculating converged R, Z, Q2 matrix
----------------------------------------------------------------------------------

----------------------------------------------------------------------------------
 Solving CP-REKS equation for SI between  1 and  2 state vectors...
----------------------------------------------------------------------------------
  CG solver: Constructing Y initial guess
  CG solver: Iteration    1    eps =    0.014703197436
  CG solver: Iteration    2    eps =    0.000755495249
  CG solver: Iteration    3    eps =    0.000048233985
  CG solver: Iteration    4    eps =    0.000035470734
  CG solver: Iteration    5    eps =    0.000004931063
  CG solver: Iteration    6    eps =    0.000004021740
  CG solver: Iteration    7    eps =    0.000002445295
  CG solver: Iteration    8    eps =    0.000000169425
  CG solver: Iteration    9    eps =    0.000000012693
  CG solver: Iteration   10    eps =    0.000000002517
  Convergence reached in CG solver after   10 iterations
  CG solver: Calculating converged R, Z, Q2 matrix
----------------------------------------------------------------------------------

--------------------------------------------------
 Gradient Information
--------------------------------------------------
           1 st state (SSR)
    -0.00872508     0.01744874     0.02883929
     0.03089667     0.01624134    -0.03060596
     0.00799361    -0.02425181     0.00567450
    -0.00499668     0.02558160    -0.01583183
     0.01288964     0.02102545    -0.00096408
    -0.02523502    -0.03932999    -0.02182353
     0.05132870    -0.04379539     0.01499904
    -0.00284061     0.00451169     0.00684627
     0.01136097    -0.00502678     0.02090431
    -0.00985664     0.05739347     0.01970953
     0.00731337    -0.01486877     0.00015215
    -0.07756506    -0.02807306     0.00680772
     0.03380944    -0.02366601     0.00639034
    -0.02637332     0.03680951    -0.04109775

           2 st state (SSR)
     0.03645886     0.01740951    -0.01299511
    -0.01996796    -0.00720223     0.01560474
    -0.00026275    -0.02809978    -0.00379651
     0.00337900     0.02665440    -0.01338455
     0.00098086     0.01911404    -0.01209532
     0.01136635    -0.01640362     0.02955837
     0.01100881    -0.01268664    -0.01860689
     0.00378975    -0.00137365    -0.00085983
     0.01708012    -0.00713108     0.02131934
     0.11017529     0.06692089    -0.02343076
     0.00587060    -0.00975265     0.00798985
    -0.19016738    -0.06480684     0.04558506
     0.03938163    -0.02278002     0.01168242
    -0.02909318     0.04013769    -0.04657081
--------------------------------------------------
 Coupling Information
--------------------------------------------------
 between  1 and  2 states
--------------------------------------------------
 g vector - difference gradient
    -0.02252451     0.00001690     0.02086473
     0.02532627     0.01173135    -0.02303817
     0.00411866     0.00191969     0.00472431
    -0.00417560    -0.00053500    -0.00121949
     0.00594309     0.00094841     0.00554417
    -0.01836658    -0.01152971    -0.02573542
     0.02025403    -0.01550273     0.01689375
    -0.00330152     0.00293239     0.00384161
    -0.00286472     0.00106562    -0.00019498
    -0.05995478    -0.00474963     0.02151256
     0.00072051    -0.00255004    -0.00391205
     0.05624761     0.01836529    -0.01936468
    -0.00278267    -0.00044692    -0.00264794
     0.00136020    -0.00166562     0.00273160

 h vector - derivative coupling
     0.00680143    -0.00026958    -0.00530633
    -0.01063927     0.00088909     0.00677532
    -0.00096461    -0.00043540    -0.00113382
     0.00123435     0.00014099     0.00041734
    -0.00114999    -0.00072749    -0.00215473
    -0.00643914    -0.00653657    -0.00427847
     0.00922433     0.00519794     0.00891429
     0.00137059    -0.00103403    -0.00115343
    -0.00049530     0.00133029     0.00124405
     0.00636727     0.00141904    -0.00581690
    -0.00009078     0.00080774     0.00069374
    -0.00559201    -0.00025168     0.00247585
     0.00035287    -0.00038667    -0.00017487
     0.00002027    -0.00014368    -0.00050204

 G vector - GDV
    -0.02259197     0.00001962     0.02091720
     0.02543231     0.01172178    -0.02310535
     0.00412818     0.00192398     0.00473550
    -0.00418784    -0.00053640    -0.00122364
     0.00595439     0.00095570     0.00556562
    -0.01830068    -0.01146318    -0.02569095
     0.02015995    -0.01555438     0.01680296
    -0.00331518     0.00294267     0.00385305
    -0.00285957     0.00105215    -0.00020752
    -0.06001596    -0.00476371     0.02157015
     0.00072139    -0.00255806    -0.00391885
     0.05630116     0.01836689    -0.01938867
    -0.00278609    -0.00044299    -0.00264604
     0.00135993    -0.00166409     0.00273653

 H vector - DCV - non-adiabatic coupling
     0.04666007    -0.00191213    -0.03616748
    -0.07369839     0.00715026     0.04643797
    -0.00655137    -0.00295280    -0.00770899
     0.00846180     0.00096237     0.00287473
    -0.00773644    -0.00509539    -0.01489610
    -0.04701664    -0.04721858    -0.03220898
     0.06691951     0.03578217     0.06447846
     0.00949130    -0.00712899    -0.00791136
    -0.00372051     0.00951797     0.00881562
     0.04089854     0.00973148    -0.03974487
    -0.00059275     0.00555033     0.00464368
    -0.03566165    -0.00047128     0.01618566
     0.00230526    -0.00277639    -0.00143070
     0.00024126    -0.00113900    -0.00336765
--------------------------------------------------


--------------------------------------------------------------------------------
DFTB+ running times                          cpu [s]             wall clock [s]
--------------------------------------------------------------------------------
SCC                                    +     0.16  ( 38.6%)      0.16  ( 38.7%)
      Dense to sparse                        0.03  (  7.1%)      0.03  (  6.7%)
      Range separated Hamiltonian            0.01  (  3.4%)      0.02  (  3.8%)
  Density matrix creation                    0.02  (  4.2%)      0.02  (  4.5%)
Post-SCC processing                    +     0.25  ( 61.1%)      0.25  ( 60.9%)
  Force calculation                          0.25  ( 61.0%)      0.25  ( 60.6%)
--------------------------------------------------------------------------------
Missing                                +     0.00  (  0.3%)      0.00  (  0.5%)
Total                                  =     0.41  (100.0%)      0.42  (100.0%)
--------------------------------------------------------------------------------
