     6
  Step:   300            Position(A)                                  Velocity(au)
C        -0.03451625    -0.01756639     0.02196274    -0.00003602     0.00001325    -0.00000966
N        -0.03549668    -0.00377115     1.30191103     0.00002230    -0.00005830    -0.00000864
H         0.85559209     0.13904477    -0.59064144    -0.00001729     0.00090336     0.00078238
H         0.76126508    -0.40079139     1.79962012     0.00004559    -0.00066363    -0.00069046
H        -0.92518019    -0.07392730     1.80778394    -0.00018779     0.00146635     0.00006078
H        -1.00005562    -0.07238358    -0.47824662     0.00027892    -0.00105378     0.00008246
