     6
  Step:   300            Position(A)                                  Velocity(au)
C        -0.03346100     0.01743306     0.02591115    -0.00000082     0.00001028    -0.00012843
N        -0.04724031    -0.05739882     1.29009112     0.00001660     0.00000574     0.00010057
H         0.91610874    -0.06722075    -0.49330066    -0.00000988    -0.00061704    -0.00013763
H         0.81273269    -0.05628637     1.83854127    -0.00011165     0.00055681     0.00028731
H        -0.91896920    -0.11093241     1.82057922    -0.00001857    -0.00068555    -0.00009536
H        -0.96761723     0.15458694    -0.51009374    -0.00008077     0.00054350     0.00007856
