     6
  Step:     0            Position(A)                                  Velocity(au)
C        -0.03458611     0.00391014     0.01188559    -0.00005072    -0.00002386    -0.00021966
N        -0.04335494    -0.04391208     1.30328782    -0.00025748    -0.00012236     0.00021163
H         0.94098380     0.06499344    -0.57464850     0.00032404     0.00021682    -0.00022657
H         0.80938218    -0.13104203     1.86653995     0.00198500     0.00072099     0.00027262
H        -0.93637705    -0.14338467     1.83515430     0.00100450     0.00065812    -0.00100625
H        -1.01232125     0.10327929    -0.48757986     0.00086893     0.00038876     0.00063673
     6
  Step:     1            Position(A)                                  Velocity(au)
C        -0.03484591     0.00377771     0.01056715    -0.00004327    -0.00002463    -0.00026076
N        -0.04477254    -0.04457951     1.30455890    -0.00025805    -0.00012163     0.00025196
H         0.94256053     0.06618696    -0.57590018     0.00025058     0.00021918    -0.00022961
H         0.82030568    -0.12712832     1.86813208     0.00198814     0.00071194     0.00029733
H        -0.93076340    -0.13981789     1.82963419     0.00103016     0.00064358    -0.00099905
H        -1.00763969     0.10545816    -0.48435334     0.00083273     0.00040900     0.00053713
     6
  Step:     2            Position(A)                                  Velocity(au)
C        -0.03505958     0.00364060     0.00903226    -0.00003386    -0.00002555    -0.00029817
N        -0.04617859    -0.04524295     1.30604488    -0.00025291    -0.00012070     0.00028949
H         0.94372572     0.06739174    -0.57716101     0.00017386     0.00022065    -0.00022990
H         0.83113694    -0.12325175     1.86979346     0.00194973     0.00070606     0.00029858
H        -0.92510477    -0.13634242     1.82422243     0.00101818     0.00062387    -0.00096457
H        -1.00320927     0.10775470    -0.48170241     0.00077627     0.00043119     0.00042606
     6
  Step:     3            Position(A)                                  Velocity(au)
C        -0.03521671     0.00349794     0.00730215    -0.00002267    -0.00002663    -0.00033148
N        -0.04754184    -0.04590117     1.30772878    -0.00024215    -0.00011952     0.00032357
H         0.94446425     0.06860304    -0.57841756     0.00009510     0.00022128    -0.00022806
H         0.84165514    -0.11939704     1.87140147     0.00187284     0.00070262     0.00027876
H        -0.91961433    -0.13298657     1.81907217     0.00096664     0.00059915    -0.00090197
H        -0.99913953     0.11017970    -0.47968798     0.00070059     0.00045528     0.00030472
     6
  Step:     4            Position(A)                                  Velocity(au)
C        -0.03530798     0.00334877     0.00540011    -0.00000992    -0.00002790    -0.00036039
N        -0.04883194    -0.04655264     1.30959034    -0.00022606    -0.00011807     0.00035370
H         0.94476781     0.06981645    -0.57965998     0.00001557     0.00022117    -0.00022477
H         0.85165853    -0.11555279     1.87284796     0.00176150     0.00070100     0.00024075
H        -0.91451283    -0.12977730     1.81433916     0.00087514     0.00056980    -0.00081143
H        -0.99553254     0.11274342    -0.47836345     0.00060751     0.00048116     0.00017469
     6
  Step:     5            Position(A)                                  Velocity(au)
C        -0.03532550     0.00319208     0.00335074     0.00000408    -0.00002935    -0.00038475
N        -0.05002047    -0.04719570     1.31160683    -0.00020509    -0.00011632     0.00037954
H         0.94463497     0.07102800    -0.58088207    -0.00006351     0.00022039    -0.00022072
H         0.86096887    -0.11171098     1.87404119     0.00162027     0.00070064     0.00018763
H        -0.91001895    -0.12673908     1.81017530     0.00074509     0.00053640    -0.00069434
H        -0.99247861     0.11545533    -0.47777258     0.00049953     0.00050867     0.00003788
     6
  Step:     6            Position(A)                                  Velocity(au)
C        -0.03526319     0.00302683     0.00117923     0.00001900    -0.00003098    -0.00040455
N        -0.05108184    -0.04782870     1.31375403    -0.00017982    -0.00011429     0.00040093
H         0.94407104     0.07223424    -0.58208140    -0.00014097     0.00021906    -0.00021659
H         0.86943354    -0.10786645     1.87490637     0.00145395     0.00070108     0.00012249
H        -0.90633886    -0.12389279     1.80672196     0.00057980     0.00049968    -0.00055323
H        -0.99005254     0.11832379    -0.47794788     0.00037978     0.00053759    -0.00010357
     6
  Step:     7            Position(A)                                  Velocity(au)
C        -0.03511699     0.00285203    -0.00108937     0.00003443    -0.00003279    -0.00041986
N        -0.05199411    -0.04845008     1.31600723    -0.00015100    -0.00011201     0.00041787
H         0.94308779     0.07343232    -0.58325926    -0.00021566     0.00021729    -0.00021305
H         0.87692668    -0.10401633     1.87538555     0.00126739     0.00070193     0.00004833
H        -0.90365540    -0.12125485     1.80410331     0.00038449     0.00046050    -0.00039181
H        -0.98831035     0.12135562    -0.47890934     0.00025188     0.00056759    -0.00024735
     6
  Step:     8            Position(A)                                  Velocity(au)
C        -0.03488514     0.00266678    -0.00343067     0.00004997    -0.00003476    -0.00043085
N        -0.05273974    -0.04905851     1.31834210    -0.00011946    -0.00010952     0.00043051
H         0.94170317     0.07461995    -0.58442057    -0.00028653     0.00021517    -0.00021073
H         0.88334884    -0.10015964     1.87543698     0.00106522     0.00070286    -0.00003202
H        -0.90211736    -0.11883668     1.80242004     0.00016618     0.00041978    -0.00021480
H        -0.98728704     0.12455566    -0.48066363     0.00011974     0.00059827    -0.00039102
     6
  Step:     9            Position(A)                                  Velocity(au)
C        -0.03456820     0.00247030    -0.00582134     0.00006517    -0.00003684    -0.00043772
N        -0.05330607    -0.04965290     1.32073547    -0.00008612    -0.00010686     0.00043909
H         0.93994092     0.07579545    -0.58557369    -0.00035253     0.00021279    -0.00021024
H         0.88862578    -0.09629696     1.87503392     0.00085186     0.00070359    -0.00011591
H        -0.90183030    -0.11664444     1.80174419    -0.00006665     0.00037846    -0.00002773
H        -0.98699522     0.12792635    -0.48320387    -0.00001255     0.00062915    -0.00053215
     6
  Step:    10            Position(A)                                  Velocity(au)
C        -0.03416916     0.00226202    -0.00823926     0.00007961    -0.00003902    -0.00044067
N        -0.05368579    -0.05023241     1.32316583    -0.00005196    -0.00010407     0.00044392
H         0.93783039     0.07695759    -0.58673021    -0.00041267     0.00021023    -0.00021213
H         0.89270704    -0.09243024     1.87416360     0.00063149     0.00070385    -0.00020090
H        -0.90284951    -0.11467909     1.80211542    -0.00030446     0.00033741     0.00016334
H        -0.98742489     0.13146728    -0.48650963    -0.00014095     0.00065964    -0.00066829
     6
  Step:    11            Position(A)                                  Velocity(au)
C        -0.03369336     0.00204157    -0.01066357     0.00009287    -0.00004123    -0.00043991
N        -0.05387703    -0.05079646     1.32561350    -0.00001798    -0.00010119     0.00044533
H         0.93540633     0.07810555    -0.58790464    -0.00046595     0.00020754    -0.00021688
H         0.89556485    -0.08856271     1.87282638     0.00040816     0.00070338    -0.00028463
H        -0.90517589    -0.11293681     1.80353899    -0.00053726     0.00029745     0.00035210
H        -0.98854405     0.13517473    -0.49054738    -0.00026158     0.00068907    -0.00079709
     6
  Step:    12            Position(A)                                  Velocity(au)
C        -0.03314841     0.00180885    -0.01307461     0.00010453    -0.00004343    -0.00043563
N        -0.05388347    -0.05134466     1.32806074     0.00001482    -0.00009824     0.00044362
H         0.93270878     0.07923881    -0.58911409    -0.00051142     0.00020475    -0.00022492
H         0.89719342    -0.08469886     1.87103504     0.00018588     0.00070192    -0.00036484
H        -0.90875489    -0.11140954     1.80598557    -0.00075510     0.00025928     0.00053237
H        -0.99030015     0.13904139    -0.49527111    -0.00037089     0.00071675    -0.00091633
     6
  Step:    13            Position(A)                                  Velocity(au)
C        -0.03254395     0.00156404    -0.01545378     0.00011425    -0.00004556    -0.00042802
N        -0.05371404    -0.05187673     1.33049152     0.00004552    -0.00009525     0.00043908
H         0.92978276     0.08035703    -0.59037782    -0.00054819     0.00020189    -0.00023657
H         0.89760876    -0.08084438     1.86881455    -0.00003130     0.00069924    -0.00043932
H        -0.91347894    -0.11008581     1.80939290    -0.00094879     0.00022342     0.00069842
H        -0.99262233     0.14305613    -0.50062329    -0.00046577     0.00074196    -0.00102395
     6
  Step:    14            Position(A)                                  Velocity(au)
C        -0.03189144     0.00130758    -0.01778348     0.00012174    -0.00004758    -0.00041725
N        -0.05338263    -0.05239250     1.33289132     0.00007327    -0.00009221     0.00043196
H         0.92667788     0.08145994    -0.59171671    -0.00057548     0.00019896    -0.00025207
H         0.89684907    -0.07700616     1.86620184    -0.00023922     0.00069514    -0.00050586
H        -0.91919304    -0.10895154     1.81366923    -0.00111045     0.00019030     0.00084529
H        -0.99542433     0.14720401    -0.50653611    -0.00054371     0.00076399    -0.00111821
     6
  Step:    15            Position(A)                                  Velocity(au)
C        -0.03120377     0.00104022    -0.02004703     0.00012677    -0.00004944    -0.00040349
N        -0.05290744    -0.05289181     1.33524678     0.00009733    -0.00008914     0.00042244
H         0.92344766     0.08254731    -0.59315267    -0.00059268     0.00019596    -0.00027151
H         0.89497536    -0.07319202     1.86324577    -0.00043362     0.00068946    -0.00056232
H        -0.92570324    -0.10799088     1.81869821    -0.00123395     0.00016016     0.00096904
H        -0.99860773     0.15146650    -0.51293301    -0.00060283     0.00078224    -0.00119766
     6
  Step:    16            Position(A)                                  Velocity(au)
C        -0.03049487     0.00076294    -0.02222872     0.00012919    -0.00005108    -0.00038696
N        -0.05231035    -0.05337455     1.33754535     0.00011712    -0.00008604     0.00041067
H         0.92014842     0.08361883    -0.59470790    -0.00059944     0.00019288    -0.00029487
H         0.89207197    -0.06941042     1.86000686    -0.00061023     0.00068217    -0.00060663
H        -0.93278729    -0.10718705     1.82434500    -0.00131531     0.00013312     0.00106696
H        -1.00206562     0.15582188    -0.51973058    -0.00064199     0.00079621    -0.00126130
     6
  Step:    17            Position(A)                                  Velocity(au)
C        -0.02977925     0.00047695    -0.02431393     0.00012776    -0.00004965    -0.00040684
N        -0.05161600    -0.05384056     1.33977511     0.00013198    -0.00008484     0.00042619
H         0.91683791     0.08467413    -0.59640412    -0.00061533     0.00011881    -0.00029432
H         0.88824661    -0.06567000     1.85655675    -0.00077913     0.00074574    -0.00063822
H        -0.94020660    -0.10652303     1.83046316    -0.00133869     0.00004245     0.00112736
H        -1.00568668     0.16024601    -0.52684088    -0.00062322     0.00086355    -0.00126934
     6
  Step:    18            Position(A)                                  Velocity(au)
C        -0.02908470     0.00021497    -0.02671938     0.00012205    -0.00004437    -0.00047140
N        -0.05085360    -0.05431098     1.34224951     0.00014214    -0.00008605     0.00047622
H         0.91335656     0.08493020    -0.59795656    -0.00064102    -0.00000691    -0.00026291
H         0.88347207    -0.06117911     1.85296229    -0.00094283     0.00085880    -0.00066158
H        -0.94756339    -0.10671848     1.83678859    -0.00130116    -0.00008708     0.00114507
H        -1.00894460     0.16535354    -0.53374128    -0.00054449     0.00095971    -0.00122111
     6
  Step:    19            Position(A)                                  Velocity(au)
C        -0.02843045    -0.00001336    -0.02952344     0.00011322    -0.00003796    -0.00054169
N        -0.05004522    -0.05479154     1.34503788     0.00014781    -0.00008782     0.00053132
H         0.90975387     0.08459777    -0.59930963    -0.00065480    -0.00010669    -0.00022776
H         0.87782717    -0.05617930     1.84924554    -0.00108310     0.00094160    -0.00067451
H        -0.95458599    -0.10748541     1.84311750    -0.00121926    -0.00018073     0.00113119
H        -1.01170398     0.17085196    -0.54033561    -0.00044599     0.00101854    -0.00115764
     6
  Step:    20            Position(A)                                  Velocity(au)
C        -0.02783161    -0.00020519    -0.03271437     0.00010182    -0.00003119    -0.00060787
N        -0.04921779    -0.05528287     1.34812978     0.00014850    -0.00008958     0.00058275
H         0.90610971     0.08374940    -0.60047726    -0.00065316    -0.00019488    -0.00019655
H         0.87148518    -0.05075819     1.84549733    -0.00118811     0.00101025    -0.00066907
H        -0.96105721    -0.10871862     1.84930772    -0.00110110    -0.00025771     0.00109345
H        -1.01388046     0.17662593    -0.54655319    -0.00033457     0.00105879    -0.00108249
     6
  Step:    21            Position(A)                                  Velocity(au)
C        -0.02730171    -0.00035912    -0.03626205     0.00008816    -0.00002426    -0.00066742
N        -0.04839897    -0.05578455     1.35149794     0.00014425    -0.00009120     0.00062815
H         0.90251318     0.08243743    -0.60148852    -0.00063499    -0.00027404    -0.00017143
H         0.86465631    -0.04498007     1.84182855    -0.00125244     0.00106804    -0.00064255
H        -0.96679231    -0.11034223     1.85523898    -0.00095314    -0.00032201     0.00103593
H        -1.01541286     0.18258921    -0.55233559    -0.00021442     0.00108449    -0.00099807
     6
  Step:    22            Position(A)                                  Velocity(au)
C        -0.02685259    -0.00047459    -0.04012627     0.00007259    -0.00001731    -0.00071899
N        -0.04761588    -0.05629571     1.35510564     0.00013526    -0.00009265     0.00066629
H         0.89905794     0.08070605    -0.60238105    -0.00060003    -0.00034540    -0.00015363
H         0.85757645    -0.03889722     1.83836161    -0.00127284     0.00111703    -0.00059370
H        -0.97164208    -0.11229470     1.86081202    -0.00078224    -0.00037584     0.00096272
H        -1.01626169     0.18866957    -0.55763705    -0.00008946     0.00109808    -0.00090693
     6
  Step:    23            Position(A)                                  Velocity(au)
C        -0.02649416    -0.00055174    -0.04426103     0.00005550    -0.00001047    -0.00076199
N        -0.04689414    -0.05681535     1.35891063     0.00012194    -0.00009394     0.00069658
H         0.89583765     0.07859479    -0.60319771    -0.00054885    -0.00040978    -0.00014382
H         0.85049557    -0.03255272     1.83522339    -0.00124827     0.00115908    -0.00052253
H        -0.97549498    -0.11452356     1.86594952    -0.00059546    -0.00042076     0.00087803
H        -1.01640809     0.19480573    -0.56242543     0.00003671     0.00110170    -0.00081172
     6
  Step:    24            Position(A)                                  Velocity(au)
C        -0.02623410    -0.00059132    -0.04861800     0.00003731    -0.00000384    -0.00079647
N        -0.04625694    -0.05734258     1.36286841     0.00010484    -0.00009511     0.00071905
H         0.89294156     0.07613945    -0.60398382    -0.00048269    -0.00046801    -0.00014222
H         0.84366559    -0.02598036     1.83253853    -0.00118002     0.00119616    -0.00043018
H        -0.97827796    -0.11698363     1.87059685    -0.00039965    -0.00045817     0.00078606
H        -1.01585255     0.20094700    -0.56668289     0.00016088     0.00109750    -0.00071510
     6
  Step:    25            Position(A)                                  Velocity(au)
C        -0.02607778    -0.00059458    -0.05314961     0.00001843     0.00000253    -0.00082297
N        -0.04572412    -0.05787682     1.36693520     0.00008463    -0.00009627     0.00073421
H         0.89045081     0.07337185    -0.60478487    -0.00040338    -0.00052102    -0.00014864
H         0.83732660    -0.01920360     1.83042255    -0.00107159     0.00123040    -0.00031889
H        -0.97995502    -0.11963671     1.87472191    -0.00020108    -0.00048945     0.00069081
H        -1.01461263     0.20705381    -0.57040597     0.00028037     0.00108773    -0.00061961
     6
  Step:    26            Position(A)                                  Velocity(au)
C        -0.02602820    -0.00056308    -0.05781181    -0.00000075     0.00000859    -0.00084245
N        -0.04531147    -0.05841803     1.37107062     0.00006207    -0.00009751     0.00074295
H         0.88843523     0.07031889    -0.60564431    -0.00031309    -0.00056991    -0.00016254
H         0.83169428    -0.01223495     1.82897607    -0.00092839     0.00126399    -0.00019164
H        -0.98052435    -0.12245156     1.87831426    -0.00000525    -0.00051601     0.00059593
H        -1.01272040     0.21309859    -0.57360481     0.00039306     0.00107467    -0.00052744
     6
  Step:    27            Position(A)                                  Velocity(au)
C        -0.02608615    -0.00049860    -0.06256617    -0.00001988     0.00001432    -0.00085605
N        -0.04503027    -0.05896675     1.37523962     0.00003796    -0.00009894     0.00074637
H         0.88695124     0.06700164    -0.60660166    -0.00021418    -0.00061584    -0.00018311
H         0.82694942    -0.00507533     1.82828044    -0.00075721     0.00129890    -0.00005199
H        -0.98001367    -0.12540449     1.88138296     0.00018338    -0.00053921     0.00050449
H        -1.01021916     0.21906600    -0.57630149     0.00049745     0.00106042    -0.00044040
     6
  Step:    28            Position(A)                                  Velocity(au)
C        -0.02625046    -0.00040298    -0.06738071    -0.00003867     0.00001973    -0.00086489
N        -0.04488714    -0.05952400     1.37941342     0.00001310    -0.00010063     0.00074552
H         0.88604119     0.06343505    -0.60769111    -0.00010900    -0.00065995    -0.00020933
H         0.82323028     0.00228404     1.82839494    -0.00056573     0.00133668     0.00009621
H        -0.97847458    -0.12847878     1.88395343     0.00036118    -0.00056026     0.00041899
H        -1.00716000     0.22495187    -0.57852757     0.00059243     0.00104678    -0.00035981
     6
  Step:    29            Position(A)                                  Velocity(au)
C        -0.02651826    -0.00027810    -0.07222980    -0.00005684     0.00002483    -0.00086990
N        -0.04488396    -0.06009112     1.38356947    -0.00001172    -0.00010261     0.00074135
H         0.88573331     0.05962793    -0.60894051     0.00000009    -0.00070321    -0.00024000
H         0.82062846     0.00985970     1.82935538    -0.00036211     0.00137829     0.00024889
H        -0.97597814    -0.13166444     1.88606447     0.00052513    -0.00058026     0.00034144
H        -1.00359980     0.23076186    -0.58032176     0.00067711     0.00103515    -0.00028663
     6
  Step:    30            Position(A)                                  Velocity(au)
C        -0.02688508    -0.00012575    -0.07709302    -0.00007411     0.00002962    -0.00087169
N        -0.04501800    -0.06066959     1.38769046    -0.00003569    -0.00010485     0.00073451
H         0.88604216     0.05558383    -0.61037065     0.00011076    -0.00074636    -0.00027380
H         0.81918741     0.01767249     1.83117375    -0.00015470     0.00142392     0.00040187
H        -0.97261159    -0.13495729     1.88776552     0.00067247    -0.00060003     0.00027343
H        -0.99960019     0.23650923    -0.58172772     0.00075054     0.00102651    -0.00022149
     6
  Step:    31            Position(A)                                  Velocity(au)
C        -0.02734496     0.00005229    -0.08195344    -0.00009020     0.00003410    -0.00087060
N        -0.04528206    -0.06126066     1.39176290    -0.00005801    -0.00010727     0.00072544
H         0.88696883     0.05130238    -0.61199469     0.00022061    -0.00078983    -0.00030929
H         0.81890284     0.02574340     1.83383825     0.00004817     0.00147301     0.00055091
H        -0.96847677    -0.13835775     1.88911454     0.00080048    -0.00062021     0.00021635
H        -0.99522754     0.24221246    -0.58279245     0.00081171     0.00102140    -0.00016488
     6
  Step:    32            Position(A)                                  Velocity(au)
C        -0.02789034     0.00025428    -0.08679592    -0.00010479     0.00003825    -0.00086668
N        -0.04566455    -0.06186514     1.39577556    -0.00007791    -0.00010976     0.00071432
H         0.88850091     0.04678102    -0.61381772     0.00032713    -0.00083377    -0.00034496
H         0.81972427     0.03408939     1.83731368     0.00023839     0.00152433     0.00069173
H        -0.96369009    -0.14186957     1.89017679     0.00090638    -0.00064120     0.00017143
H        -0.99055362     0.24789290    -0.58356535     0.00085942     0.00102011    -0.00011718
     6
  Step:    33            Position(A)                                  Velocity(au)
C        -0.02851202     0.00047830    -0.09160578    -0.00011757     0.00004204    -0.00085988
N        -0.04614971    -0.06248307     1.39971832    -0.00009463    -0.00011215     0.00070121
H         0.89061212     0.04201663    -0.61583653     0.00042772    -0.00087803    -0.00037928
H         0.82155784     0.04272007     1.84154216     0.00040844     0.00157619     0.00082030
H        -0.95838231    -0.14549883     1.89102373     0.00098743    -0.00066329     0.00013974
H        -0.98565604     0.25357349    -0.58409753     0.00089250     0.00102272    -0.00007872
     6
  Step:    34            Position(A)                                  Velocity(au)
C        -0.02919912     0.00072224    -0.09636791    -0.00012823     0.00004541    -0.00085006
N        -0.04671800    -0.06311359     1.40358130    -0.00010755    -0.00011428     0.00068613
H         0.89326220     0.03700693    -0.61803973     0.00051981    -0.00092231    -0.00041076
H         0.82427096     0.05163521     1.84644506     0.00055178     0.00162661     0.00093299
H        -0.95269824    -0.14925312     1.89173230     0.00104117    -0.00068663     0.00012218
H        -0.98061853     0.25927753    -0.58444167     0.00090981     0.00102922    -0.00004978
     6
  Step:    35            Position(A)                                  Velocity(au)
C        -0.02993910     0.00098370    -0.10106645    -0.00013647     0.00004832    -0.00083712
N        -0.04734672    -0.06375489     1.40735452    -0.00011616    -0.00011596     0.00066906
H         0.89639729     0.03175187    -0.62040806     0.00060097    -0.00096618    -0.00043809
H         0.82769886     0.06082338     1.85192587     0.00066323     0.00167361     0.00102687
H        -0.94679469    -0.15314064     1.89238358     0.00106567    -0.00071136     0.00011941
H        -0.97553031     0.26502816    -0.58465152     0.00091053     0.00103956    -0.00003052
     6
  Step:    36            Position(A)                                  Velocity(au)
C        -0.03071808     0.00126009    -0.10568508    -0.00014211     0.00005074    -0.00082107
N        -0.04801081    -0.06440426     1.41102793    -0.00012011    -0.00011706     0.00065006
H         0.89995104     0.02625330    -0.62291563     0.00066912    -0.00100928    -0.00046017
H         0.83165269     0.07026256     1.85787418     0.00073928     0.00171543     0.00109988
H        -0.94083728    -0.15717062     1.89306128     0.00105987    -0.00073764     0.00013166
H        -0.97048432     0.27084790    -0.58478137     0.00089427     0.00105367    -0.00002096
     6
  Step:    37            Position(A)                                  Velocity(au)
C        -0.03152118     0.00154857    -0.11020735    -0.00014500     0.00005262    -0.00080200
N        -0.04868395    -0.06505817     1.41459159    -0.00011932    -0.00011747     0.00062923
H         0.90384661     0.02051562    -0.62553115     0.00072262    -0.00105119    -0.00047622
H         0.83592927     0.07992121     1.86417076     0.00077831     0.00175063     0.00115096
H        -0.93499520    -0.16135275     1.89384935     0.00102381    -0.00076555     0.00015871
H        -0.96557443     0.27675858    -0.58488487     0.00086124     0.00107145    -0.00002087
     6
  Step:    38            Position(A)                                  Velocity(au)
C        -0.03233305     0.00184615    -0.11461740    -0.00014513     0.00005395    -0.00078014
N        -0.04933975    -0.06571255     1.41803606    -0.00011388    -0.00011709     0.00060677
H         0.90799934     0.01454558    -0.62821953     0.00076041    -0.00109159    -0.00048573
H         0.84032121     0.08976039     1.87069305     0.00078050     0.00177825     0.00118007
H        -0.92943457    -0.16569699     1.89482894     0.00095882    -0.00079516     0.00019974
H        -0.96089214     0.28278121    -0.58501377     0.00081227     0.00109281    -0.00002977
     6
  Step:    39            Position(A)                                  Velocity(au)
C        -0.03313840     0.00214975    -0.11890058    -0.00014258     0.00005473    -0.00075583
N        -0.04995298    -0.06636297     1.42135290    -0.00010413    -0.00011592     0.00058292
H         0.91231996     0.00835185    -0.63094373     0.00078201    -0.00113026    -0.00048857
H         0.84462647     0.09973646     1.87732042     0.00074762     0.00179780     0.00118807
H        -0.92431096    -0.17021329     1.89607508     0.00086757    -0.00082647     0.00025333
H        -0.95652319     0.28893588    -0.58521658     0.00074878     0.00111763    -0.00004694
     6
  Step:    40            Position(A)                                  Velocity(au)
C        -0.03392264     0.00245635    -0.12304402    -0.00013752     0.00005498    -0.00072944
N        -0.05050065    -0.06700493     1.42453503    -0.00009054    -0.00011396     0.00055801
H         0.91671791     0.00194438    -0.63366653     0.00078754    -0.00116710    -0.00048487
H         0.84865630     0.10980385     1.88393875     0.00068271     0.00180930     0.00117657
H        -0.91976210    -0.17491124     1.89765327     0.00075395    -0.00085944     0.00031749
H        -0.95254410     0.29524150    -0.58553705     0.00067278     0.00114571    -0.00007138
     6
  Step:    41            Position(A)                                  Velocity(au)
C        -0.03467235     0.00276303    -0.12703696    -0.00013023     0.00005474    -0.00070143
N        -0.05096294    -0.06763410     1.42757703    -0.00007378    -0.00011127     0.00053235
H         0.92110439    -0.00466621    -0.63635210     0.00077762    -0.00120209    -0.00047504
H         0.85224162     0.11991776     1.89044416     0.00058977     0.00181317     0.00114771
H        -0.91590125    -0.17979965     1.89961646     0.00062286    -0.00089390     0.00038975
H        -0.94901888     0.30171533    -0.58601281     0.00058676     0.00117676    -0.00010191
     6
  Step:    42            Position(A)                                  Velocity(au)
C        -0.03537579     0.00306721    -0.13087104    -0.00012102     0.00005408    -0.00067222
N        -0.05132388    -0.06824656     1.43047536    -0.00005455    -0.00010794     0.00050631
H         0.92539514    -0.01146928    -0.63896730     0.00075328    -0.00123531    -0.00045964
H         0.85523731     0.13003634     1.89674562     0.00047327     0.00181014     0.00110394
H        -0.91281182    -0.18488591     1.90200237     0.00047998    -0.00092956     0.00046723
H        -0.94599660     0.30837249    -0.58667423     0.00049358     0.00121036    -0.00013714
     6
  Step:    43            Position(A)                                  Velocity(au)
C        -0.03602318     0.00336662    -0.13454025    -0.00011028     0.00005305    -0.00064223
N        -0.05157177    -0.06883893     1.43322840    -0.00003362    -0.00010408     0.00048021
H         0.92951241    -0.01845460    -0.64148261     0.00071580    -0.00126688    -0.00043939
H         0.85752418     0.14012238     1.90276622     0.00033788     0.00180115     0.00104784
H        -0.91054373    -0.19017535     1.90483168     0.00033142    -0.00096603     0.00054683
H        -0.94350960     0.31522528    -0.58754357     0.00039627     0.00124598    -0.00017559
     6
  Step:    44            Position(A)                                  Velocity(au)
C        -0.03660692     0.00365947    -0.13804081    -0.00009838     0.00005176    -0.00061179
N        -0.05169927    -0.06940854     1.43583634    -0.00001179    -0.00009982     0.00045434
H         0.93338624    -0.02561266    -0.64387262     0.00066664    -0.00129695    -0.00041503
H         0.85900934     0.15014422     1.90844356     0.00018821     0.00178722     0.00098194
H        -0.90911191    -0.19567055     1.90810709     0.00018334    -0.00100274     0.00062533
H        -0.94157269     0.32228251    -0.58863456     0.00029795     0.00128293    -0.00021575
     6