     6
  Step:   300            Position(A)                                  Velocity(au)
C        -0.03535615     0.01479779     0.02640533     0.00001890    -0.00002387    -0.00011890
N        -0.04841832    -0.05435350     1.29243481    -0.00000654     0.00000135     0.00008969
H         0.18263682    -0.87219640    -0.56048883     0.00061141    -0.00005902     0.00035147
H         0.10673841     0.77353154     1.87029375     0.00068471     0.00026349    -0.00041658
H        -0.14352863    -0.95354515     1.76902265    -0.00071503    -0.00005991    -0.00045512
H        -0.26465975     0.96139335    -0.46158948    -0.00071531     0.00012106     0.00069065
