     6
  Step:     0            Position(A)                                  Velocity(au)
C        -0.03459833     0.02475961     0.01663371    -0.00013079     0.00007468    -0.00030980
N        -0.04721282    -0.05732697     1.30850128     0.00029965     0.00010144     0.00031872
H         0.94504818    -0.07240319    -0.57793461     0.00059983    -0.00041408     0.00021284
H         0.87285340    -0.08390351     1.80538650    -0.00088548    -0.00075932    -0.00130980
H        -0.96269768    -0.06973916     1.81960452    -0.00257949    -0.00070315     0.00073932
H        -0.99977986     0.05786660    -0.53661804     0.00025952    -0.00042299    -0.00037988
     6
  Step:     1            Position(A)                                  Velocity(au)
C        -0.03529080     0.02521422     0.01458690    -0.00012177     0.00009115    -0.00043644
N        -0.04557452    -0.05677210     1.31052313     0.00029560     0.00010136     0.00041878
H         0.94806446    -0.07479059    -0.57652698     0.00049826    -0.00045680     0.00030148
H         0.86788889    -0.08819630     1.79826353    -0.00091002    -0.00080990    -0.00128059
H        -0.97666856    -0.07372343     1.82363603    -0.00249718    -0.00075128     0.00072097
H        -0.99837599     0.05540333    -0.53864113     0.00025202    -0.00047669    -0.00036085
     6
  Step:     2            Position(A)                                  Velocity(au)
C        -0.03593135     0.02575746     0.01185591    -0.00011152     0.00010662    -0.00055732
N        -0.04397675    -0.05621735     1.31308580     0.00028400     0.00010105     0.00051395
H         0.95050281    -0.07740397    -0.57463425     0.00038817    -0.00049469     0.00038781
H         0.86289115    -0.09276981     1.79136745    -0.00089322    -0.00085891    -0.00122192
H        -0.99003518    -0.07796372     1.82749725    -0.00235384    -0.00079352     0.00067702
H        -0.99702088     0.05264807    -0.54056839     0.00024104    -0.00052753    -0.00034399
     6
  Step:     3            Position(A)                                  Velocity(au)
C        -0.03651379     0.02638344     0.00847504    -0.00010025     0.00012078    -0.00067020
N        -0.04245995    -0.05566395     1.31615941     0.00026520     0.00010047     0.00060214
H         0.95232141    -0.08021565    -0.57227401     0.00027231    -0.00052691     0.00046926
H         0.85809324    -0.09761564     1.78486318    -0.00083311    -0.00090569    -0.00113300
H        -1.00248219    -0.08242567     1.83106069    -0.00215662    -0.00082852     0.00061202
H        -0.99573255     0.04961806    -0.54241356     0.00022660    -0.00057439    -0.00032978
     6
  Step:     4            Position(A)                                  Velocity(au)
C        -0.03703304     0.02708476     0.00449112    -0.00008819     0.00013340    -0.00077276
N        -0.04106243    -0.05511324     1.31970270     0.00023974     0.00009964     0.00068131
H         0.95349526    -0.08319415    -0.56947757     0.00015411    -0.00055291     0.00054335
H         0.85373618    -0.10272243     1.77891695    -0.00072962    -0.00094974    -0.00101468
H        -1.01373420    -0.08706832     1.83422274    -0.00191349    -0.00085524     0.00053035
H        -0.99453082     0.04633611    -0.54419236     0.00020825    -0.00061634    -0.00031848
     6
  Step:     5            Position(A)                                  Velocity(au)
C        -0.03748515     0.02785272    -0.00003650    -0.00007556     0.00014425    -0.00086284
N        -0.03981932    -0.05456644     1.32366360     0.00020839     0.00009858     0.00074964
H         0.95401889    -0.08630565    -0.56628932     0.00003733    -0.00057243     0.00060780
H         0.85005689    -0.10807644     1.77368714    -0.00058527    -0.00099064    -0.00086957
H        -1.02355819    -0.09184568     1.83690221    -0.00163315    -0.00087300     0.00043630
H        -0.99343875     0.04282946    -0.54592142     0.00018547    -0.00065269    -0.00031021
     6
  Step:     6            Position(A)                                  Velocity(au)
C        -0.03786742     0.02867763    -0.00503705    -0.00006261     0.00015319    -0.00093863
N        -0.03876118    -0.05402462     1.32798082     0.00017220     0.00009733     0.00080575
H         0.95390746    -0.08951540    -0.56276578    -0.00007425    -0.00058548     0.00066060
H         0.84727317    -0.11366186     1.76931444    -0.00040547    -0.00102805    -0.00070213
H        -1.03176871    -0.09670868     1.83904072    -0.00132507    -0.00088150     0.00033418
H        -0.99248273     0.03912859    -0.54761790     0.00015779    -0.00068300    -0.00030504
     6
  Step:     7            Position(A)                                  Velocity(au)
C        -0.03817847     0.02954913    -0.01043051    -0.00004962     0.00016018    -0.00099889
N        -0.03791241    -0.05348862     1.33258624     0.00013247     0.00009594     0.00084884
H         0.95319663    -0.09278906    -0.55897402    -0.00017702    -0.00059234     0.00070017
H         0.84556685    -0.11946072     1.76591197    -0.00019855    -0.00106164    -0.00051842
H        -1.03823158    -0.10160713     1.84060276    -0.00099920    -0.00088088     0.00022818
H        -0.99169141     0.03526613    -0.54929933     0.00012506    -0.00070709    -0.00030299
     6
  Step:     8            Position(A)                                  Velocity(au)
C        -0.03841848     0.03045663    -0.01613095    -0.00003688     0.00016524    -0.00104319
N        -0.03728991    -0.05295908     1.33740825     0.00009070     0.00009445     0.00087883
H         0.95194143    -0.09609406    -0.55498950    -0.00026775    -0.00059360     0.00072547
H         0.84506807    -0.12545264     1.76355682     0.00002484    -0.00109113    -0.00032566
H        -1.04286600    -0.10649192     1.84157497    -0.00066551    -0.00087174     0.00012228
H        -0.99109374     0.03127548    -0.55098294     0.00008751    -0.00072509    -0.00030396
     6
  Step:     9            Position(A)                                  Velocity(au)
C        -0.03858930     0.03138975    -0.02205066    -0.00002471     0.00016851    -0.00107195
N        -0.03690214    -0.05243651     1.34237555     0.00004845     0.00009292     0.00089639
H         0.95021413    -0.09940116    -0.55089302    -0.00034383    -0.00059015     0.00073611
H         0.84584355    -0.13161484     1.76228446     0.00025272    -0.00111639    -0.00013158
H        -1.04564476    -0.11131746     1.84196486    -0.00033361    -0.00085518     0.00002006
H        -0.99071664     0.02718929    -0.55268515     0.00004573    -0.00073750    -0.00030779
     6
  Step:    10            Position(A)                                  Velocity(au)
C        -0.03869446     0.03233892    -0.02810478    -0.00001338     0.00017024    -0.00108649
N        -0.03674867    -0.05192117     1.34742105     0.00000729     0.00009140     0.00090292
H         0.94810076    -0.10268610    -0.54676697    -0.00040347    -0.00058319     0.00073251
H         0.84789097    -0.13792294     1.76208710     0.00047314    -0.00113758     0.00005646
H        -1.04659253    -0.11604439     1.84179904    -0.00001216    -0.00083278    -0.00007541
H        -0.99058291     0.02303752    -0.55442105     0.00000062    -0.00074518    -0.00031429
     6
  Step:    11            Position(A)                                  Velocity(au)
C        -0.03873911     0.03329595    -0.03421616    -0.00000314     0.00017077    -0.00108894
N        -0.03682057    -0.05141309     1.35248564    -0.00003147     0.00008997     0.00090044
H         0.94569640    -0.10593118    -0.54269106    -0.00044580    -0.00057414     0.00071572
H         0.85114132    -0.14435246     1.76291669     0.00067552    -0.00115518     0.00023225
H        -1.04578093    -0.12064217     1.84112054     0.00029172    -0.00080650    -0.00016169
H        -0.99070965     0.01884538    -0.55620427    -0.00004677    -0.00074939    -0.00032325
     6
  Step:    12            Position(A)                                  Velocity(au)
C        -0.03872972     0.03425449    -0.04031972     0.00000963     0.00028212    -0.00179034
N        -0.03710163    -0.05091191     1.35752149    -0.00011046     0.00014680     0.00147483
H         0.94310010    -0.10912641    -0.53873857    -0.00077900    -0.00093412     0.00113725
H         0.85546843    -0.15088087     1.76469234     0.00140918    -0.00193594     0.00064749
H        -1.04332026    -0.12509111     1.83998534     0.00094778    -0.00128814    -0.00039225
H        -0.99110752     0.01463145    -0.55804701    -0.00015787    -0.00124359    -0.00055349
     6
  Step:    13            Position(A)                                  Velocity(au)
C        -0.03866944     0.03580530    -0.04998442     0.00001086     0.00026552    -0.00161965
N        -0.03780084    -0.05010360     1.36550867    -0.00013318     0.00013872     0.00134369
H         0.93901480    -0.11432597    -0.53283839    -0.00065251    -0.00090372     0.00094225
H         0.86377034    -0.16153785     1.76878495     0.00149563    -0.00182555     0.00078088
H        -1.03734198    -0.13211608     1.83763056     0.00114204    -0.00119315    -0.00042915
H        -0.99230462     0.00780061    -0.56151310    -0.00026405    -0.00116928    -0.00066668
     6
  Step:    14            Position(A)                                  Velocity(au)
C        -0.03860649     0.03726604    -0.05868964     0.00001056     0.00024952    -0.00144812
N        -0.03861209    -0.04933857     1.37276154    -0.00014940     0.00013101     0.00121245
H         0.93569940    -0.11937630    -0.52805158    -0.00050820    -0.00087831     0.00074358
H         0.87243174    -0.17158616     1.77354902     0.00153064    -0.00171460     0.00088172
H        -1.03036727    -0.13862369     1.83511801     0.00129417    -0.00110229    -0.00044650
H        -0.99410233     0.00136952    -0.56560849    -0.00036637    -0.00109865    -0.00077170
     6
  Step:    15            Position(A)                                  Velocity(au)
C        -0.03854951     0.03864016    -0.06643667     0.00000469     0.00012484    -0.00068160
N        -0.03949817    -0.04861521     1.37928350    -0.00008478     0.00006587     0.00057734
H         0.93324112    -0.12430460    -0.52439047    -0.00018776    -0.00045706     0.00029078
H         0.88116015    -0.18101763     1.77880222     0.00080772    -0.00085406     0.00050684
H        -1.02263873    -0.14463934     1.83255783     0.00074758    -0.00054195    -0.00023703
H        -0.99646698    -0.00468130    -0.57028048    -0.00024534    -0.00054986    -0.00046153
     6
  Step:    16            Position(A)                                  Velocity(au)
C        -0.03851409     0.03934321    -0.07022233     0.00000741     0.00012540    -0.00066530
N        -0.04002293    -0.04824361     1.38249160    -0.00010010     0.00006644     0.00056425
H         0.93228584    -0.12687310    -0.52292163    -0.00014930    -0.00045782     0.00023114
H         0.88577683    -0.18586828     1.78187066     0.00082306    -0.00087104     0.00057787
H        -1.01794178    -0.14764066     1.83116524     0.00091078    -0.00052769    -0.00025347
H        -0.99795542    -0.00780242    -0.57289623    -0.00028189    -0.00056108    -0.00046880
     6
  Step:    17            Position(A)                                  Velocity(au)
C        -0.03846626     0.04004899    -0.07391090     0.00000923     0.00012703    -0.00065347
N        -0.04062270    -0.04786877     1.38562246    -0.00011251     0.00006766     0.00055521
H         0.93156381    -0.12944789    -0.52179379    -0.00010643    -0.00046367     0.00017144
H         0.89040673    -0.19080320     1.78529425     0.00082062    -0.00089249     0.00063963
H        -1.01240670    -0.15056764     1.82971031     0.00105502    -0.00052068    -0.00026136
H        -0.99963386    -0.01098469    -0.57554717    -0.00031577    -0.00057712    -0.00047847
     6
  Step:    18            Position(A)                                  Velocity(au)
C        -0.03841092     0.04076331    -0.07752765     0.00001020     0.00012926    -0.00064373
N        -0.04128069    -0.04748717     1.38869854    -0.00012163     0.00006930     0.00054808
H         0.93109601    -0.13205662    -0.52100506    -0.00005942    -0.00047281     0.00011091
H         0.89495087    -0.19584574     1.78902133     0.00079786    -0.00091513     0.00069100
H        -1.00614734    -0.15346156     1.82824337     0.00117599    -0.00051932    -0.00025894
H        -1.00148551    -0.01425426    -0.57824523    -0.00034579    -0.00059597    -0.00048855
     6
  Step:    19            Position(A)                                  Velocity(au)
C        -0.03835261     0.04148946    -0.08108476     0.00001038     0.00013175    -0.00063454
N        -0.04197815    -0.04709651     1.39173033    -0.00012712     0.00007119     0.00054134
H         0.93090161    -0.13471696    -0.52055776    -0.00000908    -0.00048388     0.00004950
H         0.89929826    -0.20100156     1.79299486     0.00075359    -0.00093658     0.00073113
H        -0.99930126    -0.15635497     1.82682464     0.00126916    -0.00052267    -0.00024458
H        -1.00348740    -0.01762629    -0.58099161    -0.00037088    -0.00061613    -0.00049753
     6
  Step:    20            Position(A)                                  Velocity(au)
C        -0.03829550     0.04222886    -0.08458582     0.00000984     0.00013428    -0.00062496
N        -0.04269465    -0.04669531     1.39472004    -0.00012874     0.00007325     0.00053404
H         0.93099500    -0.13743903    -0.52045448     0.00004339    -0.00049589    -0.00001240
H         0.90333329    -0.20626364     1.79715397     0.00068797    -0.00095528     0.00075969
H        -0.99203002    -0.15927543     1.82552284     0.00133066    -0.00053034    -0.00021705
H        -1.00561096    -0.02110767    -0.58377948    -0.00039021    -0.00063653    -0.00050440
     6
  Step:    21            Position(A)                                  Velocity(au)
C        -0.03824330     0.04298165    -0.08802936     0.00000868     0.00013669    -0.00061451
N        -0.04340875    -0.04628256     1.39766461    -0.00012642     0.00007543     0.00052559
H         0.93138374    -0.14022733    -0.52069550     0.00009654    -0.00050806    -0.00007408
H         0.90694304    -0.21161675     1.80143661     0.00060229    -0.00097031     0.00077681
H        -0.98451474    -0.16224817     1.82441271     0.00135776    -0.00054218    -0.00017563
H        -1.00782346    -0.02469954    -0.58659654    -0.00040321    -0.00065647    -0.00050846
     6
  Step:    22            Position(A)                                  Velocity(au)
C        -0.03819914     0.04374711    -0.09141119     0.00000700     0.00013887    -0.00060298
N        -0.04409881    -0.04585751     1.40055783    -0.00012021     0.00007772     0.00051570
H         0.93206730    -0.14308211    -0.52127734     0.00014882    -0.00051981    -0.00013476
H         0.91002298    -0.21704097     1.80578205     0.00049871    -0.00098126     0.00078306
H        -0.97694929    -0.16529752     1.82357209     0.00134901    -0.00055821    -0.00012011
H        -1.01008943    -0.02839915    -0.58942694    -0.00040958    -0.00067547    -0.00050931
     6
  Step:    23            Position(A)                                  Velocity(au)
C        -0.03816551     0.04452390    -0.09472600     0.00000495     0.00014075    -0.00059038
N        -0.04474376    -0.04541946     1.40339183    -0.00011030     0.00008011     0.00050422
H         0.93303655    -0.14600029    -0.52219214     0.00019867    -0.00053067    -0.00019361
H         0.91248166    -0.22251440     1.81013313     0.00038004    -0.00098807     0.00077934
H        -0.96953286    -0.16844753     1.82307879     0.00130436    -0.00057844    -0.00005083
H        -1.01237217    -0.03220120    -0.59225289    -0.00040927    -0.00069325    -0.00050679
     6
  Step:    24            Position(A)                                  Velocity(au)
C        -0.03814417     0.04531033    -0.09796839     0.00000265     0.00014228    -0.00057680
N        -0.04532391    -0.04496770     1.40615811    -0.00009704     0.00008264     0.00049119
H         0.93427389    -0.14897607    -0.52342767     0.00024461    -0.00054023    -0.00024985
H         0.91424403    -0.22801520     1.81443798     0.00024950    -0.00099101     0.00076681
H        -0.96246213    -0.17172210     1.82300756     0.00122522    -0.00060285     0.00003131
H        -1.01463510    -0.03609892    -0.59505577    -0.00040246    -0.00070969    -0.00050089
     6
  Step:    25            Position(A)                                  Velocity(au)
C        -0.03813610     0.04610446    -0.10113350     0.00000024     0.00014346    -0.00056241
N        -0.04582170    -0.04450149     1.40884833    -0.00008086     0.00008530     0.00047672
H         0.93575390    -0.15200152    -0.52496759     0.00028535    -0.00054818    -0.00030281
H         0.91525331    -0.23352318     1.81865135     0.00011052    -0.00099054     0.00074678
H        -0.95592229    -0.17514439     1.82342662     0.00111451    -0.00063126     0.00012482
H        -1.01684297    -0.04008487    -0.59781713    -0.00038950    -0.00072475    -0.00049173
     6
  Step:    26            Position(A)                                  Velocity(au)
C        -0.03814155     0.04690425    -0.10421732    -0.00000215     0.00014426    -0.00054741
N        -0.04622238    -0.04401998     1.41145490    -0.00006235     0.00008811     0.00046099
H         0.93744433    -0.15506689    -0.52679216     0.00031976    -0.00055426    -0.00035196
H         0.91547202    -0.23902104     1.82273534    -0.00003341    -0.00098731     0.00072064
H        -0.95007888    -0.17873602     1.82439443     0.00097653    -0.00066333     0.00022767
H        -1.01896275    -0.04415158    -0.60051935    -0.00037087    -0.00073852    -0.00047953
     6
  Step:    27            Position(A)                                  Velocity(au)
C        -0.03816003     0.04770762    -0.10721686    -0.00000440     0.00014470    -0.00053199
N        -0.04651454    -0.04352233     1.41397134    -0.00004212     0.00009108     0.00044425
H         0.93930736    -0.15816098    -0.52887891     0.00034698    -0.00055823    -0.00039689
H         0.91488205    -0.24449513     1.82665976    -0.00017886    -0.00098204     0.00068980
H        -0.94507016    -0.18251591     1.82595668     0.00081679    -0.00069845     0.00033733
H        -1.02096443    -0.04829202    -0.60314608    -0.00034717    -0.00075112    -0.00046454
     6
  Step:    28            Position(A)                                  Velocity(au)
C        -0.03819041     0.04851250    -0.11013017    -0.00000638     0.00014477    -0.00051632
N        -0.04669056    -0.04300771     1.41639260    -0.00002090     0.00009418     0.00042676
H         0.94130086    -0.16127136    -0.53120346     0.00036637    -0.00055989    -0.00043734
H         0.91348402    -0.24993603     1.83040217    -0.00032258    -0.00097553     0.00065563
H        -0.94100065    -0.18649902     1.82814368     0.00064176    -0.00073581     0.00045086
H        -1.02282144    -0.05249996    -0.60568257    -0.00031906    -0.00076271    -0.00044709
     6
  Step:    29            Position(A)                                  Velocity(au)
C        -0.03823094     0.04931687    -0.11295617    -0.00000800     0.00014450    -0.00050056
N        -0.04674691    -0.04247541     1.41871512     0.00000057     0.00009741     0.00040879
H         0.94337982    -0.16438454    -0.53374027     0.00037753    -0.00055906    -0.00047317
H         0.91129636    -0.25533880     1.83394754    -0.00046147    -0.00096858     0.00061942
H        -0.93793652    -0.19069499     1.83096835     0.00045855    -0.00077435     0.00056507
H        -1.02451103    -0.05677012    -0.60811576    -0.00028723    -0.00077348    -0.00042746
     6
  Step:    30            Position(A)                                  Velocity(au)
C        -0.03827937     0.05011877    -0.11569454    -0.00000918     0.00014388    -0.00048479
N        -0.04668420    -0.04192487     1.42093692     0.00002157     0.00010071     0.00039061
H         0.94549766    -0.16748608    -0.53646337     0.00038029    -0.00055557    -0.00050434
H         0.90835418    -0.26070311     1.83728793    -0.00059266    -0.00096201     0.00058240
H        -0.93590325    -0.19510698     1.83442521     0.00027446    -0.00081280     0.00067662
H        -1.02601443    -0.06109832    -0.61043437    -0.00025240    -0.00078363    -0.00040597
     6
  Step:    31            Position(A)                                  Velocity(au)
C        -0.03833302     0.05091631    -0.11834544    -0.00000985     0.00014292    -0.00046908
N        -0.04650715    -0.04135579     1.42305742     0.00004136     0.00010405     0.00037244
H         0.94760744    -0.17056072    -0.53934694     0.00037468    -0.00054928    -0.00053094
H         0.90470796    -0.26603323     1.84042190    -0.00071350    -0.00095663     0.00054566
H        -0.93488547    -0.19973069     1.83849015     0.00009662    -0.00084976     0.00078223
H        -1.02731690    -0.06548150    -0.61262883    -0.00021529    -0.00079333    -0.00038292
     6
  Step:    32            Position(A)                                  Velocity(au)
C        -0.03838885     0.05170762    -0.12090934    -0.00000994     0.00014164    -0.00045347
N        -0.04622436    -0.04076813     1.42507735     0.00005930     0.00010737     0.00035450
H         0.94966299    -0.17359236    -0.54236587     0.00036093    -0.00054002    -0.00055314
H         0.90042226    -0.27133796     1.84335399    -0.00082159    -0.00095323     0.00051021
H        -0.93482915    -0.20455379     1.84312128    -0.00006838    -0.00088377     0.00087886
H        -1.02840779    -0.06991773    -0.61469126    -0.00017662    -0.00080279    -0.00035859
     6
  Step:    33            Position(A)                                  Velocity(au)
C        -0.03844354     0.05249092    -0.12338677    -0.00000942     0.00014003    -0.00043794
N        -0.04584786    -0.04016214     1.42699844     0.00007481     0.00011062     0.00033693
H         0.95161996    -0.17656424    -0.54549628     0.00033944    -0.00052769    -0.00057118
H         0.89557419    -0.27663051     1.84609404    -0.00091483    -0.00095259     0.00047696
H        -0.93564569    -0.20955575     1.84826063    -0.00021484    -0.00091337     0.00096383
H        -1.02928043    -0.07440627    -0.61661534    -0.00013711    -0.00081222    -0.00033327
     6
  Step:    34            Position(A)                                  Velocity(au)
C        -0.03849359     0.05326445    -0.12577806    -0.00000826     0.00013812    -0.00042243
N        -0.04539266    -0.03953833     1.42882314     0.00008741     0.00011375     0.00031984
H         0.95343673    -0.17945895    -0.54871590     0.00031079    -0.00051218    -0.00058539
H         0.89025169    -0.28192836     1.84865657    -0.00099144    -0.00095545     0.00044667
H        -0.93721766    -0.21470810     1.85383666    -0.00033819    -0.00093718     0.00103499
H        -1.02993209    -0.07894757    -0.61839632    -0.00009746    -0.00082185    -0.00030722
     6
  Step:    35            Position(A)                                  Velocity(au)
C        -0.03853536     0.05402655    -0.12808325    -0.00000643     0.00013592    -0.00040689
N        -0.04487604    -0.03889744     1.43055436     0.00009676     0.00011674     0.00030329
H         0.95507523    -0.18225857    -0.55200458     0.00027565    -0.00049340    -0.00059621
H         0.88455148    -0.28725309     1.85106000    -0.00105008    -0.00096254     0.00041996
H        -0.93940569    -0.21997513     1.85976751    -0.00043517    -0.00095399     0.00109081
H        -1.03036394    -0.08354349    -0.62003094    -0.00005835    -0.00083195    -0.00028072
     6
  Step:    36            Position(A)                                  Velocity(au)
C        -0.03856513     0.05477563    -0.13030197    -0.00000394     0.00013344    -0.00039124
N        -0.04431687    -0.03824038     1.43219523     0.00010263     0.00011955     0.00028730
H         0.95650154    -0.18494473    -0.55534470     0.00023486    -0.00047129    -0.00060412
H         0.87857660    -0.29263017     1.85332578    -0.00108985    -0.00097453     0.00039728
H        -0.94205603    -0.22531490     1.86596456    -0.00050387    -0.00096282     0.00113041
H        -1.03058088    -0.08819741    -0.62151742    -0.00002047    -0.00084283    -0.00025404
     6
  Step:    37            Position(A)                                  Velocity(au)
C        -0.03857912     0.05551025    -0.13243333    -0.00000076     0.00013072    -0.00037539
N        -0.04373491    -0.03756815     1.43374882     0.00010494     0.00012219     0.00027185
H         0.95768661    -0.18749869    -0.55872165     0.00018933    -0.00044577    -0.00060974
H         0.87243369    -0.29808868     1.85547727    -0.00111041    -0.00099208     0.00037889
H        -0.94500806    -0.23068045     1.87233623    -0.00054369    -0.00096286     0.00115362
H        -1.03059151    -0.09291464    -0.62285550     0.00001555    -0.00085489    -0.00022744
     6
  Step:    38            Position(A)                                  Velocity(au)
C        -0.03857356     0.05622910    -0.13447589     0.00000310     0.00012779    -0.00035922
N        -0.04315008    -0.03688180     1.43521798     0.00010370     0.00012463     0.00025689
H         0.95860670    -0.18990125    -0.56212443     0.00014006    -0.00041676    -0.00061380
H         0.86622999    -0.30366108     1.85753866    -0.00111193    -0.00101577     0.00036480
H        -0.94810132    -0.23602094     1.87879166    -0.00055520    -0.00095351     0.00116088
H        -1.03040801    -0.09770288    -0.62404635     0.00004903    -0.00086864    -0.00020122
     6
  Step:    39            Position(A)                                  Velocity(au)
C        -0.03854463     0.05693111    -0.13642752     0.00000766     0.00012469    -0.00034257
N        -0.04258187    -0.03618236     1.43660517     0.00009904     0.00012690     0.00024229
H         0.95924391    -0.19213256    -0.56554646     0.00008814    -0.00038405    -0.00061722
H         0.86007021    -0.30938299     1.85953349    -0.00109516    -0.00104622     0.00035477
H        -0.95118124    -0.24128243     1.88524405    -0.00053990    -0.00093422     0.00115325
H        -1.03004630    -0.10257298    -0.62509282     0.00007928    -0.00088479    -0.00017568
     6
  Step:    40            Position(A)                                  Velocity(au)
C        -0.03848838     0.05761544    -0.13828476     0.00001297     0.00012148    -0.00032505
N        -0.04204889    -0.03547085     1.43791189     0.00009115     0.00012900     0.00022778
H         0.95958669    -0.19417133    -0.56898698     0.00003482    -0.00034724    -0.00062133
H         0.85405356    -0.31529340     1.86148316    -0.00106132    -0.00108413     0.00034823
H        -0.95410420    -0.24640796     1.89161397    -0.00050012    -0.00090426     0.00113235
H        -1.02952652    -0.10754039    -0.62599967     0.00010536    -0.00090446    -0.00015128
     6
  Step:    41            Position(A)                                  Velocity(au)
C        -0.03840041     0.05828159    -0.14004123     0.00001919     0.00011822    -0.00030567
N        -0.04156853    -0.03474826     1.43913750     0.00008021     0.00013091     0.00021264
H         0.95963103    -0.19599301    -0.57245400    -0.00001818    -0.00030531    -0.00062856
H         0.84827114    -0.32143572     1.86340492    -0.00101203    -0.00113070     0.00034418
H        -0.95674121    -0.25133548     1.89783286    -0.00043865    -0.00086199     0.00110067
H        -1.02887494    -0.11262824    -0.62677466     0.00012556    -0.00092983    -0.00012896
     6
  Step:    42            Position(A)                                  Velocity(au)
C        -0.03827505     0.05892951    -0.14168244     0.00002679     0.00011511    -0.00028017
N        -0.04115733    -0.03401573     1.44027558     0.00006622     0.00013251     0.00019390
H         0.95938460    -0.19756501    -0.57597383    -0.00006597    -0.00025583    -0.00064670
H         0.84280422    -0.32786192     1.86530895    -0.00094869    -0.00118853     0.00034107
H        -0.95898012    -0.25598958     1.90384862    -0.00035889    -0.00080165     0.00106288
H        -1.02813080    -0.11787611    -0.62743314     0.00013412    -0.00096708    -0.00011324
     6
  Step:    43            Position(A)                                  Velocity(au)
C        -0.03810268     0.05956085    -0.14315479     0.00003219     0.00011347    -0.00022441
N        -0.04083264    -0.03327562     1.44129232     0.00005164     0.00013291     0.00015454
H         0.95889790    -0.19883611    -0.57964098    -0.00007330    -0.00022974    -0.00070106
H         0.83772803    -0.33464418     1.86719532    -0.00087029    -0.00122956     0.00035293
H        -0.96072970    -0.26024448     1.90964497    -0.00027149    -0.00073110     0.00101924
H        -1.02738439    -0.12337566    -0.62803309     0.00011385    -0.00100862    -0.00014458
     6
  Step:    44            Position(A)                                  Velocity(au)
C        -0.03791741     0.06019014    -0.14417564     0.00003035     0.00011339    -0.00014408
N        -0.04058358    -0.03253909     1.44199251     0.00004023     0.00013217     0.00009835
H         0.95857020    -0.20011741    -0.58376275    -0.00003856    -0.00026005    -0.00077091
H         0.83313516    -0.34152256     1.86923012    -0.00078211    -0.00122087     0.00039218
H        -0.96199645    -0.26411223     1.91517250    -0.00018345    -0.00068697     0.00095520
H        -1.02686587    -0.12908207    -0.62903939     0.00008342    -0.00102000    -0.00022623
     6