|===============================================================================
|
|  DFTB+ release 20.1
|
|  Copyright (C) 2006 - 2020  DFTB+ developers group
|
|===============================================================================
|
|  When publishing results obtained with DFTB+, please cite the following
|  reference:
|
|  * DFTB+, a software package for efficient approximate density functional
|    theory based atomistic simulations, J. Chem. Phys. 152, 124101 (2020).
|    [doi: 10.1063/1.5143190]
|
|  You should also cite additional publications crediting the parametrization
|  data you use. Please consult the documentation of the SK-files for the
|  references.
|
|===============================================================================

Reading input file 'dftb_in.hsd'
Parser version: 8

--------------------------------------------------------------------------------
Reading SK-files:
Done.


Processed input in HSD format written to 'dftb_pin.hsd'

Starting initialization...
--------------------------------------------------------------------------------
OpenMP threads:              1
Chosen random seed:          501637884
Mode:                        Static calculation
Self consistent charges:     Yes
SCC-tolerance:                 0.100000E-05
Max. scc iterations:                   1000
Shell resolved Hubbard:      No
Spin polarisation:           No
Nr. of up electrons:            16.000000
Nr. of down electrons:          16.000000
Periodic boundaries:         No
Electronic solver:           Relatively robust
Maximal SCC-cycles:                    1000
Initial charges:             Set automatically (system chrg:   0.100E+01)
Included shells:             C:  s, p
                             H:  s
                             N:  s, p
Spin coupling constants:     C   1(s)-1(s):  -0.455900E-01
                             C   1(s)-2(p):  -0.293000E-01
                             C   2(p)-1(s):  -0.293000E-01
                             C   2(p)-2(p):  -0.275500E-01
                             H   1(s)-1(s):  -0.792500E-01
                             N   1(s)-1(s):  -0.468700E-01
                             N   1(s)-2(p):  -0.317000E-01
                             N   2(p)-1(s):  -0.317000E-01
                             N   2(p)-2(p):  -0.307200E-01
Range separated hybrid:      Yes
  Screening parameter omega:   0.300000E+00
  Range separated algorithm:   MatrixBased
Extra options:
                             Mulliken analysis
                             Force calculation
Force type                   original
                             Eigenvector printing


REKS Calcuation:             Yes
SSR(2,2) Calcuation:         Yes
Energy Functional:           (PPS+OSS)/2
Number of Core Orbitals:                 15
Number of Active Orbitals:                2
Number of Basis:                         32
Number of States:                         2
State-Averaging Weight:          0.500000
                                 0.500000
State of Interest:                        1
Initial Guess:               Diagonalize H0 matrix
Newton-Raphson for FON opt:  Yes
NR max. Iterations:                      50
Level Shifting:              Yes
Shift Value:                     0.300000
W Scale Factor:              C  =    3.200000
                             H  =    3.200000
                             N  =    3.200000
Transition Dipole:           No
Gradient of Microstate:      No
CP-REKS Solver:              Preconditioned Conjugate-Gradient
CG max. Iterations:                     100
CG Tolerance:                  0.100000E-07
Memory for A and Hxc:        Direct Updating Without Saving
Non-Adiabatic Coupling:      Yes

--------------------------------------------------------------------------------

***  Geometry step: 0

  iSCC       reks energy        Diff energy         x_a       SCC error   
    1      -16.3879181663       0.0000000000     0.979034    1.18114831
    2      -16.4067164464      -0.0187982802     0.997211    0.04115193
    3      -16.4118059653      -0.0050895189     0.999281    0.02930146
    4      -16.4139097876      -0.0021038223     0.999719    0.01898178
    5      -16.4149781309      -0.0010683433     0.999860    0.01268987
    6      -16.4155894047      -0.0006112738     0.999920    0.00891492
    7      -16.4159685178      -0.0003791130     0.999949    0.00657544
    8      -16.4162173067      -0.0002487889     0.999965    0.00506605
    9      -16.4163874055      -0.0001700989     0.999974    0.00404905
   10      -16.4165074088      -0.0001200033     0.999980    0.00345926
   11      -16.4165942249      -0.0000868161     0.999984    0.00313831
   12      -16.4166583459      -0.0000641210     0.999987    0.00281550
   13      -16.4167065283      -0.0000481823     0.999989    0.00250852
   14      -16.4167432574      -0.0000367291     0.999991    0.00222573
   15      -16.4167715913      -0.0000283339     0.999992    0.00197018
   16      -16.4167936649      -0.0000220736     0.999993    0.00174196
   17      -16.4168110011      -0.0000173362     0.999994    0.00153961
   18      -16.4168247073      -0.0000137062     0.999994    0.00136099
   19      -16.4168356026      -0.0000108954     0.999995    0.00120369
   20      -16.4168443023      -0.0000086996     0.999995    0.00106533
   21      -16.4168512741      -0.0000069718     0.999995    0.00094366
   22      -16.4168568779      -0.0000056038     0.999996    0.00083664
   23      -16.4168613933      -0.0000045154     0.999996    0.00074244
   24      -16.4168650389      -0.0000036456     0.999996    0.00065946
   25      -16.4168679872      -0.0000029483     0.999996    0.00058628
   26      -16.4168703747      -0.0000023876     0.999996    0.00052168
   27      -16.4168723104      -0.0000019356     0.999997    0.00046459
   28      -16.4168738811      -0.0000015707     0.999997    0.00041408
   29      -16.4168751566      -0.0000012755     0.999997    0.00036934
   30      -16.4168761931      -0.0000010365     0.999997    0.00032967
   31      -16.4168770358      -0.0000008427     0.999997    0.00029446
   32      -16.4168777212      -0.0000006854     0.999997    0.00026318
   33      -16.4168782788      -0.0000005576     0.999997    0.00023537
   34      -16.4168787326      -0.0000004538     0.999997    0.00021063
   35      -16.4168791021      -0.0000003694     0.999997    0.00019116
   36      -16.4168794029      -0.0000003008     0.999997    0.00017338
   37      -16.4168796478      -0.0000002450     0.999997    0.00015717
   38      -16.4168798473      -0.0000001995     0.999997    0.00014241
   39      -16.4168800098      -0.0000001625     0.999997    0.00012898
   40      -16.4168801422      -0.0000001324     0.999997    0.00011677
   41      -16.4168802500      -0.0000001078     0.999997    0.00010569
   42      -16.4168803379      -0.0000000879     0.999997    0.00009563
   43      -16.4168804095      -0.0000000716     0.999997    0.00008651
   44      -16.4168804678      -0.0000000583     0.999997    0.00007824
   45      -16.4168805153      -0.0000000475     0.999997    0.00007075
   46      -16.4168805540      -0.0000000387     0.999997    0.00006396
   47      -16.4168805855      -0.0000000315     0.999997    0.00005781
   48      -16.4168806112      -0.0000000257     0.999997    0.00005225
   49      -16.4168806322      -0.0000000209     0.999997    0.00004722
   50      -16.4168806493      -0.0000000171     0.999997    0.00004266
   51      -16.4168806632      -0.0000000139     0.999997    0.00003855
   52      -16.4168806745      -0.0000000113     0.999997    0.00003482
   53      -16.4168806837      -0.0000000092     0.999997    0.00003146
   54      -16.4168806913      -0.0000000075     0.999997    0.00002841
   55      -16.4168806974      -0.0000000061     0.999997    0.00002566
   56      -16.4168807024      -0.0000000050     0.999997    0.00002318
   57      -16.4168807065      -0.0000000041     0.999997    0.00002093
   58      -16.4168807098      -0.0000000033     0.999997    0.00001890
   59      -16.4168807125      -0.0000000027     0.999997    0.00001707
   60      -16.4168807147      -0.0000000022     0.999997    0.00001541
   61      -16.4168807165      -0.0000000018     0.999997    0.00001392
   62      -16.4168807179      -0.0000000015     0.999997    0.00001256
   63      -16.4168807191      -0.0000000012     0.999997    0.00001134
   64      -16.4168807201      -0.0000000010     0.999997    0.00001024
   65      -16.4168807209      -0.0000000008     0.999997    0.00000925
   66      -16.4168807215      -0.0000000006     0.999997    0.00000835
   67      -16.4168807221      -0.0000000005     0.999997    0.00000754
   68      -16.4168807225      -0.0000000004     0.999997    0.00000680
   69      -16.4168807228      -0.0000000003     0.999997    0.00000614
   70      -16.4168807231      -0.0000000003     0.999997    0.00000555
   71      -16.4168807234      -0.0000000002     0.999997    0.00000501
   72      -16.4168807235      -0.0000000002     0.999997    0.00000452
   73      -16.4168807237      -0.0000000002     0.999997    0.00000408
   74      -16.4168807238      -0.0000000001     0.999997    0.00000368
   75      -16.4168807239      -0.0000000001     0.999997    0.00000332
   76      -16.4168807240      -0.0000000001     0.999997    0.00000300
   77      -16.4168807241      -0.0000000001     0.999997    0.00000271
   78      -16.4168807241      -0.0000000001     0.999997    0.00000245
   79      -16.4168807242      -0.0000000000     0.999997    0.00000221
   80      -16.4168807242      -0.0000000000     0.999997    0.00000199
   81      -16.4168807242      -0.0000000000     0.999997    0.00000180
   82      -16.4168807243      -0.0000000000     0.999997    0.00000162
   83      -16.4168807243      -0.0000000000     0.999997    0.00000147
   84      -16.4168807243      -0.0000000000     0.999997    0.00000132
   85      -16.4168807243      -0.0000000000     0.999997    0.00000119
   86      -16.4168807243      -0.0000000000     0.999997    0.00000108
   87      -16.4168807243      -0.0000000000     0.999997    0.00000097
  
--------------------------------------------------
 Final SA-REKS(2,2) energy:     -16.41688072
  
 State     Energy      FON(1)    FON(2)   Spin
  PPS  -16.47454155   1.999995  0.000005  0.00
  OSS  -16.35921990   1.000000  1.000000  0.00
 Trip  -16.39347568   1.000000  1.000000  1.00
--------------------------------------------------

 Lagrangian Wab:  -0.00267951 -0.00267894

--------------------------------------------------
 SSR: 2SI-2SA-REKS(2,2) Hamiltonian matrix
               PPS           OSS
   PPS   -16.47454155   -0.00378335
   OSS    -0.00378335  -16.35921990
--------------------------------------------------

----------------------------------------------------------------
 SSR: 2SI-2SA-REKS(2,2) states
                    E_n       C_{PPS}    C_{OSS}
 SSR state  1  -16.47466554  -0.999463  -0.032754
 SSR state  2  -16.35909591   0.032754  -0.999463
----------------------------------------------------------------

 unrelaxed SSR FONs for S0:  1.998922  0.001078

Total Energy:                      -16.4746655385 H         -448.2985 eV
Extrapolated to 0:                 -16.4746655385 H         -448.2985 eV

----------------------------------------------------------------------------------
 Solving CP-REKS equation for  1 state vector...
----------------------------------------------------------------------------------
  CG solver: Constructing Y initial guess
  CG solver: Iteration    1    eps =    0.000301207067
  CG solver: Iteration    2    eps =    0.000075155298
  CG solver: Iteration    3    eps =    0.000053709163
  CG solver: Iteration    4    eps =    0.000008901766
  CG solver: Iteration    5    eps =    0.000001749679
  CG solver: Iteration    6    eps =    0.000000603881
  CG solver: Iteration    7    eps =    0.000000029999
  CG solver: Iteration    8    eps =    0.000000003420
  Convergence reached in CG solver after    8 iterations
  CG solver: Calculating converged R, Z, Q2 matrix
----------------------------------------------------------------------------------

----------------------------------------------------------------------------------
 Solving CP-REKS equation for SI between  1 and  2 state vectors...
----------------------------------------------------------------------------------
  CG solver: Constructing Y initial guess
  CG solver: Iteration    1    eps =    0.043308438924
  CG solver: Iteration    2    eps =    0.003094085571
  CG solver: Iteration    3    eps =    0.000937188760
  CG solver: Iteration    4    eps =    0.000367695687
  CG solver: Iteration    5    eps =    0.000031411570
  CG solver: Iteration    6    eps =    0.000008957176
  CG solver: Iteration    7    eps =    0.000000704100
  CG solver: Iteration    8    eps =    0.000000076134
  CG solver: Iteration    9    eps =    0.000000015361
  CG solver: Iteration   10    eps =    0.000000001848
  Convergence reached in CG solver after   10 iterations
  CG solver: Calculating converged R, Z, Q2 matrix
----------------------------------------------------------------------------------

--------------------------------------------------
 Gradient Information
--------------------------------------------------
           1 st state (SSR)
     0.02172899     0.00486891    -0.03747910
     0.03393419     0.05756983     0.03196101
     0.00466016     0.00322784     0.01167287
    -0.01634584    -0.02783011    -0.00709028
    -0.02089098    -0.01820682     0.01509410
    -0.10252001    -0.00325989    -0.05177924
     0.00883597    -0.02900026     0.04004489
     0.03415273    -0.00935871     0.04132394
    -0.00556705     0.02449824     0.01004073
     0.01762744     0.00365861    -0.12046893
    -0.02485306     0.00755858     0.01186046
    -0.04055780     0.00793073     0.07372316
     0.03048416     0.00488837    -0.03364492
     0.05931111    -0.02654533     0.01474132

           2 st state (SSR)
     0.00771999     0.01176966    -0.00530849
     0.03713877     0.02736898    -0.00859733
     0.00497265    -0.00018398     0.01351039
    -0.01714449    -0.02258983    -0.01160978
    -0.01943604    -0.01863524     0.01428270
    -0.06439780     0.02405545    -0.05200271
    -0.00685149    -0.04681022     0.03997627
     0.03384358    -0.00595030     0.04024557
    -0.00065013     0.01878271     0.00707307
     0.11568693     0.02023354    -0.07294470
    -0.02325691     0.00265284     0.00550177
    -0.16705770     0.00563406     0.04412923
     0.03481662     0.00440959    -0.03619263
     0.06461602    -0.02073726     0.02193663
--------------------------------------------------
 Coupling Information
--------------------------------------------------
 between  1 and  2 states
--------------------------------------------------
 g vector - difference gradient
     0.00689095    -0.00330420    -0.01578480
    -0.00175727     0.01564736     0.02035813
    -0.00005419     0.00175202    -0.00092762
     0.00046628    -0.00267403     0.00231080
    -0.00066538     0.00016547     0.00041948
    -0.02189814    -0.01452171     0.00006514
     0.01101951     0.00914116    -0.00090710
     0.00026200    -0.00197846     0.00052620
    -0.00250178     0.00299527     0.00119485
    -0.04646477    -0.00814679    -0.02201285
    -0.00077648     0.00217147     0.00297134
     0.06008337     0.00121972     0.01397458
    -0.00204752     0.00033851     0.00126037
    -0.00255659    -0.00280579    -0.00344852

 h vector - derivative coupling
     0.00196012    -0.00234094    -0.00510706
     0.00230951    -0.00784088    -0.00053879
    -0.00156057    -0.00064685     0.00010484
    -0.00100741     0.00073555    -0.00070400
    -0.00097019     0.00074995    -0.00019665
     0.04261370     0.01272105     0.00071384
    -0.04814404    -0.00330776     0.01434883
    -0.00163214     0.00412404     0.00021552
     0.00057966    -0.00200204     0.00445295
    -0.04069872    -0.00241561    -0.02743871
    -0.00035534     0.00436913     0.00327426
     0.05033360    -0.00105036     0.01301855
    -0.00188019    -0.00150283     0.00024725
    -0.00154798    -0.00159245    -0.00239083

 G vector - GDV
     0.00700450    -0.00345038    -0.01608531
    -0.00160229     0.01510042     0.02027917
    -0.00015624     0.00170591    -0.00091876
     0.00039932    -0.00262014     0.00225975
    -0.00072747     0.00021421     0.00040570
    -0.01906110    -0.01365767     0.00011174
     0.00784373     0.00890498     0.00003431
     0.00015457    -0.00170420     0.00053918
    -0.00245846     0.00285776     0.00148383
    -0.04902975    -0.00828747    -0.02376212
    -0.00079807     0.00245287     0.00317934
     0.06324995     0.00114833     0.01479697
    -0.00216623     0.00023939     0.00127385
    -0.00265246    -0.00290403    -0.00359765

 H vector - DCV - non-adiabatic coupling
     0.01302019    -0.01834031    -0.03515300
     0.02093639    -0.07656455    -0.01618542
    -0.01344365    -0.00657766     0.00143072
    -0.00896241     0.00786585    -0.00738766
    -0.00799985     0.00638152    -0.00193555
     0.38034219     0.11806335     0.00612655
    -0.42192937    -0.03373863     0.12440498
    -0.01424073     0.03672872     0.00156273
     0.00642224    -0.01898294     0.03777087
    -0.32507846    -0.01624155    -0.22444120
    -0.00262817     0.03649387     0.02658732
     0.40055290    -0.00976005     0.10448818
    -0.01507401    -0.01316757     0.00142079
    -0.01191727    -0.01216004    -0.01868933
--------------------------------------------------


--------------------------------------------------------------------------------
DFTB+ running times                          cpu [s]             wall clock [s]
--------------------------------------------------------------------------------
SCC                                    +     0.10  ( 29.6%)      0.10  ( 29.6%)
      Dense to sparse                        0.02  (  5.0%)      0.02  (  6.5%)
      Range separated Hamiltonian            0.01  (  2.3%)      0.01  (  3.4%)
  Density matrix creation                    0.01  (  2.9%)      0.01  (  2.8%)
Post-SCC processing                    +     0.24  ( 69.7%)      0.25  ( 69.0%)
  Force calculation                          0.24  ( 69.6%)      0.24  ( 68.7%)
--------------------------------------------------------------------------------
Missing                                +     0.00  (  0.7%)      0.00  (  1.4%)
Total                                  =     0.35  (100.0%)      0.35  (100.0%)
--------------------------------------------------------------------------------
