     6
  Step:     0            Position(A)                                  Velocity(au)
C        -0.04454144     0.01935510     0.02687334    -0.00003452    -0.00008939     0.00034330
N        -0.03639339    -0.06744239     1.29471253    -0.00016965    -0.00006482    -0.00032637
H         0.95465725     0.02421592    -0.52306567     0.00037320     0.00045195    -0.00016685
H         0.82000559    -0.08312647     1.81588465     0.00147491     0.00057885     0.00077082
H        -0.97651583     0.03309449     1.83710214     0.00071106     0.00050103     0.00016905
H        -0.97459112     0.06260533    -0.54988499     0.00020973     0.00043405    -0.00032845
     6
  Step:     1            Position(A)                                  Velocity(au)
C        -0.04468448     0.01886968     0.02836675    -0.00001757    -0.00008798     0.00020173
N        -0.03739559    -0.06783579     1.29324276    -0.00019462    -0.00007909    -0.00020935
H         0.95652825     0.02680469    -0.52379928     0.00031007     0.00049406    -0.00009921
H         0.82852348    -0.07980448     1.82034290     0.00161506     0.00063584     0.00084316
H        -0.97214053     0.03591575     1.83779360     0.00088260     0.00053072     0.00008493
H        -0.97372375     0.06512414    -0.55167220     0.00010613     0.00048672    -0.00032358
     6
  Step:     2            Position(A)                                  Velocity(au)
C        -0.04473363     0.01839270     0.02908015    -0.00000039    -0.00008635     0.00005837
N        -0.03852236    -0.06830758     1.29242242    -0.00021500    -0.00009346    -0.00008926
H         0.95804920     0.02962056    -0.52415091     0.00024498     0.00053512    -0.00002817
H         0.83767325    -0.07617080     1.82510821     0.00170539     0.00069261     0.00088372
H        -0.96686083     0.03890015     1.83803124     0.00103977     0.00056092     0.00000481
H        -0.97343011     0.06792974    -0.55342473     0.00000226     0.00053901    -0.00031555
     6
  Step:     3            Position(A)                                  Velocity(au)
C        -0.04468873     0.01792494     0.02900536     0.00001664    -0.00008465    -0.00008593
N        -0.03974790    -0.06885836     1.29226621    -0.00023055    -0.00010793     0.00003290
H         0.95920852     0.03265940    -0.52410748     0.00017785     0.00057563     0.00004434
H         0.84718212    -0.07222664     1.83001165     0.00174644     0.00074905     0.00089451
H        -0.96076444     0.04205281     1.83784618     0.00117894     0.00059246    -0.00006796
H        -0.97369906     0.07102149    -0.55512468    -0.00009774     0.00059136    -0.00030415
     6
  Step:     4            Position(A)                                  Velocity(au)
C        -0.04455150     0.01746632     0.02813978     0.00003319    -0.00008302    -0.00022995
N        -0.04104531    -0.06948868     1.29278247    -0.00024106    -0.00012244     0.00015578
H         0.95999543     0.03591980    -0.52366565     0.00010898     0.00061585     0.00011658
H         0.85678503    -0.06797373     1.83489710     0.00173993     0.00080479     0.00087796
H        -0.95395941     0.04538362     1.83728756     0.00129599     0.00062604    -0.00013004
H        -0.97449965     0.07440119    -0.55675313    -0.00019056     0.00064396    -0.00028920
     6
  Step:     5            Position(A)                                  Velocity(au)
C        -0.04432536     0.01701611     0.02648801     0.00004895    -0.00008153    -0.00037211
N        -0.04238683    -0.07019872     1.29397161    -0.00024634    -0.00013686     0.00027772
H         0.96040150     0.03940126    -0.52283120     0.00003894     0.00065566     0.00018684
H         0.86622963    -0.06341640     1.83962300     0.00168832     0.00085899     0.00083679
H        -0.94657687     0.04890621     1.83642256     0.00138636     0.00066208    -0.00017813
H        -0.97578515     0.07807110    -0.55829067    -0.00027355     0.00069654    -0.00027069
     6
  Step:     6            Position(A)                                  Velocity(au)
C        -0.04401534     0.01657324     0.02406356     0.00006359    -0.00008021    -0.00051046
N        -0.04374380    -0.07098786     1.29582469    -0.00024624    -0.00015099     0.00039673
H         0.96042204     0.04310209    -0.52161897    -0.00003132     0.00069455     0.00025334
H         0.87527926    -0.05856414     1.84406351     0.00159479     0.00091037     0.00077399
H        -0.93877297     0.05263621     1.83533626     0.00144528     0.00070069    -0.00020903
H        -0.97749617     0.08203127    -0.55971833    -0.00034459     0.00074834    -0.00024878
     6
  Step:     7            Position(A)                                  Velocity(au)
C        -0.04362807     0.01613661     0.02089083     0.00007682    -0.00007903    -0.00064261
N        -0.04508689    -0.07185434     1.29832177    -0.00024066    -0.00016455     0.00051050
H         0.96005806     0.04701708    -0.52005332    -0.00010046     0.00073158     0.00031423
H         0.88371660    -0.05343416     1.84810983     0.00146324     0.00095719     0.00069281
H        -0.93072936     0.05658928     1.83413049     0.00146818     0.00074155    -0.00021994
H        -0.97956358     0.08627670    -0.56101853    -0.00040211     0.00079808    -0.00022383
     6
  Step:     8            Position(A)                                  Velocity(au)
C        -0.04317175     0.01570538     0.01700722     0.00008833    -0.00007794    -0.00076585
N        -0.04638639    -0.07279476     1.30143038    -0.00022957    -0.00017719     0.00061648
H         0.95931891     0.05113540    -0.51816856    -0.00016657     0.00076551     0.00036757
H         0.89134670    -0.04805353     1.85167100     0.00129820     0.00099745     0.00059661
H        -0.92265132     0.06077890     1.83292118     0.00145120     0.00078398    -0.00020872
H        -0.98191161     0.09079480    -0.56217610    -0.00044515     0.00084412    -0.00019636
     6
  Step:     9            Position(A)                                  Velocity(au)
C        -0.04265622     0.01527910     0.01246501     0.00009782    -0.00007685    -0.00087720
N        -0.04761264    -0.07380381     1.30510421    -0.00021311    -0.00018854     0.00071196
H         0.95822544     0.05543916    -0.51600939    -0.00022723     0.00079494     0.00041143
H         0.89799927    -0.04246025     1.85467374     0.00110485     0.00102912     0.00048889
H        -0.91476338     0.06521452     1.83183418     0.00139170     0.00082702    -0.00017422
H        -0.98446114     0.09556360    -0.56317886    -0.00047341     0.00088459    -0.00016699
     6
  Step:    10            Position(A)                                  Velocity(au)
C        -0.04209290     0.01485778     0.00733250     0.00010500    -0.00007569    -0.00097372
N        -0.04873683    -0.07487415     1.30928264    -0.00019161    -0.00019821     0.00079435
H         0.95681280     0.05990293    -0.51363088    -0.00027963     0.00081858     0.00044403
H         0.90353223    -0.03670320     1.85706302     0.00088934     0.00105042     0.00037334
H        -0.90730214     0.06990023     1.83099966     0.00128899     0.00086957    -0.00011662
H        -0.98713288     0.10055107    -0.56401788    -0.00048721     0.00091775    -0.00013646
     6
  Step:    11            Position(A)                                  Velocity(au)
C        -0.04149466     0.01444182     0.00169355     0.00010967    -0.00007441    -0.00105288
N        -0.04973226    -0.07599649     1.31389148    -0.00016568    -0.00020592     0.00086150
H         0.95513214     0.06449437    -0.51109750    -0.00032094     0.00083540     0.00046392
H         0.90783727    -0.03084040     1.85880365     0.00065883     0.00106010     0.00025395
H        -0.90050432     0.07483382     1.83054415     0.00114509     0.00091046    -0.00003766
H        -0.98985073     0.10571593    -0.56468844    -0.00048755     0.00094221    -0.00010567
     6
  Step:    12            Position(A)                                  Velocity(au)
C        -0.04087549     0.01403186    -0.00435476     0.00011172    -0.00007300    -0.00111298
N        -0.05057586    -0.07715995     1.31884547    -0.00013622    -0.00021148     0.00091201
H         0.95325026     0.06917608    -0.50848120    -0.00034869     0.00084497     0.00047026
H         0.91084539    -0.02493582     1.85988188     0.00042129     0.00105781     0.00013488
H        -0.89459140     0.08000653     1.83058160     0.00096506     0.00094867     0.00005923
H        -0.99254477     0.11100980    -0.56519081    -0.00047598     0.00095721    -0.00007557
     6
  Step:    13            Position(A)                                  Velocity(au)
C        -0.04024994     0.01362852    -0.01070675     0.00011117    -0.00007151    -0.00115359
N        -0.05124990    -0.07835274     1.32405259    -0.00010441    -0.00021489     0.00094564
H         0.95124716     0.07390859    -0.50585814    -0.00036117     0.00084757     0.00046293
H         0.91253112    -0.01905477     1.86030640     0.00018497     0.00104426     0.00002020
H        -0.88975211     0.08540338     1.83120411     0.00075704     0.00098348     0.00016924
H        -0.99515391     0.11638071    -0.56553044    -0.00045458     0.00096291    -0.00004712
     6
  Step:    14            Position(A)                                  Velocity(au)
C        -0.03963232     0.01323221    -0.01725518     0.00010822    -0.00007003    -0.00117589
N        -0.05174345    -0.07956303     1.32942043    -0.00007160    -0.00021635     0.00096357
H         0.94921132     0.07865430    -0.50330430    -0.00035773     0.00084433     0.00044274
H         0.91291391    -0.01325805     1.86010781    -0.00004240     0.00102132    -0.00008648
H        -0.88612557     0.09100461     1.83247421     0.00053141     0.00101470     0.00028670
H        -0.99762823     0.12177786    -0.56571778    -0.00042577     0.00096048    -0.00002113
     6
  Step:    15            Position(A)                                  Velocity(au)
C        -0.03903575     0.01284282    -0.02390014     0.00010322    -0.00006870    -0.00118264
N        -0.05205327    -0.08078013     1.33486378    -0.00003914    -0.00021627     0.00096830
H         0.94723340     0.08338197    -0.50089058    -0.00033885     0.00083718     0.00041126
H         0.91205534    -0.00759563     1.85933611    -0.00025449     0.00099189    -0.00018241
H        -0.88378968     0.09678830     1.83442085     0.00029941     0.00104279     0.00040596
H        -0.99993097     0.12715720    -0.56576753    -0.00039218     0.00095205     0.00000181
     6
  Step:    16            Position(A)                                  Velocity(au)
C        -0.03847129     0.01245952    -0.03055751     0.00009663    -0.00006767    -0.00117768
N        -0.05218367    -0.08199562     1.34031182    -0.00000819    -0.00021521     0.00096322
H         0.94539997     0.08807085    -0.49867848    -0.00030581     0.00082847     0.00037047
H         0.91005144    -0.00210127     1.85805605    -0.00044691     0.00095944    -0.00026590
H        -0.88275779     0.10273384     1.83704038     0.00007147     0.00106869     0.00052216
H        -1.00203944     0.13248651    -0.56569747    -0.00035634     0.00094038     0.00002136
     6
  Step:    17            Position(A)                                  Velocity(au)
C        -0.03794746     0.01208064    -0.03716437     0.00008887    -0.00006710    -0.00116502
N        -0.05214549    -0.08320405     1.34571251     0.00002036    -0.00021372     0.00095185
H         0.94378904     0.09271305    -0.49671803    -0.00026032     0.00082053     0.00032233
H         0.90702181     0.00321049     1.85634130    -0.00061726     0.00092729    -0.00033619
H        -0.88298473     0.10882499     1.84030192    -0.00014394     0.00109347     0.00063160
H        -1.00394438     0.13774870    -0.56552700    -0.00032034     0.00092821     0.00003744
     6
  Step:    18            Position(A)                                  Velocity(au)
C        -0.03747024     0.01170369    -0.04368009     0.00012656    -0.00010570    -0.00180854
N        -0.05195439    -0.08440295     1.35103329     0.00007227    -0.00033434     0.00147632
H         0.94246778     0.09731323    -0.49504782    -0.00032152     0.00128413     0.00042293
H         0.90309875     0.00834360     1.85426922    -0.00120421     0.00141486    -0.00061928
H        -0.88437912     0.11505059     1.84415468    -0.00053650     0.00176083     0.00115252
H        -1.00564772     0.14294177    -0.56527573    -0.00045009     0.00144576     0.00007901
     6
  Step:    19            Position(A)                                  Velocity(au)
C        -0.03679397     0.01110857    -0.05344388     0.00011172    -0.00010493    -0.00163882
N        -0.05148621    -0.08623498     1.35903207     0.00009033    -0.00031266     0.00134765
H         0.94109762     0.10443478    -0.49318690    -0.00015709     0.00123363     0.00023526
H         0.89606460     0.01602089     1.85073191    -0.00125967     0.00129908    -0.00061881
H        -0.88790667     0.12484939     1.85090628    -0.00069045     0.00169792     0.00121935
H        -1.00828013     0.15089395    -0.56515907    -0.00047925     0.00136447    -0.00003500
     6
  Step:    20            Position(A)                                  Velocity(au)
C        -0.03620399     0.01051443    -0.06225497     0.00005752    -0.00006289    -0.00088050
N        -0.05093058    -0.08794674     1.36630798     0.00006159    -0.00017445     0.00073029
H         0.94068725     0.11129560    -0.49238134     0.00000840     0.00071221     0.00003114
H         0.88882128     0.02306780     1.84725545    -0.00076387     0.00071277    -0.00035755
H        -0.89220484     0.13429530     1.85797518    -0.00048244     0.00097737     0.00075533
H        -1.01107970     0.15840713    -0.56567247    -0.00030343     0.00077117    -0.00008529
     6
  Step:    21            Position(A)                                  Velocity(au)
C        -0.03591117     0.01015659    -0.06714522     0.00004666    -0.00006451    -0.00085833
N        -0.05054442    -0.08892499     1.37036329     0.00007391    -0.00017346     0.00071177
H         0.94096281     0.11530962    -0.49238480     0.00008991     0.00071612    -0.00003236
H         0.88433641     0.02703900     1.84521022    -0.00081913     0.00070190    -0.00036385
H        -0.89525436     0.13983999     1.86238487    -0.00058903     0.00099233     0.00080601
H        -1.01267624     0.16273522    -0.56611491    -0.00026485     0.00076884    -0.00007282
     6
  Step:    22            Position(A)                                  Velocity(au)
C        -0.03567944     0.00978929    -0.07190345     0.00003620    -0.00006674    -0.00084016
N        -0.05009977    -0.08989665     1.37430892     0.00008297    -0.00017343     0.00069677
H         0.94169792     0.11934548    -0.49274509     0.00017201     0.00072534    -0.00009599
H         0.87961346     0.03095779     1.84316545    -0.00085488     0.00069968    -0.00036017
H        -0.89882613     0.14544999     1.86703545    -0.00067284     0.00100791     0.00084721
H        -1.01405687     0.16704965    -0.56649105    -0.00022868     0.00077229    -0.00006222
     6
  Step:    23            Position(A)                                  Velocity(au)
C        -0.03550582     0.00940931    -0.07655254     0.00002617    -0.00006935    -0.00082345
N        -0.04961536    -0.09086685     1.37816506     0.00008851    -0.00017377     0.00068319
H         0.94288882     0.12343130    -0.49345962     0.00025273     0.00073727    -0.00015912
H         0.87476420     0.03487342     1.84117731    -0.00086830     0.00070433    -0.00034537
H        -0.90278824     0.15112565     1.87187116    -0.00073177     0.00102035     0.00087623
H        -1.01523685     0.17138265    -0.56681159    -0.00019441     0.00077927    -0.00005326
     6
  Step:    24            Position(A)                                  Velocity(au)
C        -0.03538715     0.00901462    -0.08110153     0.00001669    -0.00007217    -0.00080660
N        -0.04911112    -0.09183774     1.38194022     0.00009033    -0.00017413     0.00066965
H         0.94452097     0.12758092    -0.49452252     0.00032974     0.00074994    -0.00022082
H         0.86991446     0.03882527     1.83930763    -0.00085747     0.00071471    -0.00031883
H        -0.90700007     0.15684741     1.87682306    -0.00076448     0.00102693     0.00089131
H        -1.01622847     0.17575417    -0.56708598    -0.00016194     0.00078823    -0.00004585
     6
  Step:    25            Position(A)                                  Velocity(au)
C        -0.03531959     0.00860418    -0.08555048     0.00000797    -0.00007507    -0.00078867
N        -0.04860770    -0.09280937     1.38563524     0.00008839    -0.00017426     0.00065533
H         0.94656717     0.13179722    -0.49592292     0.00040063     0.00076187    -0.00028003
H         0.86519871     0.04284627     1.83762061    -0.00082171     0.00073013    -0.00028059
H        -0.91131639     0.16258150     1.88181409    -0.00077075     0.00102593     0.00089169
H        -1.01704339     0.18017573    -0.56732302    -0.00013145     0.00079823    -0.00003993
     6
  Step:    26            Position(A)                                  Velocity(au)
C        -0.03529832     0.00817766    -0.08989432     0.00000019    -0.00007795    -0.00076924
N        -0.04812563    -0.09378058     1.38924641     0.00008282    -0.00017404     0.00063983
H         0.94898757     0.13607493    -0.49764459     0.00046321     0.00077198    -0.00033580
H         0.86075324     0.04696541     1.83617930    -0.00076161     0.00075020    -0.00023132
H        -0.91559307     0.16828540     1.88676449    -0.00075144     0.00101645     0.00087756
H        -1.01769405     0.18465364    -0.56753121    -0.00010325     0.00080875    -0.00003551
     6
  Step:    27            Position(A)                                  Velocity(au)
C        -0.03531752     0.00773525    -0.09412560    -0.00000647    -0.00008073    -0.00074823
N        -0.04768447    -0.09474952     1.39276781     0.00007388    -0.00017343     0.00062306
H         0.95173087     0.14040292    -0.49966631     0.00051565     0.00077953    -0.00038732
H         0.85670861     0.05120912     1.83504194    -0.00067906     0.00077462    -0.00017228
H        -0.91969306     0.17391240     1.89159673    -0.00070845     0.00099827     0.00084984
H        -1.01819441     0.18919136    -0.56771885    -0.00007767     0.00081958    -0.00003254
     6
  Step:    28            Position(A)                                  Velocity(au)
C        -0.03537043     0.00727755    -0.09823636    -0.00001185    -0.00008338    -0.00072576
N        -0.04730197    -0.09571412     1.39619291     0.00006197    -0.00017242     0.00060508
H         0.95473656     0.14476596    -0.50196286     0.00055656     0.00078401    -0.00043400
H         0.85318233     0.05560169     1.83425857    -0.00057711     0.00080311    -0.00010524
H        -0.92349159     0.17941523     1.89623941    -0.00064443     0.00097170     0.00081002
H        -1.01856002     0.19379116    -0.56789396    -0.00005500     0.00083070    -0.00003096
     6
  Step:    29            Position(A)                                  Velocity(au)
C        -0.03544962     0.00680538    -0.10221923    -0.00001584    -0.00008587    -0.00070208
N        -0.04699339    -0.09667229     1.39951560     0.00004760    -0.00017104     0.00058610
H         0.95793755     0.14914611    -0.50450624     0.00058507     0.00078510    -0.00047550
H         0.85027268     0.06016535     1.83386835    -0.00045975     0.00083533    -0.00003237
H        -0.92687974     0.18474872     1.90062997    -0.00056256     0.00093737     0.00075993
H        -1.01880779     0.19845528    -0.56806415    -0.00003546     0.00084226    -0.00003070
     6
  Step:    30            Position(A)                                  Velocity(au)
C        -0.03554717     0.00631971    -0.10606814    -0.00001840    -0.00008817    -0.00067749
N        -0.04677097    -0.09762213     1.40273091     0.00003135    -0.00016936     0.00056639
H         0.96126302     0.15352382    -0.50726703     0.00060078     0.00078266    -0.00051169
H         0.84805382     0.06491982     1.83389752    -0.00033164     0.00087083     0.00004390
H        -0.92976696     0.18987170     1.90471645    -0.00046629     0.00089620     0.00070162
H        -1.01895558     0.20318663    -0.56823642    -0.00001917     0.00085448    -0.00003163
     6
  Step:    31            Position(A)                                  Velocity(au)
C        -0.03565494     0.00582156    -0.10977852    -0.00001951    -0.00009030    -0.00065228
N        -0.04664364    -0.09856196     1.40583530     0.00001381    -0.00016741     0.00054624
H         0.96464094     0.15787880    -0.51021562     0.00060374     0.00077661    -0.00054269
H         0.84657237     0.06988182     1.83435815    -0.00019786     0.00090905     0.00012099
H        -0.93208246     0.19474828     1.90845844    -0.00035919     0.00084920     0.00063719
H        -1.01902166     0.20798933    -0.56841701    -0.00000615     0.00086761    -0.00003359
     6
  Step:    32            Position(A)                                  Velocity(au)
C        -0.03576484     0.00531194    -0.11334739    -0.00001918    -0.00009227    -0.00062672
N        -0.04661686    -0.09949037     1.40882674    -0.00000439    -0.00016524     0.00052590
H         0.96800052     0.16219054    -0.51332329     0.00059434     0.00076698    -0.00056875
H         0.84584579     0.07506447     1.83524769    -0.00006362     0.00094932     0.00019633
H        -0.93377542     0.19934844     1.91182733    -0.00024480     0.00079744     0.00056875
H        -1.01902416     0.21286885    -0.56861123     0.00000368     0.00088192    -0.00003640
     6
  Step:    33            Position(A)                                  Velocity(au)
C        -0.03586898     0.00479181    -0.11677310    -0.00001748    -0.00009407    -0.00060102
N        -0.04669268    -0.10040613     1.41170467    -0.00002267    -0.00016288     0.00050562
H         0.97127412     0.16643874    -0.51656321     0.00057329     0.00075381    -0.00059028
H         0.84586236     0.08047678     1.83654926     0.00006605     0.00099090     0.00026746
H        -0.93481453     0.20364823     1.91480603    -0.00012647     0.00074199     0.00049826
H        -1.01898059     0.21783212    -0.56882330     0.00001046     0.00089768    -0.00003987
     6
  Step:    34            Position(A)                                  Velocity(au)
C        -0.03595988     0.00426206    -0.12005515    -0.00001448    -0.00009573    -0.00057534
N        -0.04686991    -0.10130821     1.41446973    -0.00004049    -0.00016036     0.00048557
H         0.97439880     0.17060351    -0.51991114     0.00054154     0.00073718    -0.00060780
H         0.84658293     0.08612345     1.83823271     0.00018651     0.00103301     0.00033216
H        -0.93518685     0.20762947     1.91738823    -0.00000734     0.00068381     0.00042758
H        -1.01890743     0.22288747    -0.56905625     0.00001440     0.00091513    -0.00004378
     6
  Step:    35            Position(A)                                  Velocity(au)
C        -0.03603054     0.00372345    -0.12319372    -0.00001027    -0.00009728    -0.00054976
N        -0.04714448    -0.10219564     1.41712345    -0.00005735    -0.00015768     0.00046586
H         0.97731746     0.17466533    -0.52334604     0.00050016     0.00071711    -0.00062193
H         0.84794377     0.09200482     1.84025609     0.00029375     0.00107492     0.00038850
H        -0.93489641     0.21127927     1.91957769     0.00010970     0.00062375     0.00035841
H        -1.01881986     0.22804464    -0.56931184     0.00001575     0.00093452    -0.00004788
     6
  Step:    36            Position(A)                                  Velocity(au)
C        -0.03607449     0.00317663    -0.12618931    -0.00000495    -0.00009873    -0.00052425
N        -0.04750982    -0.10306754     1.41966783    -0.00007287    -0.00015484     0.00044653
H         0.97997959     0.17860495    -0.52685064     0.00045037     0.00069359    -0.00063340
H         0.84986062     0.09811733     1.84256758     0.00038451     0.00111597     0.00043489
H        -0.93396281     0.21458922     1.92138740     0.00022201     0.00056250     0.00029234
H        -1.01873170     0.23331482    -0.56959047     0.00001472     0.00095613    -0.00005194
     6
  Step:    37            Position(A)                                  Velocity(au)
C        -0.03608578     0.00262206    -0.12904215     0.00000140    -0.00010012    -0.00049869
N        -0.04795738    -0.10392303     1.42210482    -0.00008673    -0.00015185     0.00042747
H         0.98234173     0.18240290    -0.53041214     0.00039346     0.00066653    -0.00064311
H         0.85223332     0.10445429     1.84510757     0.00045640     0.00115575     0.00047010
H        -0.93241971     0.21755434     1.92283901     0.00032719     0.00050050     0.00023089
H        -1.01865565     0.23871103    -0.56989127     0.00001145     0.00098037    -0.00005575
     6
  Step:    38            Position(A)                                  Velocity(au)
C        -0.03605884     0.00206000    -0.13175129     0.00000876    -0.00010151    -0.00047273
N        -0.04847711    -0.10476113     1.42443548    -0.00009873    -0.00014867     0.00040843
H         0.98436793     0.18603881    -0.53402339     0.00033082     0.00063558    -0.00065231
H         0.85495091     0.11100752     1.84781070     0.00050794     0.00119420     0.00049326
H        -0.93031363     0.22017140     1.92396254     0.00042304     0.00043781     0.00017558
H        -1.01860404     0.24424906    -0.57021225     0.00000580     0.00100793    -0.00005916
     6
  Step:    39            Position(A)                                  Velocity(au)
C        -0.03598812     0.00149026    -0.13431320     0.00001719    -0.00010300    -0.00044556
N        -0.04905822    -0.10558074     1.42665892    -0.00010881    -0.00014525     0.00038880
H         0.98603046     0.18948973    -0.53768556     0.00026413     0.00059996    -0.00066312
H         0.85789696     0.11776993     1.85060752     0.00053867     0.00123201     0.00050369
H        -0.92770273     0.22243597     1.92479681     0.00050752     0.00037358     0.00012822
H        -1.01859098     0.24994971    -0.57055094    -0.00000307     0.00104026    -0.00006231
     6
  Step:    40            Position(A)                                  Velocity(au)
C        -0.03586725     0.00091180    -0.13671800     0.00002704    -0.00010494    -0.00041466
N        -0.04969001    -0.10638021     1.42876943    -0.00011716    -0.00014135     0.00036673
H         0.98731215     0.19272662    -0.54141525     0.00019639     0.00055785    -0.00068068
H         0.86095552     0.12474079     1.85342533     0.00054957     0.00127126     0.00050080
H        -0.92465626     0.22433567     1.92539179     0.00057848     0.00030467     0.00009161
H        -1.01863826     0.25584488    -0.57090682    -0.00001857     0.00108098    -0.00006679
     6
  Step:    41            Position(A)                                  Velocity(au)
C        -0.03568678     0.00032085    -0.13893404     0.00003838    -0.00010878    -0.00036727
N        -0.05036380    -0.10715595     1.43074559    -0.00012396    -0.00013580     0.00033310
H         0.98821899     0.19570630    -0.54527080     0.00014343     0.00051150    -0.00072281
H         0.86402118     0.13193652     1.85618830     0.00054536     0.00130984     0.00048747
H        -0.92125629     0.22583112     1.92581770     0.00063180     0.00022585     0.00007107
H        -1.01879796     0.26199578    -0.57129517    -0.00005540     0.00113618    -0.00008828
     6
  Step:    42            Position(A)                                  Velocity(au)
C        -0.03543968    -0.00029999    -0.14080933     0.00004738    -0.00012214    -0.00030970
N        -0.05107088    -0.10789306     1.43248018    -0.00013303    -0.00013510     0.00029650
H         0.98890996     0.19842476    -0.54946736     0.00014125     0.00052591    -0.00083315
H         0.86703085     0.13933235     1.85885573     0.00055824     0.00138253     0.00051009
H        -0.91761801     0.22685168     1.92618351     0.00070269     0.00017979     0.00005982
H        -1.01925542     0.26850190    -0.57189025    -0.00011820     0.00124455    -0.00016659
     6
  Step:    43            Position(A)                                  Velocity(au)
C        -0.03517810    -0.00097662    -0.14249680     0.00004885    -0.00012110    -0.00029607
N        -0.05179939    -0.10863822     1.43410388    -0.00012880    -0.00013251     0.00028646
H         0.98950821     0.20136399    -0.55399968     0.00006822     0.00051738    -0.00080156
H         0.86999256     0.14693067     1.86166775     0.00049768     0.00135877     0.00048952
H        -0.91360606     0.22787379     1.92639034     0.00073045     0.00017618     0.00002429
H        -1.01982052     0.27536014    -0.57283231    -0.00008849     0.00123202    -0.00016495
     6
  Step:    44            Position(A)                                  Velocity(au)
C        -0.03489587    -0.00164815    -0.14410546     0.00005316    -0.00012030    -0.00028142
N        -0.05250484    -0.10936821     1.43566927    -0.00012397    -0.00012976     0.00027558
H         0.98966947     0.20418463    -0.55839097    -0.00001106     0.00049230    -0.00077909
H         0.87257137     0.15445926     1.86430541     0.00042154     0.00134852     0.00045239
H        -0.90948608     0.22881306     1.92645392     0.00074180     0.00015954     0.00000488
H        -1.02024058     0.28221773    -0.57372664    -0.00006297     0.00123630    -0.00015422
     6