|===============================================================================
|
|  DFTB+ release 20.1
|
|  Copyright (C) 2006 - 2020  DFTB+ developers group
|
|===============================================================================
|
|  When publishing results obtained with DFTB+, please cite the following
|  reference:
|
|  * DFTB+, a software package for efficient approximate density functional
|    theory based atomistic simulations, J. Chem. Phys. 152, 124101 (2020).
|    [doi: 10.1063/1.5143190]
|
|  You should also cite additional publications crediting the parametrization
|  data you use. Please consult the documentation of the SK-files for the
|  references.
|
|===============================================================================

Reading input file 'dftb_in.hsd'
Parser version: 8

--------------------------------------------------------------------------------
Reading SK-files:
Done.


Processed input in HSD format written to 'dftb_pin.hsd'

Starting initialization...
--------------------------------------------------------------------------------
OpenMP threads:              1
Chosen random seed:          511726005
Mode:                        Static calculation
Self consistent charges:     Yes
SCC-tolerance:                 0.100000E-05
Max. scc iterations:                   1000
Shell resolved Hubbard:      No
Spin polarisation:           No
Nr. of up electrons:             6.000000
Nr. of down electrons:           6.000000
Periodic boundaries:         No
Electronic solver:           Relatively robust
Maximal SCC-cycles:                    1000
Initial charges:             Set automatically (system chrg:   0.100E+01)
Included shells:             C:  s, p
                             N:  s, p
                             H:  s
Spin coupling constants:     C   1(s)-1(s):  -0.455900E-01
                             C   1(s)-2(p):  -0.293000E-01
                             C   2(p)-1(s):  -0.293000E-01
                             C   2(p)-2(p):  -0.275500E-01
                             N   1(s)-1(s):  -0.468700E-01
                             N   1(s)-2(p):  -0.317000E-01
                             N   2(p)-1(s):  -0.317000E-01
                             N   2(p)-2(p):  -0.307200E-01
                             H   1(s)-1(s):  -0.792500E-01
Range separated hybrid:      Yes
  Screening parameter omega:   0.300000E+00
  Range separated algorithm:   MatrixBased
Extra options:
                             Mulliken analysis
                             Force calculation
Force type                   original
                             Eigenvector printing


REKS Calcuation:             Yes
SSR(2,2) Calcuation:         Yes
Energy Functional:           (PPS+OSS)/2
Number of Core Orbitals:                  5
Number of Active Orbitals:                2
Number of Basis:                         12
Number of States:                         2
State-Averaging Weight:          0.500000
                                 0.500000
State of Interest:                        1
Initial Guess:               Diagonalize H0 matrix
Newton-Raphson for FON opt:  Yes
NR max. Iterations:                      50
Level Shifting:              Yes
Shift Value:                     0.300000
W Scale Factor:              C  =    3.000000
                             N  =    3.000000
                             H  =    3.000000
Transition Dipole:           No
Gradient of Microstate:      No
CP-REKS Solver:              Preconditioned Conjugate-Gradient
CG max. Iterations:                     100
CG Tolerance:                  0.100000E-07
Memory for A and Hxc:        Direct Updating Without Saving
Non-Adiabatic Coupling:      Yes

--------------------------------------------------------------------------------

***  Geometry step: 0

  iSCC       reks energy        Diff energy         x_a       SCC error   
    1       -6.2642262703       0.0000000000     0.999272    1.19867696
    2       -6.2769954346      -0.0127691642     0.999696    0.08990310
    3       -6.2807668359      -0.0037714014     0.999829    0.03821942
    4       -6.2825547971      -0.0017879612     0.999886    0.01784036
    5       -6.2835493147      -0.0009945176     0.999913    0.00841905
    6       -6.2841553721      -0.0006060574     0.999928    0.00688178
    7       -6.2845421711      -0.0003867991     0.999937    0.00653097
    8       -6.2847936679      -0.0002514967     0.999942    0.00591064
    9       -6.2849581038      -0.0001644359     0.999946    0.00520359
   10       -6.2850656960      -0.0001075922     0.999948    0.00449824
   11       -6.2851360706      -0.0000703746     0.999950    0.00383856
   12       -6.2851821029      -0.0000460324     0.999951    0.00324468
   13       -6.2852122366      -0.0000301336     0.999951    0.00272322
   14       -6.2852319919      -0.0000197553     0.999952    0.00227320
   15       -6.2852449686      -0.0000129767     0.999952    0.00188965
   16       -6.2852535114      -0.0000085429     0.999952    0.00156572
   17       -6.2852591480      -0.0000056366     0.999953    0.00129402
   18       -6.2852628751      -0.0000037271     0.999953    0.00106731
   19       -6.2852653443      -0.0000024692     0.999953    0.00087892
   20       -6.2852669831      -0.0000016388     0.999953    0.00072285
   21       -6.2852680723      -0.0000010892     0.999953    0.00059388
   22       -6.2852687971      -0.0000007248     0.999953    0.00048751
   23       -6.2852692799      -0.0000004828     0.999953    0.00039992
   24       -6.2852696018      -0.0000003219     0.999953    0.00032789
   25       -6.2852698166      -0.0000002147     0.999953    0.00026871
   26       -6.2852699599      -0.0000001433     0.999953    0.00022012
   27       -6.2852700556      -0.0000000957     0.999953    0.00018027
   28       -6.2852701195      -0.0000000639     0.999953    0.00014759
   29       -6.2852701622      -0.0000000427     0.999953    0.00012081
   30       -6.2852701908      -0.0000000285     0.999953    0.00009887
   31       -6.2852702099      -0.0000000191     0.999953    0.00008091
   32       -6.2852702226      -0.0000000127     0.999953    0.00006620
   33       -6.2852702311      -0.0000000085     0.999953    0.00005415
   34       -6.2852702368      -0.0000000057     0.999953    0.00004430
   35       -6.2852702406      -0.0000000038     0.999953    0.00003624
   36       -6.2852702432      -0.0000000025     0.999953    0.00002964
   37       -6.2852702449      -0.0000000017     0.999953    0.00002424
   38       -6.2852702460      -0.0000000011     0.999953    0.00001982
   39       -6.2852702468      -0.0000000008     0.999953    0.00001621
   40       -6.2852702473      -0.0000000005     0.999953    0.00001326
   41       -6.2852702476      -0.0000000003     0.999953    0.00001084
   42       -6.2852702479      -0.0000000002     0.999953    0.00000887
   43       -6.2852702480      -0.0000000002     0.999953    0.00000725
   44       -6.2852702481      -0.0000000001     0.999953    0.00000593
   45       -6.2852702482      -0.0000000001     0.999953    0.00000485
   46       -6.2852702482      -0.0000000000     0.999953    0.00000396
   47       -6.2852702483      -0.0000000000     0.999953    0.00000324
   48       -6.2852702483      -0.0000000000     0.999953    0.00000265
   49       -6.2852702483      -0.0000000000     0.999953    0.00000217
   50       -6.2852702483      -0.0000000000     0.999953    0.00000177
   51       -6.2852702483      -0.0000000000     0.999953    0.00000145
   52       -6.2852702483      -0.0000000000     0.999953    0.00000118
   53       -6.2852702483      -0.0000000000     0.999953    0.00000097
  
--------------------------------------------------
 Final SA-REKS(2,2) energy:      -6.28527025
  
 State     Energy      FON(1)    FON(2)   Spin
  PPS   -6.41224157   1.999905  0.000095  0.00
  OSS   -6.15829892   1.000000  1.000000  0.00
 Trip   -6.23928901   1.000000  1.000000  1.00
--------------------------------------------------

 Lagrangian Wab:   0.00558796  0.00558778

--------------------------------------------------
 SSR: 2SI-2SA-REKS(2,2) Hamiltonian matrix
               PPS           OSS
   PPS    -6.41224157    0.00784801
   OSS     0.00784801   -6.15829892
--------------------------------------------------

----------------------------------------------------------------
 SSR: 2SI-2SA-REKS(2,2) states
                    E_n       C_{PPS}    C_{OSS}
 SSR state  1   -6.41248388  -0.999524   0.030860
 SSR state  2   -6.15805661  -0.030860  -0.999524
----------------------------------------------------------------

 unrelaxed SSR FONs for S0:  1.998953  0.001047

Total Energy:                       -6.4124838825 H         -174.4926 eV
Extrapolated to 0:                  -6.4124838825 H         -174.4926 eV

----------------------------------------------------------------------------------
 Solving CP-REKS equation for  1 state vector...
----------------------------------------------------------------------------------
  CG solver: Constructing Y initial guess
  CG solver: Iteration    1    eps =    0.000106740962
  CG solver: Iteration    2    eps =    0.000047899847
  CG solver: Iteration    3    eps =    0.000002287962
  CG solver: Iteration    4    eps =    0.000000601908
  CG solver: Iteration    5    eps =    0.000000012116
  CG solver: Iteration    6    eps =    0.000000002803
  Convergence reached in CG solver after    6 iterations
  CG solver: Calculating converged R, Z, Q2 matrix
----------------------------------------------------------------------------------

----------------------------------------------------------------------------------
 Solving CP-REKS equation for SI between  1 and  2 state vectors...
----------------------------------------------------------------------------------
  CG solver: Constructing Y initial guess
  CG solver: Iteration    1    eps =    0.001914028702
  CG solver: Iteration    2    eps =    0.002155072188
  CG solver: Iteration    3    eps =    0.000400232706
  CG solver: Iteration    4    eps =    0.000004720413
  CG solver: Iteration    5    eps =    0.000000628693
  CG solver: Iteration    6    eps =    0.000000011352
  CG solver: Iteration    7    eps =    0.000000000411
  Convergence reached in CG solver after    7 iterations
  CG solver: Calculating converged R, Z, Q2 matrix
----------------------------------------------------------------------------------

--------------------------------------------------
 Gradient Information
--------------------------------------------------
           1 st state (SSR)
    -0.00010566    -0.00165872     0.01864877
     0.00058447     0.00357946    -0.02179684
    -0.01189106    -0.00462141    -0.00164353
    -0.01084473     0.00709953     0.00400649
     0.01033263    -0.00941997     0.00214087
     0.01192434     0.00502110    -0.00135576

           2 st state (SSR)
    -0.00058783    -0.00584819     0.12207742
     0.00147711     0.00856387    -0.14302465
     0.00816661    -0.02003568     0.01685343
     0.01260091     0.00623932    -0.00621633
    -0.01336056    -0.00711974    -0.00814499
    -0.00829624     0.01820043     0.01845511
--------------------------------------------------
 Coupling Information
--------------------------------------------------
 between  1 and  2 states
--------------------------------------------------
 g vector - difference gradient
     0.00025385     0.00213660    -0.05256693
    -0.00045881    -0.00252089     0.06127204
    -0.01074525     0.00782374    -0.00920721
    -0.01244200     0.00073719     0.00518280
     0.01257137    -0.00146616     0.00518848
     0.01082084    -0.00671049    -0.00986918

 h vector - derivative coupling
     0.00019912     0.00061260    -0.01219740
    -0.00018839    -0.00038722     0.00877640
    -0.01128109     0.00164859     0.00095324
    -0.01127346     0.00495497     0.00099714
     0.01136016    -0.00507763     0.00057814
     0.01118368    -0.00175133     0.00089249

 G vector - GDV
     0.00024108     0.00209474    -0.05171432
    -0.00044632    -0.00249220     0.06061391
    -0.01002884     0.00770714    -0.00924848
    -0.01172282     0.00043011     0.00511141
     0.01184660    -0.00115012     0.00514293
     0.01011029    -0.00658966    -0.00990544

 H vector - DCV - non-adiabatic coupling
     0.00084267     0.00292126    -0.06059532
    -0.00085031    -0.00213026     0.04928579
    -0.04686014     0.00836433     0.00150697
    -0.04724162     0.01961667     0.00516838
     0.04761308    -0.02027457     0.00352604
     0.04649632    -0.00849742     0.00110814
--------------------------------------------------


--------------------------------------------------------------------------------
DFTB+ running times                          cpu [s]             wall clock [s]
--------------------------------------------------------------------------------
SCC                                    +     0.02  ( 68.5%)      0.03  ( 61.4%)
Post-SCC processing                    +     0.01  ( 28.0%)      0.01  ( 25.0%)
  Force calculation                          0.01  ( 27.5%)      0.01  ( 22.7%)
--------------------------------------------------------------------------------
Missing                                +     0.00  (  3.5%)      0.01  ( 13.6%)
Total                                  =     0.04  (100.0%)      0.04  (100.0%)
--------------------------------------------------------------------------------
