 Fermi distribution function

Calculation with static geometry


********************************************************************************
 iSCC Total electronic   Diff electronic      SCC error    
   10   -0.54191816E+01   -0.24069635E-12    0.24403531E-07
********************************************************************************

 Total charge:     1.00000000

 Atomic gross charges (e)
 Atom           Charge
    1       0.14669689
    2      -0.03000113
    3       0.15885752
    4       0.27681696
    5       0.26896194
    6       0.17866782

Nr. of electrons (up):     12.00000000
Atom populations (up)
 Atom       Population
    1       3.85330311
    2       5.03000113
    3       0.84114248
    4       0.72318304
    5       0.73103806
    6       0.82133218

l-shell populations (up)
 Atom Sh.   l       Population
    1   1   0       1.31294610
    1   2   1       2.54035701
    2   1   0       1.42059815
    2   2   1       3.60940297
    3   1   0       0.84114248
    4   1   0       0.72318304
    5   1   0       0.73103806
    6   1   0       0.82133218

Orbital populations (up)
 Atom Sh.   l   m       Population  Label
    1   1   0   0       1.31294610  s
    1   2   1  -1       0.61627304  p_y
    1   2   1   0       0.87917881  p_z
    1   2   1   1       1.04490516  p_x
    2   1   0   0       1.42059815  s
    2   2   1  -1       1.34554912  p_y
    2   2   1   0       1.11073957  p_z
    2   2   1   1       1.15311428  p_x
    3   1   0   0       0.84114248  s
    4   1   0   0       0.72318304  s
    5   1   0   0       0.73103806  s
    6   1   0   0       0.82133218  s

Fermi level:                        -0.4975732692 H          -13.5397 eV
Band energy:                        -8.9569412080 H         -243.7308 eV
TS:                                  0.0000000000 H            0.0000 eV
Band free energy (E-TS):            -8.9569412080 H         -243.7308 eV
Extrapolated E(0K):                 -8.9569412080 H         -243.7308 eV
Input / Output electrons (q):     12.0000000000     12.0000000000

Energy H0:                          -5.5535665622 H         -151.1202 eV
Energy SCC:                          0.1343849831 H            3.6568 eV
Total Electronic energy:            -5.4191815791 H         -147.4634 eV
Repulsive energy:                    0.1903301337 H            5.1791 eV
Total energy:                       -5.2288514454 H         -142.2843 eV
Extrapolated to 0:                  -5.2288514454 H         -142.2843 eV
Total Mermin free energy:           -5.2288514454 H         -142.2843 eV
Force related energy:               -5.2288514454 H         -142.2843 eV

SCC converged

Excitation Energy:                   0.1544300098 H            4.2023 eV

Total Forces
    1     -0.004716591747      0.000523613726      0.015237542145
    2     -0.011223983583      0.007451023637     -0.031093968871
    3     -0.003810295474     -0.004271304709      0.001564163797
    4      0.000167840267      0.003114752416      0.006689350590
    5      0.009968951676     -0.007537852908      0.003905819454
    6      0.009614078860      0.000719767838      0.003697092885

Maximal derivative component:        0.310940E-01 au


