|===============================================================================
|
|  DFTB+ release 20.1
|
|  Copyright (C) 2006 - 2020  DFTB+ developers group
|
|===============================================================================
|
|  When publishing results obtained with DFTB+, please cite the following
|  reference:
|
|  * DFTB+, a software package for efficient approximate density functional
|    theory based atomistic simulations, J. Chem. Phys. 152, 124101 (2020).
|    [doi: 10.1063/1.5143190]
|
|  You should also cite additional publications crediting the parametrization
|  data you use. Please consult the documentation of the SK-files for the
|  references.
|
|===============================================================================

Reading input file 'dftb_in.hsd'
Parser version: 8

--------------------------------------------------------------------------------
Reading SK-files:
Done.


Processed input in HSD format written to 'dftb_pin.hsd'

Starting initialization...
--------------------------------------------------------------------------------
OpenMP threads:              1
Chosen random seed:          510960410
Mode:                        Static calculation
Self consistent charges:     Yes
SCC-tolerance:                 0.100000E-05
Max. scc iterations:                   1000
Shell resolved Hubbard:      No
Spin polarisation:           No
Nr. of up electrons:             6.000000
Nr. of down electrons:           6.000000
Periodic boundaries:         No
Electronic solver:           Relatively robust
Maximal SCC-cycles:                    1000
Initial charges:             Set automatically (system chrg:   0.100E+01)
Included shells:             C:  s, p
                             N:  s, p
                             H:  s
Spin coupling constants:     C   1(s)-1(s):  -0.455900E-01
                             C   1(s)-2(p):  -0.293000E-01
                             C   2(p)-1(s):  -0.293000E-01
                             C   2(p)-2(p):  -0.275500E-01
                             N   1(s)-1(s):  -0.468700E-01
                             N   1(s)-2(p):  -0.317000E-01
                             N   2(p)-1(s):  -0.317000E-01
                             N   2(p)-2(p):  -0.307200E-01
                             H   1(s)-1(s):  -0.792500E-01
Range separated hybrid:      Yes
  Screening parameter omega:   0.300000E+00
  Range separated algorithm:   MatrixBased
Extra options:
                             Mulliken analysis
                             Force calculation
Force type                   original
                             Eigenvector printing


REKS Calcuation:             Yes
SSR(2,2) Calcuation:         Yes
Energy Functional:           (PPS+OSS)/2
Number of Core Orbitals:                  5
Number of Active Orbitals:                2
Number of Basis:                         12
Number of States:                         2
State-Averaging Weight:          0.500000
                                 0.500000
State of Interest:                        1
Initial Guess:               Diagonalize H0 matrix
Newton-Raphson for FON opt:  Yes
NR max. Iterations:                      50
Level Shifting:              Yes
Shift Value:                     0.300000
W Scale Factor:              C  =    3.000000
                             N  =    3.000000
                             H  =    3.000000
Transition Dipole:           No
Gradient of Microstate:      No
CP-REKS Solver:              Preconditioned Conjugate-Gradient
CG max. Iterations:                     100
CG Tolerance:                  0.100000E-07
Memory for A and Hxc:        Direct Updating Without Saving
Non-Adiabatic Coupling:      Yes

--------------------------------------------------------------------------------

***  Geometry step: 0

  iSCC       reks energy        Diff energy         x_a       SCC error   
    1       -6.2391737907       0.0000000000     0.998603    1.18890261
    2       -6.2566166846      -0.0174428939     0.999582    0.12219900
    3       -6.2624848191      -0.0058681345     0.999815    0.07636658
    4       -6.2655584112      -0.0030735921     0.999891    0.04520308
    5       -6.2678962725      -0.0023378613     0.999923    0.02845366
    6       -6.2701778004      -0.0022815279     0.999938    0.02006421
    7       -6.2726305516      -0.0024527512     0.999948    0.02033475
    8       -6.2752827847      -0.0026522330     0.999955    0.02210191
    9       -6.2780295605      -0.0027467758     0.999961    0.02212019
   10       -6.2806749612      -0.0026454007     0.999966    0.02055136
   11       -6.2830042962      -0.0023293350     0.999970    0.01776835
   12       -6.2848696418      -0.0018653456     0.999973    0.01513721
   13       -6.2862361284      -0.0013664866     0.999975    0.01287506
   14       -6.2871647185      -0.0009285902     0.999975    0.01054988
   15       -6.2877603646      -0.0005956461     0.999976    0.00843027
   16       -6.2881271408      -0.0003667761     0.999975    0.00664158
   17       -6.2883469860      -0.0002198452     0.999975    0.00520094
   18       -6.2884766227      -0.0001296367     0.999975    0.00410454
   19       -6.2885524030      -0.0000757803     0.999974    0.00338221
   20       -6.2885965556      -0.0000441526     0.999974    0.00275104
   21       -6.2886222938      -0.0000257382     0.999973    0.00222019
   22       -6.2886373447      -0.0000150509     0.999973    0.00178343
   23       -6.2886461891      -0.0000088444     0.999973    0.00142865
   24       -6.2886514175      -0.0000052284     0.999973    0.00114261
   25       -6.2886545287      -0.0000031112     0.999973    0.00091297
   26       -6.2886563925      -0.0000018638     0.999972    0.00072907
   27       -6.2886575165      -0.0000011240     0.999972    0.00058199
   28       -6.2886581985      -0.0000006821     0.999972    0.00046446
   29       -6.2886586149      -0.0000004163     0.999972    0.00037058
   30       -6.2886588704      -0.0000002555     0.999972    0.00029562
   31       -6.2886590279      -0.0000001575     0.999972    0.00023578
   32       -6.2886591254      -0.0000000975     0.999972    0.00018802
   33       -6.2886591860      -0.0000000606     0.999972    0.00014991
   34       -6.2886592237      -0.0000000378     0.999972    0.00011950
   35       -6.2886592473      -0.0000000236     0.999972    0.00009524
   36       -6.2886592621      -0.0000000148     0.999972    0.00007590
   37       -6.2886592714      -0.0000000093     0.999972    0.00006048
   38       -6.2886592772      -0.0000000058     0.999972    0.00004818
   39       -6.2886592809      -0.0000000037     0.999972    0.00003838
   40       -6.2886592832      -0.0000000023     0.999972    0.00003057
   41       -6.2886592846      -0.0000000015     0.999972    0.00002435
   42       -6.2886592855      -0.0000000009     0.999972    0.00001939
   43       -6.2886592861      -0.0000000006     0.999972    0.00001544
   44       -6.2886592865      -0.0000000004     0.999972    0.00001229
   45       -6.2886592867      -0.0000000002     0.999972    0.00000978
   46       -6.2886592869      -0.0000000001     0.999972    0.00000779
   47       -6.2886592870      -0.0000000001     0.999972    0.00000620
   48       -6.2886592870      -0.0000000001     0.999972    0.00000494
   49       -6.2886592871      -0.0000000000     0.999972    0.00000393
   50       -6.2886592871      -0.0000000000     0.999972    0.00000313
   51       -6.2886592871      -0.0000000000     0.999972    0.00000249
   52       -6.2886592871      -0.0000000000     0.999972    0.00000198
   53       -6.2886592871      -0.0000000000     0.999972    0.00000158
   54       -6.2886592871      -0.0000000000     0.999972    0.00000125
   55       -6.2886592871      -0.0000000000     0.999972    0.00000100
  
--------------------------------------------------
 Final SA-REKS(2,2) energy:      -6.28865929
  
 State     Energy      FON(1)    FON(2)   Spin
  PPS   -6.41902291   1.999944  0.000056  0.00
  OSS   -6.15829566   1.000000  1.000000  0.00
 Trip   -6.23677357   1.000000  1.000000  1.00
--------------------------------------------------

 Lagrangian Wab:  -0.00018309 -0.00018308

--------------------------------------------------
 SSR: 2SI-2SA-REKS(2,2) Hamiltonian matrix
               PPS           OSS
   PPS    -6.41902291   -0.00025755
   OSS    -0.00025755   -6.15829566
--------------------------------------------------

----------------------------------------------------------------
 SSR: 2SI-2SA-REKS(2,2) states
                    E_n       C_{PPS}    C_{OSS}
 SSR state  1   -6.41902316  -1.000000  -0.000988
 SSR state  2   -6.15829541   0.000988  -1.000000
----------------------------------------------------------------

 unrelaxed SSR FONs for S0:  1.999943  0.000057

Total Energy:                       -6.4190231644 H         -174.6705 eV
Extrapolated to 0:                  -6.4190231644 H         -174.6705 eV

----------------------------------------------------------------------------------
 Solving CP-REKS equation for  1 state vector...
----------------------------------------------------------------------------------
  CG solver: Constructing Y initial guess
  CG solver: Iteration    1    eps =    0.000029173484
  CG solver: Iteration    2    eps =    0.000001359857
  CG solver: Iteration    3    eps =    0.000000329782
  CG solver: Iteration    4    eps =    0.000000002522
  Convergence reached in CG solver after    4 iterations
  CG solver: Calculating converged R, Z, Q2 matrix
----------------------------------------------------------------------------------

----------------------------------------------------------------------------------
 Solving CP-REKS equation for SI between  1 and  2 state vectors...
----------------------------------------------------------------------------------
  CG solver: Constructing Y initial guess
  CG solver: Iteration    1    eps =    0.000294915713
  CG solver: Iteration    2    eps =    0.000099402599
  CG solver: Iteration    3    eps =    0.000007401243
  CG solver: Iteration    4    eps =    0.000000885168
  CG solver: Iteration    5    eps =    0.000000003880
  Convergence reached in CG solver after    5 iterations
  CG solver: Calculating converged R, Z, Q2 matrix
----------------------------------------------------------------------------------

--------------------------------------------------
 Gradient Information
--------------------------------------------------
           1 st state (SSR)
     0.00015428     0.00210201    -0.01498682
     0.00321039    -0.00070623     0.01321890
    -0.00022475     0.00350844    -0.00177679
    -0.00074045     0.00002588     0.00340007
    -0.00174847    -0.00063169     0.00266960
    -0.00065099    -0.00429841    -0.00252495

           2 st state (SSR)
     0.00108187    -0.00476153     0.08086078
    -0.00261690     0.00605260    -0.10441329
    -0.00155160     0.01679336     0.01896728
     0.00071206    -0.00648118    -0.00626696
     0.00067492     0.00755858    -0.00588546
     0.00169965    -0.01916182     0.01673766
--------------------------------------------------
 Coupling Information
--------------------------------------------------
 between  1 and  2 states
--------------------------------------------------
 g vector - difference gradient
    -0.00046409     0.00343151    -0.04792413
     0.00291377    -0.00338095     0.05881610
     0.00067395    -0.00664166    -0.01037196
    -0.00071506     0.00325479     0.00483393
    -0.00122300    -0.00409504     0.00427741
    -0.00118557     0.00743135    -0.00963135

 h vector - derivative coupling
     0.00014797     0.00013668     0.00012144
    -0.00006250     0.00077163     0.00005346
    -0.00533014    -0.00041009    -0.00004885
    -0.00566462    -0.00063526    -0.00020364
     0.00572149    -0.00004999     0.00006348
     0.00518780     0.00018703     0.00001412

 G vector - GDV
    -0.00046380     0.00343177    -0.04792380
     0.00291364    -0.00337942     0.05881609
     0.00066342    -0.00664246    -0.01037204
    -0.00072625     0.00325353     0.00483352
    -0.00121170    -0.00409513     0.00427753
    -0.00117532     0.00743171    -0.00963130

 H vector - DCV - non-adiabatic coupling
     0.00057104     0.00049822     0.00082892
    -0.00026178     0.00298512    -0.00024063
    -0.02044839    -0.00152254    -0.00010878
    -0.02172074    -0.00246113    -0.00081769
     0.02195354    -0.00016070     0.00021106
     0.01990633     0.00066103     0.00012712
--------------------------------------------------


--------------------------------------------------------------------------------
DFTB+ running times                          cpu [s]             wall clock [s]
--------------------------------------------------------------------------------
SCC                                    +     0.02  ( 70.4%)      0.03  ( 63.4%)
Post-SCC processing                    +     0.01  ( 25.5%)      0.01  ( 24.4%)
--------------------------------------------------------------------------------
Missing                                +     0.00  (  4.1%)      0.01  ( 12.2%)
Total                                  =     0.03  (100.0%)      0.04  (100.0%)
--------------------------------------------------------------------------------
