    14
  Step:     0            Position(A)                                  Velocity(au)
C        -6.03479749    -0.80744456    -0.12787755    -0.00002671    -0.00025204    -0.00018889
C        -4.69253026    -0.73151762     0.14349907     0.00041339     0.00020472     0.00006957
H        -6.59920621     0.04116502    -0.48081510     0.00024445     0.00065462     0.00052805
H        -6.64257498    -1.66488923    -0.03743615    -0.00108136     0.00060938     0.00052514
H        -4.09126230    -1.60517651     0.45323897     0.00066582    -0.00035621     0.00006911
C        -3.90801352     0.47635456    -0.02999344    -0.00010646    -0.00010169     0.00020049
C        -2.54782058     0.51726358     0.17607519    -0.00017676     0.00007436    -0.00015578
H        -4.45276110     1.39432227    -0.27554983    -0.00004866     0.00063986    -0.00023516
H        -1.94198379    -0.45703571     0.41273708    -0.00041582    -0.00004813    -0.00020980
C        -1.82892783     1.73858130    -0.01047629     0.00038305     0.00018443     0.00010461
H        -2.32937186     2.70558055    -0.18581609     0.00009231     0.00111356    -0.00040297
N        -0.53132119     1.75620412     0.18837320    -0.00038520    -0.00031175    -0.00018683
H         0.00464587     2.66657658     0.13350838     0.00028227    -0.00097281     0.00075059
H         0.01171900     0.93682595     0.57417839    -0.00018351     0.00138383     0.00121379
    14
  Step:     1            Position(A)                                  Velocity(au)
C        -6.03514381    -0.81012029    -0.12996908    -0.00003497    -0.00023539    -0.00019292
C        -4.68779763    -0.72923359     0.14425744     0.00044862     0.00020946     0.00006903
H        -6.59647651     0.04897297    -0.47519136     0.00026161     0.00075822     0.00050236
H        -6.65481393    -1.65984393    -0.03134383    -0.00114883     0.00031613     0.00058718
H        -4.08466724    -1.60898951     0.45393708     0.00053169    -0.00032425     0.00005359
C        -3.90964732     0.47513069    -0.02780704    -0.00019286    -0.00011863     0.00019829
C        -2.54932359     0.51803975     0.17439088    -0.00009662     0.00006907    -0.00015203
H        -4.45307369     1.40123947    -0.27820695    -0.00000040     0.00060181    -0.00024431
H        -1.94790199    -0.45540429     0.40999860    -0.00066026     0.00034166    -0.00028990
C        -1.82505109     1.74051617    -0.00929729     0.00031825     0.00017021     0.00010972
H        -2.32819531     2.71707528    -0.19042916     0.00013794     0.00095780    -0.00043428
N        -0.53506015     1.75287817     0.18640933    -0.00029500    -0.00029498    -0.00017192
H         0.00672304     2.65403558     0.14184623     0.00010119    -0.00129526     0.00076746
H         0.00848251     0.95344900     0.58657958    -0.00039550     0.00161439     0.00106457
    14
  Step:     2            Position(A)                                  Velocity(au)
C        -6.03556248    -0.81259413    -0.13209805    -0.00004069    -0.00021599    -0.00019563
C        -4.68271590    -0.72693535     0.14500918     0.00047694     0.00020775     0.00006825
H        -6.59348301     0.05775264    -0.46982503     0.00029279     0.00082982     0.00048151
H        -6.66770782    -1.65797322    -0.02459055    -0.00119310     0.00004164     0.00064404
H        -4.07963056    -1.61227020     0.45441128     0.00038446    -0.00026243     0.00002945
C        -3.91223277     0.47375928    -0.02565551    -0.00028007    -0.00012911     0.00019423
C        -2.54993440     0.51877467     0.17274927    -0.00001428     0.00006777    -0.00014818
H        -4.45276979     1.40748795    -0.28089449     0.00006085     0.00052134    -0.00024185
H        -1.95642818    -0.44956121     0.40639502    -0.00088565     0.00071169    -0.00036563
C        -1.82196542     1.74230501    -0.00807586     0.00024008     0.00015703     0.00011270
H        -2.32635423     2.72653417    -0.19531686     0.00020958     0.00074909    -0.00045455
N        -0.53777484     1.74975085     0.18461208    -0.00020054    -0.00027576    -0.00015705
H         0.00685959     2.63824027     0.15029800    -0.00006195    -0.00155122     0.00077058
H         0.00306668     0.97214392     0.59746792    -0.00057201     0.00175007     0.00094514
    14
  Step:     3            Position(A)                                  Velocity(au)
C        -6.03603402    -0.81484545    -0.13424894    -0.00004543    -0.00019545    -0.00019684
C        -4.67736372    -0.72468858     0.14575052     0.00049815     0.00020073     0.00006703
H        -6.59007118     0.06712695    -0.46465731     0.00033742     0.00086581     0.00046604
H        -6.68091537    -1.65893305    -0.01725412    -0.00119986    -0.00019165     0.00069197
H        -4.07625638    -1.61473059     0.45458128     0.00023148    -0.00017832    -0.00000074
C        -3.91577440     0.47230610    -0.02355797    -0.00036759    -0.00013432     0.00018855
C        -2.54963590     0.51952227     0.17114922     0.00006914     0.00007248    -0.00014463
H        -4.45174255     1.41264472    -0.28349783     0.00012826     0.00040685    -0.00023038
H        -1.96727722    -0.43983470     0.40199976    -0.00107743     0.00104041    -0.00043210
C        -1.81979885     1.74395155    -0.00683177     0.00015225     0.00014341     0.00011426
H        -2.32361036     2.73346297    -0.20037330     0.00029844     0.00050340    -0.00046669
N        -0.53944733     1.74684545     0.18297350    -0.00010724    -0.00025484    -0.00014364
H         0.00536768     2.62009974     0.15870422    -0.00018608    -0.00170856     0.00075885
H        -0.00403123     0.99173509     0.60725624    -0.00069454     0.00176844     0.00087102
    14
  Step:     4            Position(A)                                  Velocity(au)
C        -6.03655635    -0.81687000    -0.13640428    -0.00005083    -0.00017510    -0.00019642
C        -4.67181801    -0.72254389     0.14647569     0.00051287     0.00019006     0.00006525
H        -6.58610130     0.07669380    -0.45962953     0.00039343     0.00086524     0.00045558
H        -6.69395700    -1.66216599    -0.00945247    -0.00115915    -0.00036822     0.00072758
H        -4.07456645    -1.61617140     0.45439520     0.00008029    -0.00008038    -0.00003433
C        -3.92027445     0.47082083    -0.02153056    -0.00045550    -0.00013599     0.00018155
C        -2.54842184     0.52036040     0.16958511     0.00015274     0.00008556    -0.00014181
H        -4.44996391     1.41638868    -0.28593439     0.00019455     0.00026818    -0.00021307
H        -1.97999899    -0.42680034     0.39694203    -0.00121996     0.00130405    -0.00048390
C        -1.81863462     1.74544228    -0.00557613     0.00005903     0.00012770     0.00011523
H        -2.31982530     2.73754694    -0.20552660     0.00039535     0.00023729    -0.00047391
N        -0.54012101     1.74417584     0.18146958    -0.00002054    -0.00023322    -0.00013307
H         0.00278874     2.60086229     0.16689927    -0.00025138    -0.00173910     0.00073231
H        -0.01212763     1.01083188     0.61652309    -0.00074921     0.00165489     0.00085535
    14
  Step:     5            Position(A)                                  Velocity(au)
C        -6.03714599    -0.81867600    -0.13854599    -0.00005861    -0.00015587    -0.00019441
C        -4.66614361    -0.72053064     0.14717791     0.00052262     0.00017782     0.00006283
H        -6.58146412     0.08605572    -0.45469069     0.00045753     0.00082971     0.00044907
H        -6.70627394    -1.66698848    -0.00133692    -0.00106676    -0.00048053     0.00074849
H        -4.07449993    -1.61648909     0.45383026    -0.00006163     0.00002243    -0.00006869
C        -3.92573927     0.46933108    -0.01958623    -0.00054407    -0.00013624     0.00017356
C        -2.54629443     0.52139399     0.16804692     0.00023547     0.00010943    -0.00014012
H        -4.44748646     1.41851160    -0.28815922     0.00025240     0.00011585    -0.00019348
H        -1.99396627    -0.41130605     0.39141342    -0.00129673     0.00147667    -0.00051501
C        -1.81850752     1.74674513    -0.00431087    -0.00003516     0.00010832     0.00011639
H        -2.31496127     2.73865422    -0.21074102     0.00049111    -0.00003260    -0.00047950
N        -0.53989674     1.74174332     0.18006225     0.00005500    -0.00021219    -0.00012635
H        -0.00013178     2.58205355     0.17472492    -0.00024252    -0.00162349     0.00069229
H        -0.02042174     1.02793906     0.62596877    -0.00073067     0.00140769     0.00090519
    14
  Step:     6            Position(A)                                  Velocity(au)
C        -6.03783864    -0.82027985    -0.14065728    -0.00007029    -0.00013836    -0.00019096
C        -4.66038467    -0.71865374     0.14785023     0.00052910     0.00016594     0.00005979
H        -6.57609201     0.09484539    -0.44980518     0.00052557     0.00076296     0.00044495
H        -6.71729442    -1.67267853     0.00692225    -0.00092408    -0.00052828     0.00075365
H        -4.07591472    -1.61568072     0.45289242    -0.00018701     0.00012082    -0.00010106
C        -3.93217706     0.46784036    -0.01773356    -0.00063239    -0.00013686     0.00016507
C        -2.54327053     0.52275442     0.16651960     0.00031488     0.00014598    -0.00014011
H        -4.44444211     1.41892302    -0.29016704     0.00029476    -0.00003939    -0.00017509
H        -2.00836752    -0.39449545     0.38567519    -0.00129164     0.00153171    -0.00051899
C        -1.81940372     1.74781203    -0.00302992    -0.00012600     0.00008431     0.00011830
H        -2.30908125     2.73683367    -0.21601669     0.00057655    -0.00028997    -0.00048662
N        -0.53891781     1.73953384     0.17870535     0.00011676    -0.00019320    -0.00012376
H        -0.00251679     2.56534533     0.18204437    -0.00015319    -0.00135777     0.00064129
H        -0.02811241     1.04162785     0.63632584    -0.00064573     0.00104272     0.00101744
    14
  Step:     7            Position(A)                                  Velocity(au)
C        -6.03868376    -0.82170280    -0.14272352    -0.00008638    -0.00012285    -0.00018620
C        -4.65456855    -0.71690041     0.14848596     0.00053287     0.00015521     0.00005612
H        -6.56996623     0.10274697    -0.44495655     0.00059292     0.00067044     0.00044136
H        -6.72648986    -1.67854572     0.01515072    -0.00073703    -0.00051677     0.00074330
H        -4.07859118    -1.61384587     0.45161944    -0.00028908     0.00020556    -0.00012830
C        -3.93957401     0.46633704    -0.01597493    -0.00071675    -0.00013833     0.00015671
C        -2.53940593     0.52458763     0.16498180     0.00038602     0.00019552    -0.00014235
H        -4.44103794     1.41764996    -0.29198957     0.00031504    -0.00018692    -0.00016099
H        -2.02222341    -0.37779686     0.38005957    -0.00119217     0.00144695    -0.00049009
C        -1.82126412     1.74858951    -0.00172289    -0.00020965     0.00005586     0.00012115
H        -2.30234819     2.73231065    -0.22138681     0.00064264    -0.00051897    -0.00049814
N        -0.53734247     1.73751673     0.17735483     0.00016490    -0.00017762    -0.00012456
H        -0.00348312     2.55234962     0.18875431     0.00000938    -0.00095950     0.00058267
H        -0.03454842     1.05075057     0.64822723    -0.00051467     0.00059501     0.00117645
    14
  Step:     8            Position(A)                                  Velocity(au)
C        -6.03972833    -0.82296743    -0.14473073    -0.00010581    -0.00010934    -0.00018008
C        -4.64872704    -0.71525826     0.14907789     0.00053252     0.00014487     0.00005170
H        -6.56312069     0.10951259    -0.44014967     0.00065471     0.00055890     0.00043631
H        -6.73341847    -1.68398391     0.02318329    -0.00051477    -0.00045518     0.00071861
H        -4.08223891    -1.61118380     0.45008557    -0.00036186     0.00026797    -0.00014707
C        -3.94785725     0.46481403    -0.01430526    -0.00079105    -0.00013958     0.00014909
C        -2.53482558     0.52703173     0.16340548     0.00044252     0.00025629    -0.00014729
H        -4.43755005     1.41483371    -0.29368892     0.00030733    -0.00031656    -0.00015373
H        -2.03444846    -0.36284057     0.37495356    -0.00099415     0.00121248    -0.00042540
C        -1.82399013     1.74903397    -0.00037963    -0.00028279     0.00002422     0.00012482
H        -2.29502226     2.72548030    -0.22691436     0.00068091    -0.00070462    -0.00051674
N        -0.53531034     1.73564802     0.17598038     0.00020231    -0.00016627    -0.00012708
H        -0.00231160     2.54435444     0.19479142     0.00022262    -0.00046973     0.00051991
H        -0.03937180     1.05464486     0.66206290    -0.00036808     0.00011460     0.00135496
    14
  Step:     9            Position(A)                                  Velocity(au)
C        -6.04099854    -0.82409472    -0.14666303    -0.00012634    -0.00009759    -0.00017237
C        -4.64291868    -0.71373106     0.14961696     0.00052538     0.00013332     0.00004635
H        -6.55564322     0.11497407    -0.43541149     0.00070607     0.00043596     0.00042775
H        -6.73775138    -1.68850365     0.03087169    -0.00026817    -0.00035492     0.00068135
H        -4.08650767    -1.60798351     0.44840209    -0.00040067     0.00030076    -0.00015431
C        -3.95687985     0.46328337    -0.01271323    -0.00084941    -0.00013885     0.00014266
C        -2.52972500     0.53019451     0.16175949     0.00047947     0.00032466    -0.00015488
H        -4.43431445     1.41072459    -0.29535270     0.00026684    -0.00041885    -0.00015554
H        -2.04397231    -0.35127161     0.37075320    -0.00070668     0.00083994    -0.00032733
C        -1.82745072     1.74911943     0.00100789    -0.00034283    -0.00000910     0.00012917
H        -2.28745201     2.71689571    -0.23269156     0.00068404    -0.00083337    -0.00054515
N        -0.53291645     1.73387916     0.17457463     0.00023351    -0.00015902    -0.00012907
H         0.00138704     2.54207341     0.20012830     0.00045161     0.00005196     0.00045566
H        -0.04260078     1.05325758     0.67786962    -0.00023967    -0.00034309     0.00151907
    14
  Step:    10            Position(A)                                  Velocity(au)
C        -6.04249230    -0.82510242    -0.14850167    -0.00014547    -0.00008730    -0.00016286
C        -4.63723339    -0.71234154     0.15009195     0.00050894     0.00011899     0.00003992
H        -6.54767416     0.11905000    -0.43079178     0.00074239     0.00030965     0.00041368
H        -6.73928515    -1.69174836     0.03808923    -0.00000894    -0.00022851     0.00063369
H        -4.09100433    -1.60460406     0.44670964    -0.00040264     0.00029886    -0.00014792
C        -3.96643973     0.46177635    -0.01118426    -0.00088804    -0.00013463     0.00013758
C        -2.52433632     0.53413425     0.16001718     0.00049537     0.00039524    -0.00016432
H        -4.43171246     1.40567066    -0.29709168     0.00019036    -0.00048591    -0.00016838
H        -2.04990836    -0.34446535     0.36779265    -0.00035429     0.00036813    -0.00020506
C        -1.83149011     1.74883498     0.00244630    -0.00038785    -0.00004287     0.00013410
H        -2.28005752     2.70724878    -0.23884062     0.00064684    -0.00089441    -0.00058590
N        -0.53020176     1.73216911     0.17315681     0.00026315    -0.00015474    -0.00012821
H         0.00756818     2.54549119     0.20475990     0.00065674     0.00053921     0.00039125
H        -0.04461515     1.04713906     0.69529546    -0.00015775    -0.00072881     0.00163581
    14
  Step:    11            Position(A)                                  Velocity(au)
C        -6.04418102    -0.82600463    -0.15022592    -0.00016099    -0.00007813    -0.00015143
C        -4.63178455    -0.71112782     0.15049036     0.00048157     0.00010064     0.00003235
H        -6.53940207     0.12174827    -0.42636140     0.00075958     0.00018804     0.00039227
H        -6.73794688    -1.69350285     0.04473490     0.00025097    -0.00008903     0.00057818
H        -4.09531623    -1.60144543     0.44516599    -0.00036729     0.00026025    -0.00012702
C        -3.97630753     0.46033802    -0.00970339    -0.00090546    -0.00012587     0.00013380
C        -2.51888784     0.53884112     0.15816470     0.00049180     0.00046119    -0.00017418
H        -4.43014990     1.40009434    -0.29903639     0.00007690    -0.00051259    -0.00019362
H        -2.05172309    -0.34321811     0.36626710     0.00002598    -0.00014017    -0.00007363
C        -1.83593577     1.74818147     0.00394169    -0.00041669    -0.00007597     0.00013954
H        -2.27330110     2.69732867    -0.24550923     0.00056724    -0.00088187    -0.00064074
N        -0.52715949     1.73049396     0.17176979     0.00029481    -0.00015171    -0.00012273
H         0.01575444     2.55386971     0.20868772     0.00080326     0.00093344     0.00032688
H        -0.04605185     1.03731340     0.71365616    -0.00013902    -0.00100841     0.00168051
    14
  Step:    12            Position(A)                                  Velocity(au)
C        -6.04601433    -0.82681166    -0.15181442    -0.00017112    -0.00006972    -0.00013807
C        -4.62669811    -0.71013987     0.15079972     0.00044256     0.00007729     0.00002370
H        -6.53105684     0.12316373    -0.42221005     0.00075431     0.00007872     0.00036199
H        -6.73379459    -1.69369607     0.05073798     0.00049970     0.00005031     0.00051774
H        -4.09903949    -1.59891069     0.44393081    -0.00029682     0.00018662    -0.00009217
C        -3.98624845     0.45902265    -0.00825714    -0.00090183    -0.00011185     0.00013112
C        -2.51357736     0.54422367     0.15620666     0.00047195     0.00051511    -0.00018274
H        -4.43003021     1.39445676    -0.30132758    -0.00007199    -0.00049740    -0.00023160
H        -2.04933992    -0.34753190     0.36618187     0.00039279    -0.00061167     0.00004947
C        -1.84060596     1.74717307     0.00549891    -0.00042882    -0.00010691     0.00014528
H        -2.26764797     2.68795621    -0.25285798     0.00044716    -0.00079687    -0.00070987
N        -0.52375220     1.72885007     0.17047186     0.00033034    -0.00014824    -0.00011169
H         0.02514111     2.56591195     0.21191103     0.00086877     0.00119513     0.00026233
H        -0.04765641     1.02507809     0.73205978    -0.00018689    -0.00116638     0.00164095
    14
  Step:    13            Position(A)                                  Velocity(au)
C        -6.04792455    -0.82752982    -0.15324653    -0.00017444    -0.00006166    -0.00012293
C        -4.62210265    -0.70943696     0.15100894     0.00039206     0.00004817     0.00001416
H        -6.52290002     0.12347050    -0.41844217     0.00072423    -0.00001168     0.00032172
H        -6.72701496    -1.69240229     0.05606154     0.00072571     0.00017626     0.00045570
H        -4.10180971    -1.59736267     0.44314966    -0.00019628     0.00008380    -0.00004541
C        -3.99603668     0.45789112    -0.00683479    -0.00087842    -0.00009203     0.00012926
C        -2.50856303     0.55011004     0.15416691     0.00043930     0.00055051    -0.00018843
H        -4.43172482     1.38921285    -0.30410304    -0.00025198    -0.00044328    -0.00028124
H        -2.04313009    -0.35659946     0.36734936     0.00071036    -0.00098127     0.00014873
C        -1.84531699     1.74584262     0.00711988    -0.00042439    -0.00013371     0.00015095
H        -2.26351867     2.67989558    -0.26103900     0.00029296    -0.00064928    -0.00079116
N        -0.51993260     1.72725098     0.16932630     0.00036980    -0.00014305    -0.00009508
H         0.03476048     2.58001538     0.21442674     0.00084604     0.00130825     0.00019771
H        -0.05014049     1.01179666     0.74955510    -0.00029366    -0.00120413     0.00151754
    14
  Step:    14            Position(A)                                  Velocity(au)
C        -6.04983051    -0.82816062    -0.15450368    -0.00016992    -0.00005348    -0.00010623
C        -4.61812097    -0.70908616     0.15110950     0.00033098     0.00001270     0.00000400
H        -6.51521291     0.12290812    -0.41517184     0.00066818    -0.00007814     0.00027088
H        -6.71791829    -1.68984007     0.06070720     0.00091810     0.00027584     0.00039561
H        -4.10333341    -1.59707736     0.44293736    -0.00007333    -0.00003847     0.00000979
C        -4.00546556     0.45700942    -0.00542928    -0.00083734    -0.00006604     0.00012785
C        -2.50396677     0.55626712     0.15208449     0.00039671     0.00056314    -0.00019014
H        -4.43554269     1.38475908    -0.30748033    -0.00045605    -0.00035795    -0.00033992
H        -2.03379949    -0.36899911     0.36943571     0.00095551    -0.00120691     0.00021409
C        -1.84989026     1.74424795     0.00880119    -0.00040418    -0.00015388     0.00015596
H        -2.26123895     2.67375200    -0.27016601     0.00011519    -0.00045767    -0.00087969
N        -0.51566214     1.72572061     0.16839181     0.00041185    -0.00013551    -0.00007361
H         0.04364989     2.59453235     0.21623640     0.00074133     0.00127780     0.00013378
H        -0.05408077     0.99873553     0.76525880    -0.00044458    -0.00113527     0.00132043
    14
  Step:    15            Position(A)                                  Velocity(au)
C        -6.05164183    -0.82869982    -0.15557050    -0.00015691    -0.00004460    -0.00008832
C        -4.61486186    -0.70915906     0.15109645     0.00026088    -0.00002931    -0.00000644
H        -6.50828228     0.12176115    -0.41251607     0.00058642    -0.00011774     0.00020957
H        -6.70692986    -1.68636776     0.06471626     0.00106702     0.00033679     0.00034111
H        -4.10341395    -1.59820434     0.44336380     0.00006244    -0.00016756     0.00006891
C        -4.01435521     0.45644634    -0.00403790    -0.00078128    -0.00003378     0.00012647
C        -2.49988414     0.56242989     0.15000713     0.00034614     0.00055145    -0.00018742
H        -4.44170187     1.38138195    -0.31153934    -0.00067496    -0.00025326    -0.00040346
H        -2.02222648    -0.38300290     0.37203307     0.00111926    -0.00127431     0.00024201
C        -1.85415926     1.74247621     0.01053182    -0.00036956    -0.00016473     0.00015955
H        -2.26099865     2.66988327    -0.28028386    -0.00007268    -0.00024709    -0.00096807
N        -0.51092264     1.72428635     0.16771591     0.00045438    -0.00012554    -0.00004848
H         0.05097845     2.60796976     0.21735336     0.00057001     0.00112348     0.00007184
H        -0.05986643     0.98696043     0.77844204    -0.00062181    -0.00098058     0.00106594
    14
  Step:    16            Position(A)                                  Velocity(au)
C        -6.05326327    -0.82913637    -0.15643581    -0.00013521    -0.00003439    -0.00006961
C        -4.61241382    -0.70972743     0.15096868     0.00018381    -0.00007764    -0.00001681
H        -6.50238392     0.12033225    -0.41058717     0.00048074    -0.00013027     0.00013857
H        -6.69457517    -1.68247209     0.06816960     0.00116449     0.00034852     0.00029563
H        -4.10196736    -1.60074307     0.44444494     0.00020060    -0.00028961     0.00012693
C        -4.02255754     0.45627033    -0.00266259    -0.00071327     0.00000452     0.00012471
C        -2.49639424     0.56833106     0.14798442     0.00028883     0.00051627    -0.00018030
H        -4.45030879     1.37921844    -0.31630678    -0.00089803    -0.00014375    -0.00046658
H        -2.00931353    -0.39687712     0.37473010     0.00120391    -0.00119255     0.00023439
C        -1.85797512     1.74064425     0.01229157    -0.00032228    -0.00016378     0.00016086
H        -2.26282896     2.66834653    -0.29134445    -0.00025621    -0.00004505    -0.00104736
N        -0.50572173     1.72297422     0.16733131     0.00049497    -0.00011337    -0.00002110
H         0.05611986     2.61911071     0.21780807     0.00035211     0.00087315     0.00001356
H        -0.06768400     0.97728336     0.78857823    -0.00080719    -0.00076415     0.00077344
    14
  Step:    17            Position(A)                                  Velocity(au)
C        -6.05459975    -0.82945222    -0.15709327    -0.00010508    -0.00002227    -0.00005053
C        -4.61084069    -0.71085757     0.15072871     0.00010215    -0.00013147    -0.00002682
H        -6.49776516     0.11891125    -0.40948460     0.00035450    -0.00011835     0.00005945
H        -6.68145450    -1.67874328     0.07118368     0.00120550     0.00030367     0.00026189
H        -4.09902550    -1.60454015     0.44614073     0.00033095    -0.00039153     0.00017897
C        -4.02995928     0.45654529    -0.00130965    -0.00063653     0.00004821     0.00012221
C        -2.49356549     0.57372422     0.14606274     0.00022568     0.00046019    -0.00016923
H        -4.46134803     1.37823706    -0.32174669    -0.00111415    -0.00004456    -0.00052348
H        -1.99588863    -0.40909213     0.37716079     0.00121835    -0.00098494     0.00019646
C        -1.86120973     1.73889317     0.01405088    -0.00026432    -0.00014931     0.00015911
H        -2.26660373     2.66889780    -0.30319697    -0.00042207     0.00012333    -0.00110855
N        -0.50009421     1.72180623     0.16725427     0.00053120    -0.00009941     0.00000699
H         0.05868162     2.62707162     0.21765000     0.00010917     0.00055803    -0.00003935
H        -0.07752521     0.97024321     0.79536258    -0.00098368    -0.00051113     0.00046347
    14
  Step:    18            Position(A)                                  Velocity(au)
C        -6.05556214    -0.82962362    -0.15754132    -0.00006736    -0.00000786    -0.00003150
C        -4.61017917    -0.71260358     0.15038192     0.00001838    -0.00018938    -0.00003626
H        -6.49462854     0.11774314    -0.40928667     0.00021246    -0.00008744    -0.00002553
H        -6.66820264    -1.67582884     0.07389900     0.00118924     0.00019994     0.00024130
H        -4.09472720    -1.60930855     0.44836029     0.00044457    -0.00046277     0.00022087
C        -4.03648284     0.45732509     0.00001099    -0.00055429     0.00009611     0.00011869
C        -2.49145715     0.57839857     0.14428223     0.00015761     0.00038686    -0.00015484
H        -4.47468294     1.37824370    -0.32775895    -0.00131276     0.00003078    -0.00056861
H        -1.98265987    -0.41842451     0.37902797     0.00117394    -0.00068053     0.00013474
C        -1.86375762     1.73737775     0.01577235    -0.00019779    -0.00012072     0.00015371
H        -2.27206260     2.67104469    -0.31559600    -0.00055969     0.00023934    -0.00114404
N        -0.49410076     1.72079948     0.16748431     0.00056079    -0.00008411     0.00003427
H         0.05850807     2.63131863     0.21694718    -0.00013753     0.00021016    -0.00008528
H        -0.08920384     0.96610147     0.79871756    -0.00113584    -0.00024698     0.00015691
    14
  Step:    19            Position(A)                                  Velocity(au)
C        -6.05607340    -0.82962408    -0.15778247    -0.00002344     0.00000887    -0.00001282
C        -4.61043849    -0.71500069     0.14993541    -0.00006503    -0.00024941    -0.00004503
H        -6.49311721     0.11699829    -0.41004304     0.00006053    -0.00004536    -0.00011348
H        -6.65543751    -1.67436929     0.07646264     0.00112011     0.00004181     0.00023333
H        -4.08929973    -1.61466417     0.45097280     0.00053449    -0.00049657     0.00024966
C        -4.04208549     0.45864777     0.00128697    -0.00046963     0.00014651     0.00011400
C        -2.49011757     0.58218760     0.14267523     0.00008576     0.00030056    -0.00013788
H        -4.49006722     1.37891040    -0.33418617    -0.00148474     0.00007207    -0.00059736
H        -1.97020652    -0.42397996     0.38010853     0.00108207    -0.00030859     0.00005583
C        -1.86553671     1.73625229     0.01741355    -0.00012481    -0.00007872     0.00014437
H        -2.27884806     2.67413386    -0.32822493    -0.00066211     0.00029286    -0.00114882
N        -0.48782593     1.71996624     0.16800404     0.00058163    -0.00006790     0.00005919
H         0.05567292     2.63166921     0.21578441    -0.00036740    -0.00013827    -0.00012278
H        -0.10237378     0.96483994     0.79879528    -0.00124990     0.00000261    -0.00012521
    14
  Step:    20            Position(A)                                  Velocity(au)
C        -6.05607498    -0.82942962    -0.15782179     0.00002475     0.00002738     0.00000538
C        -4.61160191    -0.71805982     0.14939676    -0.00014587    -0.00030917    -0.00005314
H        -6.49330439     0.11675075    -0.41176921    -0.00009467    -0.00000137    -0.00020116
H        -6.64369810    -1.67491427     0.07900357     0.00100801    -0.00015847     0.00023510
H        -4.08303431    -1.62017193     0.45382204     0.00059603    -0.00049039     0.00026369
C        -4.04675682     0.46053038     0.00250492    -0.00038531     0.00019736     0.00010810
C        -2.48958105     0.58497387     0.14126577     0.00001154     0.00020590    -0.00011912
H        -4.50716451     1.37982046    -0.34082734    -0.00162297     0.00007359    -0.00060655
H        -1.95898759    -0.42517554     0.38024928     0.00095326     0.00010359    -0.00003416
C        -1.86648808     1.73565558     0.01893067    -0.00004749    -0.00002534     0.00013112
H        -2.28654763     2.67745152    -0.34072866    -0.00072606     0.00028245    -0.00112093
N        -0.48137639     1.71931406     0.16877915     0.00059182    -0.00005124     0.00008020