     6
  Step:     0            Position(A)                                  Velocity(au)
C        -0.03234455     0.02685109     0.01365695     0.00010778     0.00002829    -0.00015958
N        -0.03679366    -0.06523728     1.30826764     0.00008849     0.00002995     0.00018816
H         0.88955841    -0.06337714    -0.54567604     0.00006987    -0.00018685    -0.00009469
H         0.80025966    -0.07071021     1.82583066    -0.00030606    -0.00025122    -0.00062838
H        -0.98807978    -0.01284907     1.79488044    -0.00122544    -0.00024453     0.00050379
H        -1.01795930     0.06375965    -0.52587859    -0.00105238    -0.00007065    -0.00049399
     6
  Step:     1            Position(A)                                  Velocity(au)
C        -0.03177981     0.02702109     0.01269326     0.00009813     0.00003383    -0.00019227
N        -0.03637874    -0.06508411     1.30937358     0.00006186     0.00002620     0.00021542
H         0.89018728    -0.06445320    -0.54650630     0.00015914    -0.00020671    -0.00020885
H         0.79912162    -0.07204652     1.82289315    -0.00010150    -0.00023785    -0.00043977
H        -0.99437072    -0.01420299     1.79758825    -0.00106422    -0.00025118     0.00048094
H        -1.02365456     0.06337192    -0.52870430    -0.00102236    -0.00007146    -0.00053484
     6
  Step:     2            Position(A)                                  Velocity(au)
C        -0.03127130     0.02722112     0.01155402     0.00008742     0.00003927    -0.00022380
N        -0.03611711    -0.06495071     1.31062373     0.00003288     0.00002272     0.00024103
H         0.89129897    -0.06563794    -0.54796027     0.00024541    -0.00022660    -0.00032214
H         0.79914953    -0.07331162     1.82102083     0.00011639    -0.00022527    -0.00024172
H        -0.99971919    -0.01559630     1.80014052    -0.00088330    -0.00025893     0.00044824
H        -1.02914096     0.06297808    -0.53172814    -0.00097712    -0.00007289    -0.00056706
     6
  Step:     3            Position(A)                                  Velocity(au)
C        -0.03082391     0.02745049     0.01024616     0.00007597     0.00004457    -0.00025401
N        -0.03601926    -0.06483564     1.31200905     0.00000239     0.00001950     0.00026504
H         0.89287067    -0.06693094    -0.55002867     0.00032651    -0.00024631    -0.00043307
H         0.80039424    -0.07450966     1.82025012     0.00033944    -0.00021338    -0.00003976
H        -1.00402887    -0.01703413     1.80248939    -0.00068660    -0.00026751     0.00040781
H        -1.03433851     0.06257494    -0.53490466    -0.00091788    -0.00007489    -0.00059136
     6
  Step:     4            Position(A)                                  Velocity(au)
C        -0.03044086     0.02770832     0.00877739     0.00006406     0.00004969    -0.00028274
N        -0.03609094    -0.06473752     1.31352092    -0.00002871     0.00001652     0.00028753
H         0.89486804    -0.06833035    -0.55269425     0.00040034    -0.00026560    -0.00054018
H         0.80285996    -0.07564408     1.82058619     0.00055903    -0.00020202     0.00016038
H        -1.00722447    -0.01852044     1.80459840    -0.00047792    -0.00027668     0.00036170
H        -1.03917440     0.06215948    -0.53819234    -0.00084587    -0.00007738    -0.00060838
     6
  Step:     5            Position(A)                                  Velocity(au)
C        -0.03012379     0.02799355     0.00715621     0.00005198     0.00005460    -0.00030984
N        -0.03633303    -0.06465509     1.31515126    -0.00005956     0.00001375     0.00030856
H         0.89724575    -0.06983350    -0.55593193     0.00046498    -0.00028428    -0.00064202
H         0.80650351    -0.07671741     1.82200281     0.00076657    -0.00019099     0.00035306
H        -1.00925175    -0.02005777     1.80644221    -0.00026106    -0.00028618     0.00031188
H        -1.04358251     0.06172932    -0.54155332    -0.00076231    -0.00008025    -0.00061877
     6
  Step:     6            Position(A)                                  Velocity(au)
C        -0.02987286     0.02830490     0.00539193     0.00003999     0.00005925    -0.00033512
N        -0.03674169    -0.06458722     1.31689237    -0.00008930     0.00001118     0.00032816
H         0.89994864    -0.07143647    -0.55970923     0.00051871    -0.00030210    -0.00073725
H         0.81123578    -0.07773096     1.82444385     0.00095395    -0.00018006     0.00053300
H        -1.01007691    -0.02164738     1.80800612    -0.00003983    -0.00029577     0.00026028
H        -1.04750365     0.06128258    -0.54495330    -0.00066844    -0.00008343    -0.00062312
     6
  Step:     7            Position(A)                                  Velocity(au)
C        -0.02968687     0.02864089     0.00349487     0.00002832     0.00006360    -0.00035836
N        -0.03730865    -0.06453292     1.31873662    -0.00011713     0.00000878     0.00034630
H         0.90291295    -0.07313408    -0.56398675     0.00056005    -0.00031881    -0.00082458
H         0.81692586    -0.07868468     1.82782608     0.00111398    -0.00016898     0.00069552
H        -1.00968690    -0.02328926     1.80928590     0.00018181    -0.00030520     0.00020884
H        -1.05088560     0.06081786    -0.54836124    -0.00056559    -0.00008679    -0.00062199
     6
  Step:     8            Position(A)                                  Velocity(au)
C        -0.02956341     0.02899976     0.00147648     0.00001719     0.00006759    -0.00037933
N        -0.03802151    -0.06449129     1.32067608    -0.00014235     0.00000653     0.00036286
H         0.90606780    -0.07491980    -0.56871866     0.00058783    -0.00033416    -0.00090285
H         0.82340720    -0.07957721     1.83204315     0.00124080    -0.00015751     0.00083677
H        -1.00809041    -0.02498204     1.81028789     0.00039967    -0.00031421     0.00015953
H        -1.05368328     0.06033433    -0.55174923    -0.00045511    -0.00009024    -0.00061592
     6
  Step:     9            Position(A)                                  Velocity(au)
C        -0.02949897     0.02937956    -0.00065055     0.00000680     0.00007119    -0.00039779
N        -0.03886423    -0.06446157     1.32270210    -0.00016430     0.00000441     0.00037767
H         0.90933695    -0.07678585    -0.57385335     0.00060125    -0.00034791    -0.00097105
H         0.83048562    -0.08040594     1.83697056     0.00133012    -0.00014545     0.00095387
H        -1.00531921    -0.02672306     1.81102930     0.00060928    -0.00032256     0.00011441
H        -1.05585915     0.05983172    -0.55509223    -0.00033848    -0.00009367    -0.00060545
     6
  Step:    10            Position(A)                                  Velocity(au)
C        -0.02948910     0.02977804    -0.00287227    -0.00000271     0.00007435    -0.00041350
N        -0.03981766    -0.06444305     1.32480485    -0.00018247     0.00000242     0.00039047
H         0.91264078    -0.07872325    -0.57933435     0.00059988    -0.00035986    -0.00102835
H         0.83794829    -0.08116728     1.84247104     0.00137936    -0.00013266     0.00104495
H        -1.00142963    -0.02850835     1.81153859     0.00080594    -0.00033001     0.00007557
H        -1.05738361     0.05931036    -0.55836807    -0.00021727    -0.00009696    -0.00059109
     6
  Step:    11            Position(A)                                  Velocity(au)
C        -0.02952860     0.03019276    -0.00517337    -0.00001120     0.00007703    -0.00042624
N        -0.04086002    -0.06443512     1.32697302    -0.00019642     0.00000054     0.00040098
H         0.91589836    -0.08072196    -0.58510128     0.00058373    -0.00036984    -0.00107418
H         0.84557283    -0.08185690     1.84840000     0.00138769    -0.00011903     0.00110918
H        -0.99650406    -0.03033268     1.81185591     0.00098473    -0.00033636     0.00004520
H        -1.05823559     0.05877115    -0.56155750    -0.00009315    -0.00010002    -0.00057344
     6
  Step:    12            Position(A)                                  Velocity(au)
C        -0.02961163     0.03062109    -0.00753740    -0.00001856     0.00007919    -0.00043581
N        -0.04196752    -0.06443718     1.32919357    -0.00020586    -0.00000124     0.00040889
H         0.91902964    -0.08277116    -0.59109115     0.00055317    -0.00037774    -0.00110818
H         0.85313650    -0.08247006     1.85461099     0.00135591    -0.00010454     0.00114675
H        -0.99065181    -0.03218975     1.81203334     0.00114075    -0.00034142     0.00002545
H        -1.05840318     0.05821559    -0.56464434     0.00003209    -0.00010275    -0.00055310
     6
  Step:    13            Position(A)                                  Velocity(au)
C        -0.02973188     0.03106021    -0.00994691    -0.00002473     0.00008083    -0.00044208
N        -0.04311493    -0.06444866     1.33145172    -0.00021059    -0.00000290     0.00041390
H         0.92195742    -0.08485948    -0.59723954     0.00050898    -0.00038349    -0.00113028
H         0.86042463    -0.08300196     1.86096079     0.00128626    -0.00008921     0.00115869
H        -0.98400902    -0.03407236     1.81213471     0.00126927    -0.00034507     0.00001839
H        -1.05788413     0.05764570    -0.56761575     0.00015663    -0.00010505    -0.00053072
     6
  Step:    14            Position(A)                                  Velocity(au)
C        -0.02988270     0.03150725    -0.01238379    -0.00002966     0.00008194    -0.00044498
N        -0.04427619    -0.06446901     1.33373101    -0.00021053    -0.00000446     0.00041575
H         0.92460940    -0.08697530    -0.60348207     0.00045227    -0.00038712    -0.00114069
H         0.86723738    -0.08344801     1.86731344     0.00118211    -0.00007310     0.00114677
H        -0.97673712    -0.03597270     1.81223494     0.00136601    -0.00034725     0.00002589
H        -1.05668613     0.05706400    -0.57046251     0.00027862    -0.00010684    -0.00050703
     6
  Step:    15            Position(A)                                  Velocity(au)
C        -0.03005729     0.03195931    -0.01482956    -0.00003334     0.00008252    -0.00044451
N        -0.04542501    -0.06449765     1.33601359    -0.00020571    -0.00000592     0.00041424
H         0.92692001    -0.08910717    -0.60975592     0.00038446    -0.00038869    -0.00113989
H         0.87339557    -0.08380405     1.87354394     0.00104776    -0.00005632     0.00111333
H        -0.96902027    -0.03788266     1.81241885     0.00142736    -0.00034796     0.00004956
H        -1.05482689     0.05647343    -0.57317923     0.00039628    -0.00010805    -0.00048276
     6
  Step:    16            Position(A)                                  Velocity(au)
C        -0.03024884     0.03241351    -0.01726575    -0.00003578     0.00008258    -0.00044072
N        -0.04653544    -0.06453398     1.33828056    -0.00019627    -0.00000725     0.00040926
H         0.92883188    -0.09124415    -0.61600120     0.00030720    -0.00038835    -0.00112860
H         0.87874465    -0.08406660     1.87954085     0.00088799    -0.00003901     0.00106107
H        -0.96106079    -0.03979425     1.81277920     0.00145073    -0.00034726     0.00009051
H        -1.05233383     0.05587731    -0.57576452     0.00050792    -0.00010863    -0.00045866
     6
  Step:    17            Position(A)                                  Velocity(au)
C        -0.03045064     0.03286713    -0.01967426    -0.00003703     0.00008217    -0.00043373
N        -0.04758255    -0.06457738     1.34051247    -0.00018247    -0.00000847     0.00040077
H         0.93029697    -0.09337612    -0.62216222     0.00022225    -0.00038629    -0.00110773
H         0.88315699    -0.08423289     1.88520793     0.00070790    -0.00002130     0.00099295
H        -0.95307282    -0.04169994     1.81341384     0.00143482    -0.00034529     0.00014934
H        -1.04924353     0.05527925    -0.57822116     0.00061197    -0.00010855    -0.00043551
     6
  Step:    18            Position(A)                                  Velocity(au)
C        -0.03065624     0.03331759    -0.02203767    -0.00003887     0.00008322    -0.00047243
N        -0.04854300    -0.06462718     1.34268983    -0.00016380    -0.00001173     0.00042628
H         0.93127712    -0.09549412    -0.62818840     0.00010846    -0.00042347    -0.00103682
H         0.88653301    -0.08430092     1.89046522     0.00049445     0.00004689     0.00090483
H        -0.94527487    -0.04359309     1.81442223     0.00139163    -0.00039837     0.00021307
H        -1.04560091     0.05468303    -0.58055599     0.00074483    -0.00005361    -0.00037539
     6
  Step:    19            Position(A)                                  Velocity(au)
C        -0.03087864     0.03378345    -0.02487629    -0.00004136     0.00008576    -0.00055928
N        -0.04938616    -0.06470653     1.34520631    -0.00014069    -0.00001703     0.00048807
H         0.93149124    -0.09803909    -0.63357880    -0.00003145    -0.00048773    -0.00091546
H         0.88860145    -0.08371662     1.89517115     0.00025070     0.00015212     0.00079689
H        -0.93774929    -0.04608647     1.81575996     0.00132415    -0.00049398     0.00027837
H        -1.04104204     0.05468892    -0.58235464     0.00090450     0.00004440    -0.00027793
     6
  Step:    20            Position(A)                                  Velocity(au)
C        -0.03111210     0.03426281    -0.02820196    -0.00004274     0.00008778    -0.00064465
N        -0.05009365    -0.06481488     1.34806930    -0.00011447    -0.00002208     0.00054816
H         0.93093048    -0.10086982    -0.63827854    -0.00017097    -0.00053211    -0.00078671
H         0.88929620    -0.08262433     1.89924845    -0.00000003     0.00023708     0.00067847
H        -0.93068023    -0.04903768     1.81749038     0.00122185    -0.00056952     0.00035577
H        -1.03563160     0.05517241    -0.58361935     0.00104907     0.00012538    -0.00018327
     6
  Step:    21            Position(A)                                  Velocity(au)
C        -0.03135027     0.03475218    -0.03199032    -0.00004291     0.00008908    -0.00072375
N        -0.05064934    -0.06495018     1.35125546    -0.00008568    -0.00002667     0.00060256
H         0.92960453    -0.10391119    -0.64226055    -0.00030668    -0.00056450    -0.00065469
H         0.88860113    -0.08110031     1.90265833    -0.00024938     0.00030971     0.00055534
H        -0.92426564    -0.05237133     1.81968601     0.00108465    -0.00063286     0.00044527
H        -1.02946507     0.05607251    -0.58437710     0.00117342     0.00019679    -0.00009511
     6
  Step:    22            Position(A)                                  Velocity(au)
C        -0.03158641     0.03524737    -0.03620117    -0.00004183     0.00008954    -0.00079405
N        -0.05104062    -0.06510964     1.35472903    -0.00005510    -0.00003067     0.00064939
H         0.92754094    -0.10710889    -0.64551450    -0.00043517    -0.00058771    -0.00052243
H         0.88653988    -0.07920127     1.90538629    -0.00048999     0.00037255     0.00043182
H        -0.91869223    -0.05603230     1.82241168     0.00091617    -0.00068671     0.00054457
H        -1.02266243     0.05734745    -0.58467051     0.00127320     0.00026117    -0.00001616
     6
  Step:    23            Position(A)                                  Velocity(au)
C        -0.03181348     0.03574371    -0.04078300    -0.00003945     0.00008911    -0.00085374
N        -0.05125949    -0.06528985     1.35844621    -0.00002369    -0.00003400     0.00068744
H         0.92478582    -0.11041901    -0.64804550    -0.00055305    -0.00060336    -0.00039282
H         0.88317535    -0.07697500     1.90743997    -0.00071465     0.00042682     0.00031198
H        -0.91412074    -0.05997540     1.82571608     0.00072259    -0.00073250     0.00065001
H        -1.01536681     0.05896448    -0.58455605     0.00134443     0.00031974     0.00005112
     6
  Step:    24            Position(A)                                  Velocity(au)
C        -0.03202421     0.03623627    -0.04567547    -0.00003576     0.00008777    -0.00090153
N        -0.05130352    -0.06548697     1.36235777     0.00000746    -0.00003659     0.00071601
H         0.92140353    -0.11380463    -0.64987377    -0.00065710    -0.00061268    -0.00026873
H         0.87860919    -0.07446474     1.90884848    -0.00091639     0.00047319     0.00019979
H        -0.91067337    -0.06416109     1.82962512     0.00051213    -0.00077107     0.00075702
H        -1.00774280     0.06089570    -0.58410321     0.00138387     0.00037320     0.00010457
     6
  Step:    25            Position(A)                                  Velocity(au)
C        -0.03221129     0.03672006    -0.05081196    -0.00003080     0.00008554    -0.00093675
N        -0.05117654    -0.06569685     1.36641139     0.00003717    -0.00003840     0.00073494
H         0.91747599    -0.11723469    -0.65103495    -0.00074451    -0.00061683    -0.00015296
H         0.87298104    -0.07171105     1.90966253    -0.00108890     0.00051226     0.00009910
H        -0.90842364    -0.06855313     1.83413751     0.00029440    -0.00080315     0.00086061
H        -0.99997216     0.06311611    -0.58339280     0.00138943     0.00042206     0.00014248
     6
  Step:    26            Position(A)                                  Velocity(au)
C        -0.03236768     0.03719031    -0.05612275    -0.00002465     0.00008254    -0.00095950
N        -0.05088896    -0.06591524     1.37055439     0.00006432    -0.00003947     0.00074468
H         0.91310028    -0.12068396    -0.65157972    -0.00081320    -0.00061708    -0.00004804
H         0.86646507    -0.06875169     1.90995368    -0.00122704     0.00054472     0.00001337
H        -0.90739001    -0.07311842     1.83922324     0.00007952    -0.00082949     0.00095602
H        -0.99224695     0.06560281    -0.58251419     0.00136056     0.00046683     0.00016375
     6
  Step:    27            Position(A)                                  Velocity(au)
C        -0.03248686     0.03764284    -0.06153917    -0.00001745     0.00007891    -0.00097073
N        -0.05045740    -0.06613811     1.37473686     0.00008794    -0.00003987     0.00074626
H         0.90838441    -0.12413366    -0.65157199    -0.00086210    -0.00061490     0.00004404
H         0.85926278    -0.06562106     1.90981201    -0.00132745     0.00057158    -0.00005452
H        -0.90753467    -0.07782681     1.84482582    -0.00012306    -0.00085106     0.00103941
H        -0.98476118     0.06833527    -0.58156204     0.00129845     0.00050822     0.00016804
     6
  Step:    28            Position(A)                                  Velocity(au)
C        -0.03256319     0.03807433    -0.06699808    -0.00000939     0.00007484    -0.00097215
N        -0.04990370    -0.06636194     1.37891488     0.00010732    -0.00003973     0.00074124
H         0.90344202    -0.12757282    -0.65108636    -0.00089113    -0.00061196     0.00012191
H         0.85159336    -0.06234815     1.90934285    -0.00138867     0.00059420    -0.00010247
H        -0.90876871    -0.08265300     1.85086797    -0.00030554    -0.00086916     0.00110827
H        -0.97770017     0.07129656    -0.58063165     0.00120593     0.00054724     0.00015576
     6
  Step:    29            Position(A)                                  Velocity(au)
C        -0.03259221     0.03848255    -0.07244600    -0.00000067     0.00007056    -0.00096595
N        -0.04925337    -0.06658389     1.38305314     0.00012202    -0.00003920     0.00073148
H         0.89838648    -0.13099948    -0.65020426    -0.00090113    -0.00061004     0.00018498
H         0.84368282    -0.05895449     1.90866238    -0.00141098     0.00061425    -0.00012918
H        -0.91096267    -0.08757826     1.85725991    -0.00046246    -0.00088534     0.00116159
H        -0.97123146     0.07447497    -0.57981453     0.00108690     0.00058515     0.00012799
     6
  Step:    30            Position(A)                                  Velocity(au)
C        -0.03257075     0.03886639    -0.07784188     0.00000848     0.00006622    -0.00095445
N        -0.04853386    -0.06680200     1.38712648     0.00013191    -0.00003843     0.00071877
H         0.89332598    -0.13442114    -0.64900979    -0.00089329    -0.00061079     0.00023326
H         0.83575367    -0.05545254     1.90789272    -0.00139583     0.00063349    -0.00013409
H        -0.91396031    -0.09259177     1.86390800    -0.00059075    -0.00090108     0.00119950
H        -0.96549866     0.07786550    -0.57919487     0.00094565     0.00062335     0.00008622
     6
  Step:    31            Position(A)                                  Velocity(au)
C        -0.03249700     0.03922574    -0.08315735     0.00001785     0.00006199    -0.00093957
N        -0.04777297    -0.06701518     1.39111959     0.00013701    -0.00003757     0.00070458
H         0.88836148    -0.13785411    -0.64758644    -0.00086877    -0.00061559     0.00026716
H         0.82801803    -0.05184517     1.90715759    -0.00134508     0.00065351    -0.00011719
H        -0.91759236    -0.09769064     1.87072138    -0.00068924    -0.00091760     0.00122273
H        -0.96061882     0.08147053    -0.57884694     0.00078634     0.00066309     0.00003220
     6
  Step:    32            Position(A)                                  Velocity(au)
C        -0.03237061     0.03956132    -0.08837492     0.00002719     0.00005795    -0.00092266
N        -0.04699787    -0.06722314     1.39502511     0.00013745    -0.00003672     0.00068984
H         0.88358673    -0.14132223    -0.64601476    -0.00082833    -0.00062543     0.00028724
H         0.82067478    -0.04812643     1.90657897    -0.00126053     0.00067556    -0.00007891
H        -0.92168701    -0.10287849     1.87761530    -0.00075801    -0.00093558     0.00123204
H        -0.95668342     0.08529905    -0.57883393     0.00061271     0.00070527    -0.00003220
     6
  Step:    33            Position(A)                                  Velocity(au)
C        -0.03219264     0.03987435    -0.09348451     0.00003623     0.00005414    -0.00090438
N        -0.04623447    -0.06742620     1.39884083     0.00013342    -0.00003597     0.00067497
H         0.87909010    -0.14485448    -0.64437146    -0.00077237    -0.00064080     0.00029402
H         0.81390912    -0.04428378     1.90627438    -0.00114399     0.00070045    -0.00002010
H        -0.92607657    -0.10816242     1.88451130    -0.00079779    -0.00095514     0.00122796
H        -0.95376085     0.08936443    -0.57920736     0.00042833     0.00075035    -0.00010493
     6
  Step:    34            Position(A)                                  Velocity(au)
C        -0.03196575     0.04016620    -0.09847980     0.00004467     0.00005055    -0.00088490
N        -0.04550714    -0.06762510     1.40256674     0.00012515    -0.00003538     0.00066000
H         0.87495678    -0.14848208    -0.64272959    -0.00070107    -0.00066178     0.00028802
H         0.80789271    -0.04030013     1.90635437    -0.00099761     0.00072859     0.00005779
H        -0.93060093    -0.11355053     1.89133565    -0.00080972    -0.00097595     0.00121082
H        -0.95189759     0.09368291    -0.58000640     0.00023697     0.00079839    -0.00018373
     6
  Step:    35            Position(A)                                  Velocity(au)
C        -0.03169438     0.04043827    -0.10335553     0.00005215     0.00004719    -0.00086415
N        -0.04483840    -0.06782083     1.40620308     0.00011300    -0.00003496     0.00064477
H         0.87126974    -0.15223652    -0.64115859    -0.00061477    -0.00068815     0.00026984
H         0.80278091    -0.03615645     1.90691904    -0.00082460     0.00076003     0.00015254
H        -0.93510896    -0.11904907     1.89801783    -0.00079527    -0.00099738     0.00118088
H        -0.95111745     0.09827036    -0.58125682     0.00004291     0.00084899    -0.00026603
     6
  Step:    36            Position(A)                                  Velocity(au)
C        -0.03138480     0.04069189    -0.10810608     0.00005835     0.00004404    -0.00084197
N        -0.04424838    -0.06801452     1.40974924     0.00009744    -0.00003473     0.00062909
H         0.86810849    -0.15614775    -0.63972368    -0.00051434    -0.00071948     0.00024030
H         0.79870700    -0.03183371     1.90805361    -0.00062962     0.00079458     0.00026101
H        -0.93945988    -0.12466095     1.90449014    -0.00075631    -0.00101871     0.00113863
H        -0.95141958     0.10314025    -0.58296984    -0.00014907     0.00090149    -0.00034908
     6
  Step:    37            Position(A)                                  Velocity(au)
C        -0.03104504     0.04092834    -0.11272503     0.00006296     0.00004109    -0.00081829
N        -0.04375413    -0.06820732     1.41320363     0.00007908    -0.00003469     0.00061283
H         0.86554619    -0.16024290    -0.63848454    -0.00040131    -0.00075517     0.00020054
H         0.79577454    -0.02731431     1.90982358    -0.00041881     0.00083187     0.00037920
H        -0.94352522    -0.13038530     1.91068855    -0.00069524    -0.00103927     0.00108489
H        -0.95277630     0.10830218    -0.58514140    -0.00033386     0.00095509    -0.00043006
     6
  Step:    38            Position(A)                                  Velocity(au)
C        -0.03068468     0.04114881    -0.11720556     0.00006573     0.00003833    -0.00079311
N        -0.04336895    -0.06840032     1.41656403     0.00005869    -0.00003483     0.00059596
H         0.86364587    -0.16454533    -0.63749359    -0.00027795    -0.00079446     0.00015207
H         0.79404977    -0.02258318     1.91227041    -0.00019963     0.00087135     0.00050242
H        -0.94719103    -0.13621774     1.91655423    -0.00061487    -0.00105848     0.00102078
H        -0.95513211     0.11376102    -0.58775217    -0.00050633     0.00100888    -0.00050623
     6
  Step:    39            Position(A)                                  Velocity(au)
C        -0.03031441     0.04135441    -0.12154093     0.00006651     0.00003576    -0.00076655
N        -0.04310179    -0.06859448     1.41982808     0.00003707    -0.00003511     0.00057853
H         0.86245659    -0.16907378    -0.63679419    -0.00014719    -0.00083645     0.00009669
H         0.79355552    -0.01762872     1.91540827     0.00001963     0.00091233     0.00062552
H        -0.95035993    -0.14215097     1.92203515    -0.00051841    -0.00107593     0.00094775
H        -0.95840444     0.11951649    -0.59076848    -0.00066169     0.00106191    -0.00057512
     6
  Step:    40            Position(A)                                  Velocity(au)
C        -0.02994554     0.04154619    -0.12572496     0.00006523     0.00003335    -0.00073880
N        -0.04295693    -0.06879053     1.42299371     0.00001511    -0.00003548     0.00056065
H         0.86201001    -0.17384162    -0.63641897    -0.00001251    -0.00088014     0.00003650
H         0.79426791    -0.01244365     1.91922239     0.00023040     0.00095397     0.00074326
H        -0.95295259    -0.14817555     1.92708741    -0.00040928    -0.00109133     0.00086744
H        -0.96248611     0.12556304    -0.59414398    -0.00079580     0.00111326    -0.00063462
     6
  Step:    41            Position(A)                                  Velocity(au)
C        -0.02958942     0.04172506    -0.12975239     0.00006195     0.00003108    -0.00071009
N        -0.04293390    -0.06898888     1.42605945    -0.00000636    -0.00003590     0.00054248
H         0.86231752    -0.17885616    -0.63638852     0.00012221    -0.00092438    -0.00002624
H         0.79611632    -0.00702579     1.92366933     0.00042447     0.00099532     0.00085066
H        -0.95490886    -0.15428059     1.93167637    -0.00029107    -0.00110450     0.00078167
H        -0.96724945     0.13188991    -0.59782200    -0.00090539     0.00116202    -0.00068312
     6
  Step:    42            Position(A)                                  Velocity(au)
C        -0.02925685     0.04189177    -0.13361917     0.00005682     0.00002894    -0.00068069
N        -0.04302765    -0.06918961     1.42902455    -0.00002654    -0.00003628     0.00052418
H         0.86336858    -0.18411814    -0.63671065     0.00025291    -0.00096799    -0.00008918
H         0.79898680    -0.00137849     1.92867928     0.00059454     0.00103539     0.00094330
H        -0.95618842    -0.16045445     1.93577736    -0.00016741    -0.00111541     0.00069234
H        -0.97255146     0.13848145    -0.60173835    -0.00098821     0.00120739    -0.00071954
     6
  Step:    43            Position(A)                                  Velocity(au)
C        -0.02895755     0.04204687    -0.13732255     0.00005007     0.00002686    -0.00065087
N        -0.04322909    -0.06939237     1.43188901    -0.00004476    -0.00003656     0.00050589
H         0.86513024    -0.18962145    -0.63738034     0.00037562    -0.00100975    -0.00015006
H         0.80272840     0.00448915     1.93416005     0.00073472     0.00107319     0.00101766
H        -0.95677073    -0.16668545     1.93937609    -0.00004191    -0.00112416     0.00060139
H        -0.97823969     0.14531769    -0.60582429    -0.00104313     0.00124868    -0.00074336
     6
  Step:    44            Position(A)                                  Velocity(au)
C        -0.02869974     0.04219068    -0.14086111     0.00004201     0.00002483    -0.00062090
N        -0.04352563    -0.06959641     1.43465344    -0.00006045    -0.00003667     0.00048775
H         0.86754800    -0.19535329    -0.63838033     0.00048665    -0.00104856    -0.00020679
H         0.80716180     0.01056248     1.94000236     0.00084084     0.00110782     0.00107126
H        -0.95665470    -0.17296251     1.94246881     0.00008202    -0.00113095     0.00051075
H        -0.98415803     0.15237507    -0.61000947    -0.00107005     0.00128538    -0.00075456
     6