     6
  Step:   300            Position(A)                                  Velocity(au)
C        -0.00818022     0.01554826     0.01524861    -0.00005610    -0.00011702     0.00006020
N        -0.08686308    -0.05337898     1.30474564     0.00020332     0.00001304    -0.00008524
H         0.25152036    -0.88547826    -0.53076991     0.00011874     0.00008405    -0.00040337
H         0.15844027     0.79133125     1.82813878    -0.00105080     0.00046902    -0.00018448
H        -0.06433720    -0.97594857     1.75470884    -0.00114781     0.00019222     0.00007825
H        -0.25399607     0.95680665    -0.47296079    -0.00007711     0.00046782     0.00097680
