     6
  Step:     0            Position(A)                                  Velocity(au)
C        -0.03977846     0.00634108     0.03657872    -0.00007314     0.00010977     0.00026716
N        -0.03856327    -0.03078272     1.28519501    -0.00016239     0.00003445    -0.00021594
H         0.87754346    -0.02422855    -0.48502532     0.00056849    -0.00030604    -0.00067234
H         0.83182551    -0.23984127     1.81073237     0.00078000    -0.00081854     0.00139921
H        -0.94890280    -0.14007152     1.84392301     0.00175279     0.00011933    -0.00124871
H        -0.96351282     0.08656925    -0.57298484     0.00002689    -0.00078148     0.00033915
     6
  Step:     1            Position(A)                                  Velocity(au)
C        -0.04021283     0.00697890     0.03760760    -0.00008444     0.00012344     0.00010772
N        -0.03947947    -0.03058658     1.28441836    -0.00016986     0.00003703    -0.00006745
H         0.88130236    -0.02607878    -0.48902366     0.00079366    -0.00036955    -0.00078069
H         0.83611917    -0.24445680     1.81836289     0.00077293    -0.00086464     0.00137814
H        -0.93904502    -0.13953313     1.83686167     0.00183022     0.00007575    -0.00132081
H        -0.96351542     0.08217085    -0.57102324    -0.00003009    -0.00082697     0.00037706
     6
  Step:     2            Position(A)                                  Velocity(au)
C        -0.04070248     0.00769181     0.03775747    -0.00009305     0.00013699    -0.00005326
N        -0.04042200    -0.03037757     1.28445695    -0.00017165     0.00003917     0.00008092
H         0.88622808    -0.02827232    -0.49356805     0.00099098    -0.00043072    -0.00086925
H         0.84028330    -0.24930256     1.82581265     0.00073312    -0.00090168     0.00133230
H        -0.92887566    -0.13924258     1.82947003     0.00186102     0.00002829    -0.00136515
H        -0.96384205     0.07752013    -0.56885883    -0.00009113    -0.00087249     0.00041221
     6
  Step:     3            Position(A)                                  Velocity(au)
C        -0.04123178     0.00847906     0.03702438    -0.00009863     0.00015029    -0.00021352
N        -0.04135917    -0.03015767     1.28530456    -0.00016753     0.00004100     0.00022662
H         0.89215467    -0.03079561    -0.49854294     0.00115529    -0.00048893    -0.00093535
H         0.84414768    -0.25433119     1.83295311     0.00066404    -0.00093008     0.00126420
H        -0.91866483    -0.13922329     1.82191172     0.00183945    -0.00002369    -0.00137721
H        -0.96451344     0.07261612    -0.56650913    -0.00015544    -0.00091783     0.00044349
     6
  Step:     4            Position(A)                                  Velocity(au)
C        -0.04178366     0.00933919     0.03541699    -0.00010100     0.00016315    -0.00037052
N        -0.04225838    -0.02992815     1.28694105    -0.00015739     0.00004265     0.00036695
H         0.89889197    -0.03363183    -0.50382100     0.00128273    -0.00054345    -0.00097734
H         0.84756228    -0.25949780     1.83967031     0.00056955    -0.00095011     0.00117650
H        -0.90871227    -0.13950224     1.81437353     0.00176046    -0.00008074    -0.00135299
H        -0.96554597     0.06745917    -0.56399748    -0.00022211    -0.00096245     0.00046977
     6
  Step:     5            Position(A)                                  Velocity(au)
C        -0.04234024     0.01026966     0.03295785    -0.00010003     0.00017533    -0.00052146
N        -0.04308656    -0.02968958     1.28933186    -0.00014125     0.00004423     0.00049913
H         0.90623288    -0.03676011    -0.50926940     0.00137079    -0.00059338    -0.00099481
H         0.85039859    -0.26475881     1.84586543     0.00045379    -0.00096179     0.00107206
H        -0.89934339    -0.14010947     1.80706240     0.00162039    -0.00014321    -0.00128947
H        -0.96695110     0.06205304    -0.56135330    -0.00029006    -0.00100539     0.00048991
     6
  Step:     6            Position(A)                                  Velocity(au)
C        -0.04288332     0.01126651     0.02968462    -0.00009576     0.00018651    -0.00066334
N        -0.04381113    -0.02944196     1.29242793    -0.00011935     0.00004581     0.00062043
H         0.91396083    -0.04015474    -0.51475677     0.00141851    -0.00063770    -0.00098875
H         0.85255065    -0.27007061     1.85145522     0.00032120    -0.00096500     0.00095389
H        -0.89089968    -0.14107649     1.80019865     0.00141803    -0.00021102    -0.00118538
H        -0.96873457     0.05640712    -0.55861205    -0.00035808    -0.00104535     0.00050281
     6
  Step:     7            Position(A)                                  Velocity(au)
C        -0.04339505     0.01232408     0.02565110    -0.00008832     0.00019636    -0.00079303
N        -0.04440125    -0.02918494     1.29616605    -0.00009224     0.00004745     0.00072827
H         0.92185795    -0.04378445    -0.52016059     0.00142647    -0.00067534    -0.00096136
H         0.85393663    -0.27538844     1.85637264     0.00017659    -0.00095951     0.00082525
H        -0.88372353    -0.14243384     1.79400529     0.00115594    -0.00028355    -0.00104196
H        -0.97089543     0.05053837    -0.55581480    -0.00042480    -0.00108076     0.00050755
     6
  Step:     8            Position(A)                                  Velocity(au)
C        -0.04385858     0.01343483     0.02092749    -0.00007798     0.00020453    -0.00090755
N        -0.04482971    -0.02891801     1.30046996    -0.00006083     0.00004913     0.00082040
H         0.92971281    -0.04761231    -0.52537276     0.00139673    -0.00070533    -0.00091574
H         0.85450063    -0.28066610     1.86056813     0.00002516    -0.00094519     0.00068974
H        -0.87813506    -0.14420759     1.78869269     0.00084139    -0.00035950    -0.00086356
H        -0.97342544     0.04447268    -0.55300738    -0.00048872    -0.00110996     0.00050348
     6
  Step:     9            Position(A)                                  Velocity(au)
C        -0.04425872     0.01458935     0.01559970    -0.00006516     0.00021074    -0.00100433
N        -0.04507498    -0.02864079     1.30525220    -0.00002641     0.00005083     0.00089513
H         0.93732715    -0.05159613    -0.53030272     0.00133270    -0.00072690    -0.00085536
H         0.85421531    -0.28585671     1.86401165    -0.00012747    -0.00092227     0.00055133
H        -0.87440488    -0.14641536     1.78444115     0.00048667    -0.00043691    -0.00065772
H        -0.97630814     0.03824524    -0.55023867    -0.00054836    -0.00113145     0.00049036
     6
  Step:    10            Position(A)                                  Velocity(au)
C        -0.04458270     0.01577666     0.00976703    -0.00005039     0.00021479    -0.00108157
N        -0.04512323    -0.02835317     1.31041696     0.00000944     0.00005248     0.00095157
H         0.94452227    -0.05568987    -0.53487779     0.00123891    -0.00073974    -0.00078353
H         0.85308409    -0.29091471     1.86669476    -0.00027557    -0.00089151     0.00041431
H        -0.87272700    -0.14906264     1.78138390     0.00010838    -0.00051332    -0.00043469
H        -0.97951897     0.03189956    -0.54755835    -0.00060236    -0.00114421     0.00046849
     6
  Step:    11            Position(A)                                  Velocity(au)
C        -0.04482072     0.01698479     0.00353775    -0.00003429     0.00021667    -0.00113869
N        -0.04496975    -0.02805548     1.31586444     0.00004499     0.00005403     0.00098995
H         0.95114387    -0.05984593    -0.53904085     0.00112087    -0.00074414    -0.00070336
H         0.85114202    -0.29579907     1.86863215    -0.00041367    -0.00085439     0.00028297
H        -0.87319622    -0.15214010     1.77959335    -0.00027417    -0.00058613    -0.00020640
H        -0.98302588     0.02548463    -0.54501389    -0.00064972    -0.00114803     0.00043880
     6
  Step:    12            Position(A)                                  Velocity(au)
C        -0.04496644     0.01820175    -0.00297757    -0.00001749     0.00021659    -0.00117665
N        -0.04461966    -0.02774846     1.32149679     0.00007857     0.00005543     0.00101178
H         0.95706744    -0.06401855    -0.54275001     0.00098511    -0.00074115    -0.00061828
H         0.84845413    -0.30047737     1.86986189    -0.00053716    -0.00081321     0.00016132
H        -0.87579556    -0.15562285     1.77907383    -0.00064147    -0.00065303     0.00001516
H        -0.98679086     0.01905042    -0.54264715    -0.00068995    -0.00114377     0.00040280
     6
  Step:    13            Position(A)                                  Velocity(au)
C        -0.04501705     0.01941672    -0.00967420    -0.00000058     0.00021495    -0.00119794
N        -0.04408755    -0.02743308     1.32722515     0.00010874     0.00005669     0.00101984
H         0.96220512    -0.06816787    -0.54598316     0.00083865    -0.00073253    -0.00053200
H         0.84511053    -0.30493011     1.87044355    -0.00064281    -0.00077084     0.00005260
H        -0.88039895    -0.15947256     1.77976355    -0.00097674    -0.00071244     0.00021962
H        -0.99077292     0.01264195    -0.54049112    -0.00072324    -0.00113334     0.00036245
     6
  Step:    14            Position(A)                                  Velocity(au)
C        -0.04497301     0.02062119    -0.01646157     0.00001594     0.00021231    -0.00120618
N        -0.04339569    -0.02711031     1.33297609     0.00013451     0.00005787     0.00101769
H         0.96650730    -0.07226385    -0.54873814     0.00068795    -0.00072048    -0.00044779
H         0.84121869    -0.30915395     1.87045401    -0.00072887    -0.00073042    -0.00004097
H        -0.88678968    -0.16364210     1.78154592    -0.00126790    -0.00076376     0.00039960
H        -0.99493159     0.00629353    -0.53856744    -0.00075033    -0.00111939     0.00031986
     6
  Step:    15            Position(A)                                  Velocity(au)
C        -0.04483734     0.02180973    -0.02326949     0.00003178     0.00020924    -0.00120531
N        -0.04257148    -0.02678080     1.33869591     0.00015531     0.00005904     0.00100897
H         0.96995930    -0.07628862    -0.55103034     0.00053813    -0.00070718    -0.00036813
H         0.83689520    -0.31316297     1.86998180    -0.00079473    -0.00069483    -0.00011821
H        -0.89468995    -0.16808123     1.78426762    -0.00150815    -0.00080713     0.00055101
H        -0.99923015     0.00002491    -0.53688589    -0.00077224    -0.00110456     0.00027681
     6
  Step:    16            Position(A)                                  Velocity(au)
C        -0.04461476     0.02298004    -0.03004964     0.00004672     0.00020617    -0.00119860
N        -0.04164476    -0.02644473     1.34435077     0.00017093     0.00006028     0.00099659
H         0.97257391    -0.08023629    -0.55288827     0.00039263    -0.00069435    -0.00029454
H         0.83225930    -0.31698713     1.86912134    -0.00084023    -0.00066626    -0.00017872
H        -0.90379178    -0.17274129     1.78775770    -0.00169467    -0.00084294     0.00067244
H        -1.00363742    -0.00615879    -0.53544678    -0.00078973    -0.00109084     0.00023454
     6
  Step:    17            Position(A)                                  Velocity(au)
C        -0.04431107     0.02413218    -0.03677159     0.00006062     0.00020332    -0.00118807
N        -0.04064598    -0.02610174     1.34992231     0.00018127     0.00006165     0.00098223
H         0.97438221    -0.08411033    -0.55434835     0.00025351    -0.00068292    -0.00022775
H         0.82743008    -0.32066830     1.86796852    -0.00086506    -0.00064604    -0.00022247
H        -0.91378017    -0.17757683     1.79184261    -0.00182688    -0.00087137     0.00076413
H        -1.00812638    -0.01226328    -0.53424379    -0.00080293    -0.00107909     0.00019376
     6
  Step:    18            Position(A)                                  Velocity(au)
C        -0.04393279     0.02526744    -0.04341594     0.00011079     0.00030323    -0.00177445
N        -0.03960537    -0.02575115     1.35540130     0.00028149     0.00009542     0.00146023
H         0.97542602    -0.08791943    -0.55545059     0.00018442    -0.00101704    -0.00025385
H         0.82252700    -0.32425532     1.86661848    -0.00131223    -0.00095893    -0.00037703
H        -0.92434496    -0.18254462     1.79635451    -0.00287843    -0.00134802     0.00124954
H        -1.01267069    -0.01829899    -0.53326687    -0.00122563    -0.00161524     0.00023392
     6
  Step:    19            Position(A)                                  Velocity(au)
C        -0.04329209     0.02692897    -0.05300334     0.00011481     0.00028440    -0.00161418
N        -0.03802758    -0.02522421     1.36330932     0.00027219     0.00009104     0.00133501
H         0.97635467    -0.09348303    -0.55702731     0.00014736    -0.00095135    -0.00030343
H         0.81526393    -0.32948586     1.86453908    -0.00123779    -0.00089786    -0.00034640
H        -0.94055224    -0.18998245     1.80351790    -0.00281101    -0.00127549     0.00126098
H        -1.01968931    -0.02718846    -0.53242270    -0.00124902    -0.00152930     0.00007178
     6
  Step:    20            Position(A)                                  Velocity(au)
C        -0.04263285     0.02848764    -0.06169311     0.00011696     0.00026607    -0.00145389
N        -0.03652345    -0.02472034     1.37051743     0.00025525     0.00008702     0.00120989
H         0.97709456    -0.09869141    -0.55888623     0.00011675    -0.00088867    -0.00035209
H         0.80851172    -0.33442164     1.86269622    -0.00113005    -0.00085204    -0.00029400
H        -0.95617365    -0.19698679     1.81063243    -0.00266963    -0.00119193     0.00123244
H        -1.02681316    -0.03561504    -0.53245412    -0.00125785    -0.00144706    -0.00007472
     6
  Step:    21            Position(A)                                  Velocity(au)
C        -0.04196575     0.02994617    -0.06949019     0.00011764     0.00024914    -0.00130041
N        -0.03513311    -0.02423747     1.37702921     0.00023274     0.00008366     0.00109017
H         0.97767859    -0.10356043    -0.56101998     0.00009177    -0.00083171    -0.00040019
H         0.80244934    -0.33914788     1.86120513    -0.00099714    -0.00082369    -0.00022416
H        -0.97082530    -0.20349869     1.81749354    -0.00247627    -0.00110296     0.00117573
H        -1.03395313    -0.04359788    -0.53327001    -0.00125449    -0.00137295    -0.00020489
     6
  Step:    22            Position(A)                                  Velocity(au)
C        -0.04129916     0.03131213    -0.07643594     0.00006065     0.00012116    -0.00059908
N        -0.03388482    -0.02377188     1.38287665     0.00010682     0.00004200     0.00050657
H         0.97813496    -0.10812055    -0.56342325     0.00003690    -0.00040465    -0.00023202
H         0.79720716    -0.34375984     1.86015488    -0.00043789    -0.00042096    -0.00007292
H        -0.98424716    -0.20949104     1.82396172    -0.00116381    -0.00052404     0.00056956
H        -1.04103532    -0.05118023    -0.53477692    -0.00064230    -0.00067773    -0.00016542
     6
  Step:    23            Position(A)                                  Velocity(au)
C        -0.04094321     0.03199095    -0.07977071     0.00006532     0.00012028    -0.00058683
N        -0.03334649    -0.02352607     1.38569037     0.00008414     0.00004542     0.00049415
H         0.97803507    -0.11040751    -0.56460607    -0.00006839    -0.00040916    -0.00019071
H         0.79508943    -0.34626683     1.85990874    -0.00031302    -0.00047191    -0.00001262
H        -0.99028304    -0.21240158     1.82698162    -0.00097748    -0.00050983     0.00050163
H        -1.04450437    -0.05498055    -0.53573086    -0.00058877    -0.00067354    -0.00017250
     6
  Step:    24            Position(A)                                  Velocity(au)
C        -0.04056482     0.03266435    -0.08303331     0.00006908     0.00012003    -0.00057722
N        -0.03293885    -0.02326124     1.38843210     0.00006108     0.00004906     0.00048420
H         0.97736614    -0.11272046    -0.56556728    -0.00016612    -0.00041675    -0.00015436
H         0.79368802    -0.34906520     1.86001303    -0.00018647    -0.00052716     0.00005078
H        -0.99523630    -0.21522275     1.82960120    -0.00078648    -0.00049604     0.00043118
H        -1.04765447    -0.05875246    -0.53671622    -0.00053280    -0.00067199    -0.00017800
     6
  Step:    25            Position(A)                                  Velocity(au)
C        -0.04016920     0.03333581    -0.08623829     0.00007178     0.00012013    -0.00056884
N        -0.03266215    -0.02297639     1.39111566     0.00003790     0.00005277     0.00047559
H         0.97617372    -0.11507711    -0.56633559    -0.00025590    -0.00042680    -0.00012256
H         0.79300006    -0.35217358     1.86047771    -0.00006082    -0.00058424     0.00011527
H        -0.99909536    -0.21795961     1.83181288    -0.00059194    -0.00048239     0.00035868
H        -1.05047427    -0.06251007    -0.53772529    -0.00047346    -0.00067141    -0.00018201
     6
  Step:    26            Position(A)                                  Velocity(au)
C        -0.03976233     0.03400737    -0.08939254     0.00007332     0.00012044    -0.00056081
N        -0.03251509    -0.02267130     1.39374884     0.00001505     0.00005643     0.00046767
H         0.97450537    -0.11749181    -0.56693737    -0.00033697    -0.00043900    -0.00009521
H         0.79300810    -0.35559660     1.86130163     0.00006062    -0.00064076     0.00017865
H        -1.00185377    -0.22061556     1.83361106    -0.00039608    -0.00046900     0.00028504
H        -1.05294743    -0.06625836    -0.53875096    -0.00041052    -0.00067068    -0.00018474
     6
  Step:    27            Position(A)                                  Velocity(au)
C        -0.03935075     0.03468021    -0.09249810     0.00007363     0.00012086    -0.00055259
N        -0.03249411    -0.02234647     1.39633583    -0.00000700     0.00005994     0.00046008
H         0.97241242    -0.11997726    -0.56739832    -0.00040849    -0.00045326    -0.00007237
H         0.79367666    -0.35932573     1.86247180     0.00017429    -0.00069449     0.00023875
H        -1.00351642    -0.22319463     1.83499454    -0.00020172    -0.00045627     0.00021137
H        -1.05505651    -0.06999621    -0.53978738    -0.00034423    -0.00066906    -0.00018650
     6
  Step:    28            Position(A)                                  Velocity(au)
C        -0.03894137     0.03535495    -0.09555393     0.00007265     0.00012132    -0.00054381
N        -0.03259310    -0.02200298     1.39887874    -0.00002776     0.00006319     0.00045259
H         0.96995063    -0.12254568    -0.56774426    -0.00046963    -0.00046962    -0.00005413
H         0.79495146    -0.36334024     1.86396369     0.00027680    -0.00074340     0.00029356
H        -1.00410293    -0.22570295     1.83596784    -0.00001193    -0.00044473     0.00013887
H        -1.05678558    -0.07371842    -0.54083040    -0.00027511    -0.00066603    -0.00018763
     6
  Step:    29            Position(A)                                  Velocity(au)
C        -0.03854135     0.03603193    -0.09855703     0.00007035     0.00012181    -0.00053424
N        -0.03280342    -0.02164243     1.40137846    -0.00004678     0.00006611     0.00044509
H         0.96717997    -0.12520960    -0.56800138    -0.00051963    -0.00048821    -0.00004059
H         0.79676067    -0.36760842     1.86574257     0.00036514    -0.00078564     0.00034139
H        -1.00364928    -0.22814966     1.83654179     0.00017014    -0.00043505     0.00006877
H        -1.05812170    -0.07741692    -0.54187790    -0.00020388    -0.00066121    -0.00018856
     6
  Step:    30            Position(A)                                  Velocity(au)
C        -0.03815795     0.03671134    -0.10150312     0.00006674     0.00012230    -0.00052374
N        -0.03311404    -0.02126681     1.40383509    -0.00006364     0.00006864     0.00043747
H         0.96416413    -0.12798227    -0.56819623    -0.00055789    -0.00050922    -0.00003181
H         0.79901756    -0.37208895     1.86776535     0.00043690    -0.00081966     0.00038093
H        -1.00220825    -0.23054756     1.83673361     0.00034138    -0.00042795     0.00000224
H        -1.05905598    -0.08108152    -0.54293011    -0.00013138    -0.00065431    -0.00018971
     6
  Step:    31            Position(A)                                  Velocity(au)
C        -0.03779839     0.03739329    -0.10438703     0.00006184     0.00012279    -0.00051217
N        -0.03351180    -0.02087837     1.40624817    -0.00007797     0.00007075     0.00042966
H         0.96096973    -0.13087799    -0.56835552    -0.00058397    -0.00053286    -0.00002781
H         0.80162403    -0.37673254     1.86998287     0.00049035    -0.00084418     0.00041128
H        -0.99984917    -0.23291345     1.83656674     0.00049881    -0.00042421    -0.00005959
H        -1.05958417    -0.08470041    -0.54398971    -0.00005851    -0.00064508    -0.00019158
     6
  Step:    32            Position(A)                                  Velocity(au)
C        -0.03746979     0.03807787    -0.10720291     0.00005567     0.00012330    -0.00049947
N        -0.03398177    -0.02047950     1.40861669    -0.00008950     0.00007242     0.00042159
H         0.95766535    -0.13391231    -0.56850578    -0.00059761    -0.00055939    -0.00002853
H         0.80447455    -0.38148358     1.87234230     0.00052452    -0.00085824     0.00043200
H        -0.99665718    -0.23526841     1.83607045     0.00063962    -0.00042461    -0.00011570
H        -1.05970707    -0.08826040    -0.54506210     0.00001379    -0.00063333    -0.00019465
     6
  Step:    33            Position(A)                                  Velocity(au)
C        -0.03717900     0.03876519    -0.10994445     0.00004829     0.00012382    -0.00048556
N        -0.03450759    -0.02007259     1.41093907    -0.00009798     0.00007367     0.00041315
H         0.95432037    -0.13710216    -0.56867297    -0.00059879    -0.00058908    -0.00003382
H         0.80746015    -0.38628192     1.87478962     0.00053912    -0.00086120     0.00044309
H        -0.99273237    -0.23763797     1.83527938     0.00076121    -0.00043001    -0.00016516
H        -1.05943073    -0.09174721    -0.54615548     0.00008454    -0.00061888    -0.00019945
     6
  Step:    34            Position(A)                                  Velocity(au)
C        -0.03693251     0.03945541    -0.11260489     0.00003979     0.00012438    -0.00047038
N        -0.03507182    -0.01965994     1.41321309    -0.00010327     0.00007453     0.00040423
H         0.95100369    -0.14046595    -0.56888204    -0.00058773    -0.00062220    -0.00004347
H         0.81047243    -0.39106459     1.87727182     0.00053461    -0.00085270     0.00044494
H        -0.98818854    -0.24005233     1.83423303     0.00086128    -0.00044123    -0.00020716
H        -1.05876658    -0.09514559    -0.54728103     0.00015275    -0.00060159    -0.00020655
     6
  Step:    35            Position(A)                                  Velocity(au)
C        -0.03673635     0.04014877    -0.11517707     0.00003025     0.00012498    -0.00045387
N        -0.03565637    -0.01924355     1.41543581    -0.00010528     0.00007505     0.00039470
H         0.94778241    -0.14402362    -0.56915649    -0.00056487    -0.00065906    -0.00005717
H         0.81340722    -0.39576745     1.87973914     0.00051203    -0.00083269     0.00043828
H        -0.98315137    -0.24254630     1.83297488     0.00093790    -0.00045912    -0.00024108
H        -1.05773148    -0.09843941    -0.54845312     0.00021747    -0.00058134    -0.00021653
     6
  Step:    36            Position(A)                                  Velocity(au)
C        -0.03659598     0.04084559    -0.11765337     0.00001979     0.00012565    -0.00043594
N        -0.03624289    -0.01882515     1.41760339    -0.00010400     0.00007531     0.00038439
H         0.94472055    -0.14779672    -0.56951796    -0.00053089    -0.00069995    -0.00007458
H         0.81616779    -0.40032668     1.88214684     0.00047294    -0.00080134     0.00042415
H        -0.97775615    -0.24515919     1.83155143     0.00098963    -0.00048446    -0.00026650
H        -1.05634762    -0.10161183    -0.54968954     0.00027774    -0.00055800    -0.00023005
     6
  Step:    37            Position(A)                                  Velocity(au)
C        -0.03651622     0.04154626    -0.12002553     0.00000853     0.00012641    -0.00041644
N        -0.03681310    -0.01840601     1.41971098    -0.00009949     0.00007537     0.00037311
H         0.94187792    -0.15180842    -0.56998602    -0.00048663    -0.00074518    -0.00009533
H         0.81866726    -0.40467993     1.88445656     0.00041929    -0.00075902     0.00040381
H        -0.97214472    -0.24793443     1.83001091     0.00101562    -0.00051794    -0.00028323
H        -1.05464249    -0.10464540    -0.55101173     0.00033261    -0.00053149    -0.00024779
     6
  Step:    38            Position(A)                                  Velocity(au)
C        -0.03650113     0.04225130    -0.12228440    -0.00000339     0.00012727    -0.00039520
N        -0.03734926    -0.01798702     1.42175255    -0.00009187     0.00007532     0.00036063
H         0.93930903    -0.15608346    -0.57057804    -0.00043312    -0.00079504    -0.00011901
H         0.82083054    -0.40876735     1.88663741     0.00035333    -0.00070625     0.00037865
H        -0.96646197    -0.25091895     1.82840181     0.00101567    -0.00056013    -0.00029136
H        -1.05264879    -0.10752221    -0.55244510     0.00038118    -0.00050176    -0.00027051
     6
  Step:    39            Position(A)                                  Velocity(au)
C        -0.03655395     0.04296132    -0.12441955    -0.00001582     0.00012826    -0.00037192
N        -0.03783453    -0.01756861     1.42372064    -0.00008133     0.00007522     0.00034665
H         0.93706230    -0.16064805    -0.57130923    -0.00037151    -0.00084977    -0.00014529
H         0.82259578    -0.41253243     1.88866664     0.00027751    -0.00064370     0.00035018
H        -0.96085194    -0.25416224     1.82677138     0.00099028    -0.00061137    -0.00029125
H        -1.05040433    -0.11022419    -0.55401944     0.00042252    -0.00046881    -0.00029904
     6
  Step:    40            Position(A)                                  Velocity(au)
C        -0.03667704     0.04367700    -0.12641868    -0.00002859     0.00012938    -0.00034621
N        -0.03825336    -0.01715082     1.42560596    -0.00006814     0.00007516     0.00033081
H         0.93517934    -0.16552953    -0.57219304    -0.00030303    -0.00090954    -0.00017390
H         0.82391534    -0.41592276     1.89053008     0.00019441    -0.00057215     0.00031993
H        -0.95545396    -0.25771501     1.82516423     0.00094062    -0.00067175    -0.00028347
H        -1.04795206    -0.11273355    -0.55576922     0.00045569    -0.00043277    -0.00033425
     6
  Step:    41            Position(A)                                  Velocity(au)
C        -0.03687173     0.04439913    -0.12826695    -0.00004151     0.00013066    -0.00031753
N        -0.03859182    -0.01673331     1.42739697    -0.00005263     0.00007519     0.00031266
H         0.93369470    -0.17075578    -0.57324176    -0.00022897    -0.00097436    -0.00020474
H         0.82475624    -0.41889080     1.89222208     0.00010665    -0.00049257     0.00028940
H        -0.95039878    -0.26162744     1.82362119     0.00086858    -0.00074096    -0.00026877
H        -1.04534019    -0.11503355    -0.55773393     0.00047975    -0.00039392    -0.00037707
     6
  Step:    42            Position(A)                                  Velocity(au)
C        -0.03713821     0.04512856    -0.12994621    -0.00005435     0.00013210    -0.00028520
N        -0.03883804    -0.01631552     1.42907944    -0.00003519     0.00007534     0.00029166
H         0.93263565    -0.17635414    -0.57446759    -0.00015061    -0.00104399    -0.00023793
H         0.82510021    -0.42139491     1.89374513     0.00001687    -0.00040610     0.00025995
H        -0.94580450    -0.26594662     1.82217836     0.00077675    -0.00081813    -0.00024804
H        -1.04262234    -0.11710976    -0.55995827     0.00049367    -0.00035283    -0.00042845
     6
  Step:    43            Position(A)                                  Velocity(au)
C        -0.03747531     0.04586621    -0.13143426    -0.00006684     0.00013372    -0.00024843
N        -0.03898263    -0.01589668     1.43063595    -0.00001631     0.00007562     0.00026718
H         0.93202211    -0.18234975    -0.57588402    -0.00006927    -0.00111782    -0.00027386
H         0.82494356    -0.42340072     1.89510892    -0.00007239    -0.00031423     0.00023276
H        -0.94177264    -0.27071311     1.82086657     0.00066840    -0.00090172    -0.00022220
H        -1.03985781    -0.11895187    -0.56249205     0.00049640    -0.00031048    -0.00048927
     6
  Step:    44            Position(A)                                  Velocity(au)
C        -0.03788023     0.04661299    -0.13270398    -0.00007865     0.00013551    -0.00020619
N        -0.03901908    -0.01547608     1.43204539     0.00000345     0.00007602     0.00023848
H         0.93186666    -0.18876301    -0.57750770     0.00001374    -0.00119464    -0.00031337
H         0.82429665    -0.42488313     1.89632899    -0.00015862    -0.00021886     0.00020869
H        -0.93838462    -0.27595658     1.81971168     0.00054734    -0.00098923    -0.00019202
H        -1.03711182    -0.12055639    -0.56538967     0.00048678    -0.00026843    -0.00056031
     6