     6
  Step:   120            Position(A)                                  Velocity(au)
C        -0.03220034     0.08283256    -0.03034998     0.00000768     0.00027262     0.00001181
N        -0.04328089    -0.11430712     1.35750927     0.00002517    -0.00005403    -0.00012600
H         0.87060773    -0.28127528    -0.67056688    -0.00024109    -0.00152563     0.00061920
H         0.83535164     0.10947507     1.84915819    -0.00045066     0.00026341     0.00040980
H        -0.94476370     0.11932895     1.87507957     0.00029824    -0.00043270     0.00030318
H        -0.98896704    -0.01591380    -0.66440548    -0.00004776    -0.00080277     0.00027804
