|===============================================================================
|
|  DFTB+ release 20.1
|
|  Copyright (C) 2006 - 2020  DFTB+ developers group
|
|===============================================================================
|
|  When publishing results obtained with DFTB+, please cite the following
|  reference:
|
|  * DFTB+, a software package for efficient approximate density functional
|    theory based atomistic simulations, J. Chem. Phys. 152, 124101 (2020).
|    [doi: 10.1063/1.5143190]
|
|  You should also cite additional publications crediting the parametrization
|  data you use. Please consult the documentation of the SK-files for the
|  references.
|
|===============================================================================

Reading input file 'dftb_in.hsd'
Parser version: 8

--------------------------------------------------------------------------------
Reading SK-files:
Done.


Processed input in HSD format written to 'dftb_pin.hsd'

Starting initialization...
--------------------------------------------------------------------------------
OpenMP threads:              1
Chosen random seed:          502925051
Mode:                        Static calculation
Self consistent charges:     Yes
SCC-tolerance:                 0.100000E-05
Max. scc iterations:                   1000
Shell resolved Hubbard:      No
Spin polarisation:           No
Nr. of up electrons:            16.000000
Nr. of down electrons:          16.000000
Periodic boundaries:         No
Electronic solver:           Relatively robust
Maximal SCC-cycles:                    1000
Initial charges:             Set automatically (system chrg:   0.100E+01)
Included shells:             C:  s, p
                             H:  s
                             N:  s, p
Spin coupling constants:     C   1(s)-1(s):  -0.455900E-01
                             C   1(s)-2(p):  -0.293000E-01
                             C   2(p)-1(s):  -0.293000E-01
                             C   2(p)-2(p):  -0.275500E-01
                             H   1(s)-1(s):  -0.792500E-01
                             N   1(s)-1(s):  -0.468700E-01
                             N   1(s)-2(p):  -0.317000E-01
                             N   2(p)-1(s):  -0.317000E-01
                             N   2(p)-2(p):  -0.307200E-01
Range separated hybrid:      Yes
  Screening parameter omega:   0.300000E+00
  Range separated algorithm:   MatrixBased
Extra options:
                             Mulliken analysis
                             Force calculation
Force type                   original
                             Eigenvector printing


REKS Calcuation:             Yes
SSR(2,2) Calcuation:         Yes
Energy Functional:           (PPS+OSS)/2
Number of Core Orbitals:                 15
Number of Active Orbitals:                2
Number of Basis:                         32
Number of States:                         2
State-Averaging Weight:          0.500000
                                 0.500000
State of Interest:                        1
Initial Guess:               Diagonalize H0 matrix
Newton-Raphson for FON opt:  Yes
NR max. Iterations:                      50
Level Shifting:              Yes
Shift Value:                     0.300000
W Scale Factor:              C  =    3.200000
                             H  =    3.200000
                             N  =    3.200000
Transition Dipole:           No
Gradient of Microstate:      No
CP-REKS Solver:              Preconditioned Conjugate-Gradient
CG max. Iterations:                     100
CG Tolerance:                  0.100000E-07
Memory for A and Hxc:        Direct Updating Without Saving
Non-Adiabatic Coupling:      Yes

--------------------------------------------------------------------------------

***  Geometry step: 0

  iSCC       reks energy        Diff energy         x_a       SCC error   
    1      -16.3635184740       0.0000000000     0.994658    1.22611158
    2      -16.3840318178      -0.0205133438     0.999103    0.04950908
    3      -16.3885005157      -0.0044686980     0.999694    0.02318316
    4      -16.3901874275      -0.0016869117     0.999852    0.01298023
    5      -16.3909789326      -0.0007915051     0.999913    0.00813242
    6      -16.3913899644      -0.0004110318     0.999942    0.00534187
    7      -16.3916191122      -0.0002291478     0.999957    0.00356307
    8      -16.3917558468      -0.0001367346     0.999966    0.00284713
    9      -16.3918438495      -0.0000880027     0.999972    0.00234491
   10      -16.3919053857      -0.0000615362     0.999976    0.00195498
   11      -16.3919520950      -0.0000467094     0.999978    0.00165435
   12      -16.3919901743      -0.0000380793     0.999981    0.00142266
   13      -16.3920229775      -0.0000328032     0.999982    0.00124331
   14      -16.3920523515      -0.0000293740     0.999983    0.00110336
   15      -16.3920793332      -0.0000269817     0.999984    0.00099295
   16      -16.3921045175      -0.0000251843     0.999985    0.00090471
   17      -16.3921282548      -0.0000237373     0.999986    0.00083312
   18      -16.3921507579      -0.0000225031     0.999986    0.00079548
   19      -16.3921721611      -0.0000214032     0.999987    0.00078273
   20      -16.3921925532      -0.0000203921     0.999987    0.00076893
   21      -16.3922119964      -0.0000194432     0.999988    0.00075428
   22      -16.3922305370      -0.0000185406     0.999988    0.00073892
   23      -16.3922482121      -0.0000176751     0.999989    0.00072300
   24      -16.3922650532      -0.0000168411     0.999989    0.00070689
   25      -16.3922810885      -0.0000160353     0.999989    0.00069567
   26      -16.3922963442      -0.0000152557     0.999990    0.00068326
   27      -16.3923108456      -0.0000145014     0.999990    0.00066991
   28      -16.3923246173      -0.0000137717     0.999990    0.00065582
   29      -16.3923376837      -0.0000130664     0.999990    0.00064116
   30      -16.3923500690      -0.0000123853     0.999990    0.00062607
   31      -16.3923617975      -0.0000117285     0.999991    0.00061066
   32      -16.3923728933      -0.0000110958     0.999991    0.00059503
   33      -16.3923833805      -0.0000104872     0.999991    0.00057926
   34      -16.3923932830      -0.0000099026     0.999991    0.00056342
   35      -16.3924026249      -0.0000093419     0.999991    0.00054758
   36      -16.3924114298      -0.0000088048     0.999991    0.00053178
   37      -16.3924197210      -0.0000082912     0.999992    0.00051607
   38      -16.3924275217      -0.0000078007     0.999992    0.00050050
   39      -16.3924348545      -0.0000073328     0.999992    0.00048509
   40      -16.3924417418      -0.0000068873     0.999992    0.00046987
   41      -16.3924482053      -0.0000064635     0.999992    0.00045487
   42      -16.3924542662      -0.0000060610     0.999992    0.00044012
   43      -16.3924599453      -0.0000056791     0.999992    0.00042563
   44      -16.3924652626      -0.0000053173     0.999992    0.00041142
   45      -16.3924702375      -0.0000049749     0.999992    0.00039749
   46      -16.3924748887      -0.0000046513     0.999992    0.00038388
   47      -16.3924792344      -0.0000043457     0.999992    0.00037057
   48      -16.3924832920      -0.0000040576     0.999993    0.00035758
   49      -16.3924870781      -0.0000037861     0.999993    0.00034493
   50      -16.3924906087      -0.0000035306     0.999993    0.00033260
   51      -16.3924938991      -0.0000032904     0.999993    0.00032060
   52      -16.3924969639      -0.0000030648     0.999993    0.00030894
   53      -16.3924998169      -0.0000028530     0.999993    0.00029761
   54      -16.3925024714      -0.0000026545     0.999993    0.00028661
   55      -16.3925049400      -0.0000024686     0.999993    0.00027595
   56      -16.3925072345      -0.0000022945     0.999993    0.00026561
   57      -16.3925093661      -0.0000021317     0.999993    0.00025560
   58      -16.3925113456      -0.0000019795     0.999993    0.00024591
   59      -16.3925131830      -0.0000018374     0.999993    0.00023654
   60      -16.3925148878      -0.0000017048     0.999993    0.00022748
   61      -16.3925164689      -0.0000015811     0.999993    0.00021872
   62      -16.3925179346      -0.0000014658     0.999993    0.00021026
   63      -16.3925192930      -0.0000013584     0.999993    0.00020209
   64      -16.3925205515      -0.0000012584     0.999993    0.00019421
   65      -16.3925217169      -0.0000011654     0.999993    0.00018661
   66      -16.3925227958      -0.0000010789     0.999993    0.00017928
   67      -16.3925237943      -0.0000009985     0.999993    0.00017222
   68      -16.3925247182      -0.0000009238     0.999993    0.00016541
   69      -16.3925255727      -0.0000008545     0.999993    0.00015885
   70      -16.3925263628      -0.0000007901     0.999993    0.00015253
   71      -16.3925270932      -0.0000007304     0.999993    0.00014645
   72      -16.3925277683      -0.0000006751     0.999993    0.00014060
   73      -16.3925283920      -0.0000006237     0.999993    0.00013497
   74      -16.3925289682      -0.0000005762     0.999993    0.00012956
   75      -16.3925295004      -0.0000005321     0.999993    0.00012435
   76      -16.3925299917      -0.0000004913     0.999993    0.00011934
   77      -16.3925304453      -0.0000004536     0.999993    0.00011452
   78      -16.3925308639      -0.0000004186     0.999993    0.00010990
   79      -16.3925312503      -0.0000003863     0.999993    0.00010545
   80      -16.3925316067      -0.0000003564     0.999993    0.00010117
   81      -16.3925319355      -0.0000003288     0.999993    0.00009707
   82      -16.3925322388      -0.0000003033     0.999993    0.00009312
   83      -16.3925325184      -0.0000002797     0.999993    0.00008933
   84      -16.3925327763      -0.0000002579     0.999993    0.00008569
   85      -16.3925330140      -0.0000002377     0.999993    0.00008220
   86      -16.3925332331      -0.0000002191     0.999993    0.00007884
   87      -16.3925334351      -0.0000002019     0.999993    0.00007562
   88      -16.3925336212      -0.0000001861     0.999993    0.00007253
   89      -16.3925337926      -0.0000001715     0.999993    0.00006956
   90      -16.3925339506      -0.0000001580     0.999993    0.00006672
   91      -16.3925340961      -0.0000001455     0.999993    0.00006398
   92      -16.3925342302      -0.0000001340     0.999993    0.00006136
   93      -16.3925343536      -0.0000001235     0.999993    0.00005884
   94      -16.3925344673      -0.0000001137     0.999993    0.00005643
   95      -16.3925345720      -0.0000001047     0.999993    0.00005411
   96      -16.3925346684      -0.0000000964     0.999993    0.00005188
   97      -16.3925347571      -0.0000000887     0.999993    0.00004975
   98      -16.3925348388      -0.0000000817     0.999993    0.00004770
   99      -16.3925349140      -0.0000000752     0.999993    0.00004574
  100      -16.3925349832      -0.0000000692     0.999993    0.00004386
  101      -16.3925350470      -0.0000000637     0.999993    0.00004205
  102      -16.3925351056      -0.0000000586     0.999993    0.00004032
  103      -16.3925351595      -0.0000000539     0.999993    0.00003866
  104      -16.3925352092      -0.0000000496     0.999993    0.00003706
  105      -16.3925352548      -0.0000000457     0.999993    0.00003554
  106      -16.3925352969      -0.0000000420     0.999993    0.00003407
  107      -16.3925353355      -0.0000000387     0.999993    0.00003266
  108      -16.3925353711      -0.0000000356     0.999993    0.00003132
  109      -16.3925354038      -0.0000000327     0.999993    0.00003002
  110      -16.3925354339      -0.0000000301     0.999993    0.00002878
  111      -16.3925354616      -0.0000000277     0.999993    0.00002760
  112      -16.3925354871      -0.0000000255     0.999993    0.00002646
  113      -16.3925355105      -0.0000000234     0.999993    0.00002536
  114      -16.3925355320      -0.0000000215     0.999993    0.00002431
  115      -16.3925355519      -0.0000000198     0.999993    0.00002331
  116      -16.3925355701      -0.0000000182     0.999993    0.00002235
  117      -16.3925355868      -0.0000000168     0.999993    0.00002142
  118      -16.3925356022      -0.0000000154     0.999993    0.00002054
  119      -16.3925356164      -0.0000000142     0.999993    0.00001969
  120      -16.3925356294      -0.0000000130     0.999993    0.00001887
  121      -16.3925356414      -0.0000000120     0.999993    0.00001809
  122      -16.3925356524      -0.0000000110     0.999993    0.00001734
  123      -16.3925356625      -0.0000000101     0.999993    0.00001663
  124      -16.3925356718      -0.0000000093     0.999993    0.00001594
  125      -16.3925356804      -0.0000000086     0.999993    0.00001528
  126      -16.3925356883      -0.0000000079     0.999993    0.00001465
  127      -16.3925356955      -0.0000000072     0.999993    0.00001404
  128      -16.3925357022      -0.0000000066     0.999993    0.00001346
  129      -16.3925357083      -0.0000000061     0.999993    0.00001290
  130      -16.3925357139      -0.0000000056     0.999993    0.00001237
  131      -16.3925357190      -0.0000000052     0.999993    0.00001186
  132      -16.3925357238      -0.0000000047     0.999993    0.00001137
  133      -16.3925357282      -0.0000000044     0.999993    0.00001090
  134      -16.3925357322      -0.0000000040     0.999993    0.00001044
  135      -16.3925357359      -0.0000000037     0.999993    0.00001001
  136      -16.3925357392      -0.0000000034     0.999993    0.00000960
  137      -16.3925357424      -0.0000000031     0.999993    0.00000920
  138      -16.3925357452      -0.0000000029     0.999993    0.00000882
  139      -16.3925357479      -0.0000000026     0.999993    0.00000845
  140      -16.3925357503      -0.0000000024     0.999993    0.00000810
  141      -16.3925357525      -0.0000000022     0.999993    0.00000777
  142      -16.3925357545      -0.0000000020     0.999993    0.00000745
  143      -16.3925357564      -0.0000000019     0.999993    0.00000714
  144      -16.3925357581      -0.0000000017     0.999993    0.00000684
  145      -16.3925357597      -0.0000000016     0.999993    0.00000656
  146      -16.3925357612      -0.0000000015     0.999993    0.00000629
  147      -16.3925357625      -0.0000000013     0.999993    0.00000603
  148      -16.3925357638      -0.0000000012     0.999993    0.00000578
  149      -16.3925357649      -0.0000000011     0.999993    0.00000554
  150      -16.3925357659      -0.0000000010     0.999993    0.00000531
  151      -16.3925357669      -0.0000000010     0.999993    0.00000509
  152      -16.3925357678      -0.0000000009     0.999993    0.00000488
  153      -16.3925357686      -0.0000000008     0.999993    0.00000468
  154      -16.3925357693      -0.0000000007     0.999993    0.00000448
  155      -16.3925357700      -0.0000000007     0.999993    0.00000430
  156      -16.3925357706      -0.0000000006     0.999993    0.00000412
  157      -16.3925357712      -0.0000000006     0.999994    0.00000395
  158      -16.3925357717      -0.0000000005     0.999994    0.00000378
  159      -16.3925357722      -0.0000000005     0.999994    0.00000363
  160      -16.3925357727      -0.0000000004     0.999994    0.00000348
  161      -16.3925357731      -0.0000000004     0.999994    0.00000333
  162      -16.3925357734      -0.0000000004     0.999994    0.00000319
  163      -16.3925357738      -0.0000000003     0.999994    0.00000306
  164      -16.3925357741      -0.0000000003     0.999994    0.00000293
  165      -16.3925357744      -0.0000000003     0.999994    0.00000281
  166      -16.3925357747      -0.0000000003     0.999994    0.00000270
  167      -16.3925357749      -0.0000000002     0.999994    0.00000258
  168      -16.3925357752      -0.0000000002     0.999994    0.00000248
  169      -16.3925357754      -0.0000000002     0.999994    0.00000238
  170      -16.3925357756      -0.0000000002     0.999994    0.00000228
  171      -16.3925357757      -0.0000000002     0.999994    0.00000218
  172      -16.3925357759      -0.0000000002     0.999994    0.00000209
  173      -16.3925357760      -0.0000000001     0.999994    0.00000201
  174      -16.3925357762      -0.0000000001     0.999994    0.00000192
  175      -16.3925357763      -0.0000000001     0.999994    0.00000184
  176      -16.3925357764      -0.0000000001     0.999994    0.00000177
  177      -16.3925357765      -0.0000000001     0.999994    0.00000169
  178      -16.3925357766      -0.0000000001     0.999994    0.00000162
  179      -16.3925357767      -0.0000000001     0.999994    0.00000156
  180      -16.3925357768      -0.0000000001     0.999994    0.00000149
  181      -16.3925357769      -0.0000000001     0.999994    0.00000143
  182      -16.3925357769      -0.0000000001     0.999994    0.00000137
  183      -16.3925357770      -0.0000000001     0.999994    0.00000131
  184      -16.3925357771      -0.0000000001     0.999994    0.00000126
  185      -16.3925357771      -0.0000000001     0.999994    0.00000121
  186      -16.3925357772      -0.0000000000     0.999994    0.00000116
  187      -16.3925357772      -0.0000000000     0.999994    0.00000111
  188      -16.3925357772      -0.0000000000     0.999994    0.00000106
  189      -16.3925357773      -0.0000000000     0.999994    0.00000102
  190      -16.3925357773      -0.0000000000     0.999994    0.00000098
  
--------------------------------------------------
 Final SA-REKS(2,2) energy:     -16.39253578
  
 State     Energy      FON(1)    FON(2)   Spin
  PPS  -16.45727508   1.999987  0.000013  0.00
  OSS  -16.32779647   1.000000  1.000000  0.00
 Trip  -16.36846441   1.000000  1.000000  1.00
--------------------------------------------------

 Lagrangian Wab:   0.00537768  0.00537786

--------------------------------------------------
 SSR: 2SI-2SA-REKS(2,2) Hamiltonian matrix
               PPS           OSS
   PPS   -16.45727508    0.00758578
   OSS     0.00758578  -16.32779647
--------------------------------------------------

----------------------------------------------------------------
 SSR: 2SI-2SA-REKS(2,2) states
                    E_n       C_{PPS}    C_{OSS}
 SSR state  1  -16.45771799  -0.998300   0.058288
 SSR state  2  -16.32735356  -0.058288  -0.998300
----------------------------------------------------------------

 unrelaxed SSR FONs for S0:  1.996590  0.003410

Total Energy:                      -16.4577179935 H         -447.8373 eV
Extrapolated to 0:                 -16.4577179935 H         -447.8373 eV

----------------------------------------------------------------------------------
 Solving CP-REKS equation for  1 state vector...
----------------------------------------------------------------------------------
  CG solver: Constructing Y initial guess
  CG solver: Iteration    1    eps =    0.000914438557
  CG solver: Iteration    2    eps =    0.000141619047
  CG solver: Iteration    3    eps =    0.000083566238
  CG solver: Iteration    4    eps =    0.000015780769
  CG solver: Iteration    5    eps =    0.000019326764
  CG solver: Iteration    6    eps =    0.000020835765
  CG solver: Iteration    7    eps =    0.000000977648
  CG solver: Iteration    8    eps =    0.000000047272
  CG solver: Iteration    9    eps =    0.000000016273
  CG solver: Iteration   10    eps =    0.000000002029
  Convergence reached in CG solver after   10 iterations
  CG solver: Calculating converged R, Z, Q2 matrix
----------------------------------------------------------------------------------

----------------------------------------------------------------------------------
 Solving CP-REKS equation for SI between  1 and  2 state vectors...
----------------------------------------------------------------------------------
  CG solver: Constructing Y initial guess
  CG solver: Iteration    1    eps =    0.030679397775
  CG solver: Iteration    2    eps =    0.001549441867
  CG solver: Iteration    3    eps =    0.000222185979
  CG solver: Iteration    4    eps =    0.000187545312
  CG solver: Iteration    5    eps =    0.000047575467
  CG solver: Iteration    6    eps =    0.000097034949
  CG solver: Iteration    7    eps =    0.000037859635
  CG solver: Iteration    8    eps =    0.000002918697
  CG solver: Iteration    9    eps =    0.000000628709
  CG solver: Iteration   10    eps =    0.000000038193
  CG solver: Iteration   11    eps =    0.000000002839
  Convergence reached in CG solver after   11 iterations
  CG solver: Calculating converged R, Z, Q2 matrix
----------------------------------------------------------------------------------

--------------------------------------------------
 Gradient Information
--------------------------------------------------
           1 st state (SSR)
    -0.08951746    -0.08176570    -0.07250563
     0.02710389     0.02914051     0.10430338
     0.03811875     0.01076397     0.01777106
     0.01829064     0.01847109     0.01024440
    -0.01514296     0.03169505    -0.01613473
     0.03986852    -0.08968905    -0.08291133
     0.07138989     0.09127560     0.05100742
    -0.04277302     0.00484933     0.00377078
    -0.00749923    -0.00938851    -0.00922849
    -0.00272925     0.01344341    -0.00378577
    -0.00837671    -0.01001666    -0.00546857
    -0.01999160    -0.00029517     0.00794796
    -0.00075012     0.00344485     0.00837167
    -0.00799133    -0.01192872    -0.01338214

           2 st state (SSR)
    -0.07651088    -0.02266795    -0.06999851
     0.02014610    -0.05875036     0.05969670
     0.03081558     0.00664580     0.02824465
     0.01893889     0.01745611     0.01345215
    -0.01076736     0.03572127    -0.00076829
     0.03861834    -0.03856433    -0.06150496
     0.03807355     0.08436197     0.04385707
    -0.02361832     0.00214618     0.00528925
    -0.00830196    -0.00704185    -0.01181403
     0.06239456     0.00540340     0.01252005
    -0.00808859    -0.00796879    -0.00867752
    -0.07672849    -0.00926545    -0.00599939
     0.00220753     0.00273466     0.00734111
    -0.00717895    -0.01021066    -0.01163828
--------------------------------------------------
 Coupling Information
--------------------------------------------------
 between  1 and  2 states
--------------------------------------------------
 g vector - difference gradient
    -0.00709346    -0.03242501    -0.00159801
     0.00486930     0.04853404     0.02369960
     0.00376440     0.00213712    -0.00541161
    -0.00029394     0.00056296    -0.00170558
    -0.00242141    -0.00195797    -0.00798813
     0.00004570    -0.02609472    -0.01153647
     0.01653011     0.00308209     0.00317374
    -0.00958231     0.00023383    -0.00043747
     0.00026863    -0.00111137     0.00107543
    -0.03231314     0.00400889    -0.00719470
    -0.00012909    -0.00105429     0.00164275
     0.02823939     0.00453594     0.00666493
    -0.00146126     0.00044742     0.00044532
    -0.00042292    -0.00089893    -0.00082981

 h vector - derivative coupling
    -0.00465698    -0.02282051    -0.00286642
     0.01166303     0.03659466     0.01061389
     0.00074963     0.00054573    -0.00118615
     0.00027649     0.00044376    -0.00077437
    -0.00186593     0.00058812    -0.00215358
    -0.00498119    -0.00305085    -0.00648653
    -0.00206549    -0.00339981    -0.00363473
     0.00051684    -0.00961809     0.00279042
    -0.00115619     0.00059733    -0.00193029
     0.00402426    -0.00032954     0.00865372
     0.00013617    -0.00019926     0.00023296
    -0.00275781     0.00017168    -0.00304210
     0.00023623     0.00076716    -0.00062719
    -0.00011905    -0.00029039     0.00041037

 G vector - GDV
    -0.00650329    -0.02954888    -0.00125356
     0.00347889     0.04394544     0.02230334
     0.00365158     0.00205908    -0.00523679
    -0.00032412     0.00050749    -0.00160387
    -0.00218780    -0.00201311    -0.00768322
     0.00062509    -0.02556236    -0.01070319
     0.01665817     0.00345681     0.00357517
    -0.00957735     0.00135158    -0.00075924
     0.00040136    -0.00117333     0.00129277
    -0.03256190     0.00402000    -0.00815291
    -0.00014406    -0.00102394     0.00160448
     0.02836845     0.00448514     0.00697368
    -0.00147883     0.00035510     0.00051528
    -0.00040619    -0.00085903    -0.00087193

 H vector - DCV - non-adiabatic coupling
    -0.04181244    -0.20280844    -0.02326492
     0.09320376     0.32212998     0.10202079
     0.00907169     0.00606561    -0.01386792
     0.00184409     0.00388344    -0.00742228
    -0.01637757     0.00273282    -0.02353854
    -0.03790932    -0.04653853    -0.05971759
    -0.00097968    -0.02315062    -0.02485858
    -0.00461661    -0.07306844     0.02086882
    -0.00856884     0.00355876    -0.01374625
     0.00181321     0.00106810     0.05950710
     0.00092222    -0.00245930     0.00324138
     0.00419881     0.00535731    -0.01722689
     0.00049525     0.00624420    -0.00438080
    -0.00128458    -0.00301490     0.00238566
--------------------------------------------------


--------------------------------------------------------------------------------
DFTB+ running times                          cpu [s]             wall clock [s]
--------------------------------------------------------------------------------
SCC                                    +     0.30  ( 49.3%)      0.30  ( 49.1%)
      Sparse to dense                        0.01  (  2.3%)      0.02  (  2.6%)
      Dense to sparse                        0.05  (  8.3%)      0.05  (  8.6%)
      Range separated Hamiltonian            0.02  (  4.0%)      0.02  (  3.9%)
  Density matrix creation                    0.03  (  4.9%)      0.03  (  5.1%)
Post-SCC processing                    +     0.30  ( 50.2%)      0.31  ( 49.9%)
  Force calculation                          0.30  ( 50.2%)      0.31  ( 49.8%)
--------------------------------------------------------------------------------
Missing                                +     0.00  (  0.4%)      0.01  (  1.0%)
Total                                  =     0.60  (100.0%)      0.61  (100.0%)
--------------------------------------------------------------------------------
