|===============================================================================
|
|  DFTB+ release 20.1
|
|  Copyright (C) 2006 - 2020  DFTB+ developers group
|
|===============================================================================
|
|  When publishing results obtained with DFTB+, please cite the following
|  reference:
|
|  * DFTB+, a software package for efficient approximate density functional
|    theory based atomistic simulations, J. Chem. Phys. 152, 124101 (2020).
|    [doi: 10.1063/1.5143190]
|
|  You should also cite additional publications crediting the parametrization
|  data you use. Please consult the documentation of the SK-files for the
|  references.
|
|===============================================================================

Reading input file 'dftb_in.hsd'
Parser version: 8

--------------------------------------------------------------------------------
Reading SK-files:
Done.


Processed input in HSD format written to 'dftb_pin.hsd'

Starting initialization...
--------------------------------------------------------------------------------
OpenMP threads:              1
Chosen random seed:          500485404
Mode:                        Static calculation
Self consistent charges:     Yes
SCC-tolerance:                 0.100000E-05
Max. scc iterations:                   1000
Shell resolved Hubbard:      No
Spin polarisation:           No
Nr. of up electrons:            16.000000
Nr. of down electrons:          16.000000
Periodic boundaries:         No
Electronic solver:           Relatively robust
Maximal SCC-cycles:                    1000
Initial charges:             Set automatically (system chrg:   0.100E+01)
Included shells:             C:  s, p
                             H:  s
                             N:  s, p
Spin coupling constants:     C   1(s)-1(s):  -0.455900E-01
                             C   1(s)-2(p):  -0.293000E-01
                             C   2(p)-1(s):  -0.293000E-01
                             C   2(p)-2(p):  -0.275500E-01
                             H   1(s)-1(s):  -0.792500E-01
                             N   1(s)-1(s):  -0.468700E-01
                             N   1(s)-2(p):  -0.317000E-01
                             N   2(p)-1(s):  -0.317000E-01
                             N   2(p)-2(p):  -0.307200E-01
Range separated hybrid:      Yes
  Screening parameter omega:   0.300000E+00
  Range separated algorithm:   MatrixBased
Extra options:
                             Mulliken analysis
                             Force calculation
Force type                   original
                             Eigenvector printing


REKS Calcuation:             Yes
SSR(2,2) Calcuation:         Yes
Energy Functional:           (PPS+OSS)/2
Number of Core Orbitals:                 15
Number of Active Orbitals:                2
Number of Basis:                         32
Number of States:                         2
State-Averaging Weight:          0.500000
                                 0.500000
State of Interest:                        1
Initial Guess:               Diagonalize H0 matrix
Newton-Raphson for FON opt:  Yes
NR max. Iterations:                      50
Level Shifting:              Yes
Shift Value:                     0.300000
W Scale Factor:              C  =    3.200000
                             H  =    3.200000
                             N  =    3.200000
Transition Dipole:           No
Gradient of Microstate:      No
CP-REKS Solver:              Preconditioned Conjugate-Gradient
CG max. Iterations:                     100
CG Tolerance:                  0.100000E-07
Memory for A and Hxc:        Direct Updating Without Saving
Non-Adiabatic Coupling:      Yes

--------------------------------------------------------------------------------

***  Geometry step: 0

  iSCC       reks energy        Diff energy         x_a       SCC error   
    1      -16.3949592956       0.0000000000     0.999161    1.20940694
    2      -16.4141723184      -0.0192130228     0.999923    0.04813285
    3      -16.4178962038      -0.0037238854     0.999977    0.01647874
    4      -16.4190850104      -0.0011888066     0.999988    0.00998298
    5      -16.4195575824      -0.0004725719     0.999992    0.00630666
    6      -16.4197683601      -0.0002107777     0.999994    0.00407533
    7      -16.4198715064      -0.0001031464     0.999995    0.00266578
    8      -16.4199272439      -0.0000557375     0.999996    0.00176332
    9      -16.4199610509      -0.0000338070     0.999996    0.00118225
   10      -16.4199842385      -0.0000231876     0.999996    0.00080657
   11      -16.4200019988      -0.0000177603     0.999996    0.00064432
   12      -16.4200167853      -0.0000147865     0.999997    0.00058437
   13      -16.4200297940      -0.0000130088     0.999997    0.00055206
   14      -16.4200416303      -0.0000118362     0.999997    0.00052387
   15      -16.4200526150      -0.0000109847     0.999997    0.00049909
   16      -16.4200629288      -0.0000103138     0.999997    0.00047712
   17      -16.4200726804      -0.0000097517     0.999997    0.00045747
   18      -16.4200819409      -0.0000092605     0.999997    0.00043973
   19      -16.4200907601      -0.0000088192     0.999997    0.00042360
   20      -16.4200991756      -0.0000084156     0.999997    0.00040882
   21      -16.4201072177      -0.0000080420     0.999997    0.00039519
   22      -16.4201149114      -0.0000076937     0.999997    0.00038255
   23      -16.4201222786      -0.0000073672     0.999997    0.00037076
   24      -16.4201293385      -0.0000070599     0.999997    0.00036019
   25      -16.4201361086      -0.0000067700     0.999997    0.00035233
   26      -16.4201426046      -0.0000064960     0.999997    0.00034467
   27      -16.4201488411      -0.0000062365     0.999997    0.00033722
   28      -16.4201548316      -0.0000059905     0.999997    0.00032997
   29      -16.4201605886      -0.0000057570     0.999997    0.00032292
   30      -16.4201661239      -0.0000055353     0.999997    0.00031605
   31      -16.4201714483      -0.0000053245     0.999997    0.00030938
   32      -16.4201765723      -0.0000051240     0.999997    0.00030290
   33      -16.4201815054      -0.0000049331     0.999997    0.00029661
   34      -16.4201862568      -0.0000047514     0.999997    0.00029049
   35      -16.4201908351      -0.0000045782     0.999997    0.00028456
   36      -16.4201952483      -0.0000044132     0.999997    0.00027880
   37      -16.4201995041      -0.0000042558     0.999997    0.00027320
   38      -16.4202036097      -0.0000041056     0.999997    0.00026778
   39      -16.4202075720      -0.0000039623     0.999997    0.00026251
   40      -16.4202113974      -0.0000038254     0.999997    0.00025740
   41      -16.4202150921      -0.0000036947     0.999997    0.00025245
   42      -16.4202186618      -0.0000035697     0.999997    0.00024764
   43      -16.4202221121      -0.0000034503     0.999997    0.00024297
   44      -16.4202254482      -0.0000033361     0.999997    0.00023843
   45      -16.4202286750      -0.0000032268     0.999997    0.00023403
   46      -16.4202317972      -0.0000031222     0.999997    0.00022976
   47      -16.4202348193      -0.0000030221     0.999997    0.00022561
   48      -16.4202377454      -0.0000029262     0.999997    0.00022158
   49      -16.4202405797      -0.0000028343     0.999997    0.00021766
   50      -16.4202433260      -0.0000027462     0.999997    0.00021385
   51      -16.4202459878      -0.0000026618     0.999997    0.00021020
   52      -16.4202485686      -0.0000025808     0.999997    0.00020706
   53      -16.4202510718      -0.0000025032     0.999997    0.00020399
   54      -16.4202535004      -0.0000024286     0.999997    0.00020100
   55      -16.4202558574      -0.0000023570     0.999997    0.00019808
   56      -16.4202581457      -0.0000022883     0.999997    0.00019522
   57      -16.4202603679      -0.0000022223     0.999997    0.00019243
   58      -16.4202625267      -0.0000021588     0.999997    0.00018971
   59      -16.4202646245      -0.0000020978     0.999997    0.00018705
   60      -16.4202666637      -0.0000020391     0.999997    0.00018444
   61      -16.4202686464      -0.0000019827     0.999997    0.00018190
   62      -16.4202705748      -0.0000019284     0.999997    0.00017942
   63      -16.4202724510      -0.0000018762     0.999997    0.00017699
   64      -16.4202742768      -0.0000018259     0.999997    0.00017461
   65      -16.4202760542      -0.0000017774     0.999997    0.00017229
   66      -16.4202777850      -0.0000017307     0.999997    0.00017002
   67      -16.4202794707      -0.0000016858     0.999997    0.00016779
   68      -16.4202811131      -0.0000016424     0.999997    0.00016562
   69      -16.4202827137      -0.0000016006     0.999997    0.00016349
   70      -16.4202842740      -0.0000015603     0.999997    0.00016141
   71      -16.4202857954      -0.0000015214     0.999997    0.00015938
   72      -16.4202872792      -0.0000014838     0.999997    0.00015739
   73      -16.4202887268      -0.0000014476     0.999997    0.00015544
   74      -16.4202901395      -0.0000014126     0.999997    0.00015353
   75      -16.4202915183      -0.0000013789     0.999997    0.00015166
   76      -16.4202928645      -0.0000013462     0.999997    0.00014984
   77      -16.4202941792      -0.0000013147     0.999997    0.00014805
   78      -16.4202954634      -0.0000012842     0.999997    0.00014629
   79      -16.4202967181      -0.0000012547     0.999997    0.00014458
   80      -16.4202979443      -0.0000012262     0.999997    0.00014290
   81      -16.4202991430      -0.0000011987     0.999997    0.00014125
   82      -16.4203003150      -0.0000011720     0.999997    0.00013964
   83      -16.4203014612      -0.0000011462     0.999997    0.00013806
   84      -16.4203025823      -0.0000011212     0.999997    0.00013651
   85      -16.4203036793      -0.0000010970     0.999997    0.00013499
   86      -16.4203047529      -0.0000010736     0.999997    0.00013351
   87      -16.4203058038      -0.0000010509     0.999997    0.00013205
   88      -16.4203068327      -0.0000010289     0.999997    0.00013062
   89      -16.4203078403      -0.0000010076     0.999997    0.00012922
   90      -16.4203088272      -0.0000009869     0.999997    0.00012785
   91      -16.4203097941      -0.0000009669     0.999997    0.00012651
   92      -16.4203107416      -0.0000009475     0.999997    0.00012519
   93      -16.4203116702      -0.0000009286     0.999997    0.00012390
   94      -16.4203125806      -0.0000009104     0.999997    0.00012263
   95      -16.4203134732      -0.0000008926     0.999997    0.00012138
   96      -16.4203143486      -0.0000008754     0.999997    0.00012017
   97      -16.4203152074      -0.0000008587     0.999997    0.00011897
   98      -16.4203160498      -0.0000008425     0.999997    0.00011780
   99      -16.4203168766      -0.0000008267     0.999997    0.00011664
  100      -16.4203176880      -0.0000008114     0.999997    0.00011551
  101      -16.4203184846      -0.0000007966     0.999997    0.00011441
  102      -16.4203192667      -0.0000007821     0.999997    0.00011332
  103      -16.4203200348      -0.0000007681     0.999997    0.00011225
  104      -16.4203207892      -0.0000007544     0.999997    0.00011120
  105      -16.4203215304      -0.0000007412     0.999997    0.00011018
  106      -16.4203222586      -0.0000007283     0.999997    0.00010917
  107      -16.4203229743      -0.0000007157     0.999997    0.00010817
  108      -16.4203236778      -0.0000007035     0.999997    0.00010720
  109      -16.4203243694      -0.0000006916     0.999997    0.00010625
  110      -16.4203250495      -0.0000006800     0.999997    0.00010531
  111      -16.4203257183      -0.0000006688     0.999997    0.00010439
  112      -16.4203263761      -0.0000006578     0.999997    0.00010359
  113      -16.4203270233      -0.0000006472     0.999997    0.00010294
  114      -16.4203276601      -0.0000006368     0.999997    0.00010229
  115      -16.4203282868      -0.0000006267     0.999997    0.00010169
  116      -16.4203289036      -0.0000006168     0.999997    0.00010126
  117      -16.4203295108      -0.0000006072     0.999997    0.00010082
  118      -16.4203301087      -0.0000005979     0.999997    0.00010039
  119      -16.4203306975      -0.0000005888     0.999997    0.00009997
  120      -16.4203312773      -0.0000005799     0.999997    0.00009955
  121      -16.4203318485      -0.0000005712     0.999997    0.00009914
  122      -16.4203324113      -0.0000005628     0.999998    0.00009873
  123      -16.4203329659      -0.0000005545     0.999998    0.00009832
  124      -16.4203335124      -0.0000005465     0.999998    0.00009792
  125      -16.4203340511      -0.0000005387     0.999998    0.00009752
  126      -16.4203345821      -0.0000005310     0.999998    0.00009713
  127      -16.4203351057      -0.0000005236     0.999998    0.00009674
  128      -16.4203356220      -0.0000005163     0.999998    0.00009636
  129      -16.4203361312      -0.0000005092     0.999998    0.00009598
  130      -16.4203366335      -0.0000005023     0.999998    0.00009561
  131      -16.4203371290      -0.0000004955     0.999998    0.00009524
  132      -16.4203376180      -0.0000004889     0.999998    0.00009487
  133      -16.4203381004      -0.0000004825     0.999998    0.00009451
  134      -16.4203385766      -0.0000004762     0.999998    0.00009415
  135      -16.4203390467      -0.0000004700     0.999998    0.00009380
  136      -16.4203395107      -0.0000004640     0.999998    0.00009345
  137      -16.4203399688      -0.0000004582     0.999998    0.00009311
  138      -16.4203404213      -0.0000004524     0.999998    0.00009277
  139      -16.4203408681      -0.0000004468     0.999998    0.00009244
  140      -16.4203413095      -0.0000004414     0.999998    0.00009211
  141      -16.4203417455      -0.0000004360     0.999998    0.00009178
  142      -16.4203421763      -0.0000004308     0.999998    0.00009146
  143      -16.4203426020      -0.0000004257     0.999998    0.00009114
  144      -16.4203430226      -0.0000004207     0.999998    0.00009083
  145      -16.4203434384      -0.0000004158     0.999998    0.00009052
  146      -16.4203438495      -0.0000004110     0.999998    0.00009022
  147      -16.4203442558      -0.0000004064     0.999998    0.00008991
  148      -16.4203446576      -0.0000004018     0.999998    0.00008962
  149      -16.4203450550      -0.0000003973     0.999998    0.00008933
  150      -16.4203454479      -0.0000003930     0.999998    0.00008904
  151      -16.4203458366      -0.0000003887     0.999998    0.00008875
  152      -16.4203462211      -0.0000003845     0.999998    0.00008847
  153      -16.4203466015      -0.0000003804     0.999998    0.00008820
  154      -16.4203469779      -0.0000003764     0.999998    0.00008792
  155      -16.4203473504      -0.0000003725     0.999998    0.00008765
  156      -16.4203477191      -0.0000003687     0.999998    0.00008739
  157      -16.4203480840      -0.0000003649     0.999998    0.00008713
  158      -16.4203484452      -0.0000003612     0.999998    0.00008687
  159      -16.4203488029      -0.0000003576     0.999998    0.00008662
  160      -16.4203491570      -0.0000003541     0.999998    0.00008637
  161      -16.4203495077      -0.0000003507     0.999998    0.00008612
  162      -16.4203498550      -0.0000003473     0.999998    0.00008588
  163      -16.4203501990      -0.0000003440     0.999998    0.00008564
  164      -16.4203505398      -0.0000003408     0.999998    0.00008541
  165      -16.4203508774      -0.0000003376     0.999998    0.00008517
  166      -16.4203512119      -0.0000003345     0.999998    0.00008495
  167      -16.4203515434      -0.0000003315     0.999998    0.00008472
  168      -16.4203518719      -0.0000003285     0.999998    0.00008450
  169      -16.4203521975      -0.0000003256     0.999998    0.00008428
  170      -16.4203525202      -0.0000003227     0.999998    0.00008407
  171      -16.4203528401      -0.0000003199     0.999998    0.00008386
  172      -16.4203531573      -0.0000003172     0.999998    0.00008365
  173      -16.4203534719      -0.0000003145     0.999998    0.00008345
  174      -16.4203537838      -0.0000003119     0.999998    0.00008325
  175      -16.4203540931      -0.0000003093     0.999998    0.00008305
  176      -16.4203543999      -0.0000003068     0.999998    0.00008286
  177      -16.4203547042      -0.0000003043     0.999998    0.00008267
  178      -16.4203550061      -0.0000003019     0.999998    0.00008248
  179      -16.4203553056      -0.0000002995     0.999998    0.00008230
  180      -16.4203556028      -0.0000002972     0.999998    0.00008211
  181      -16.4203558977      -0.0000002949     0.999998    0.00008194
  182      -16.4203561904      -0.0000002927     0.999998    0.00008176
  183      -16.4203564809      -0.0000002905     0.999998    0.00008159
  184      -16.4203567693      -0.0000002884     0.999998    0.00008142
  185      -16.4203570556      -0.0000002863     0.999998    0.00008126
  186      -16.4203573398      -0.0000002842     0.999998    0.00008109
  187      -16.4203576220      -0.0000002822     0.999998    0.00008094
  188      -16.4203579022      -0.0000002802     0.999998    0.00008078
  189      -16.4203581804      -0.0000002783     0.999998    0.00008063
  190      -16.4203584568      -0.0000002764     0.999998    0.00008048
  191      -16.4203587313      -0.0000002745     0.999998    0.00008033
  192      -16.4203590040      -0.0000002727     0.999998    0.00008018
  193      -16.4203592749      -0.0000002709     0.999998    0.00008004
  194      -16.4203595440      -0.0000002691     0.999998    0.00007990
  195      -16.4203598114      -0.0000002674     0.999998    0.00007977
  196      -16.4203600772      -0.0000002657     0.999998    0.00007963
  197      -16.4203603413      -0.0000002641     0.999998    0.00007950
  198      -16.4203606038      -0.0000002625     0.999998    0.00007938
  199      -16.4203608647      -0.0000002609     0.999998    0.00007925
  200      -16.4203611240      -0.0000002593     0.999998    0.00007913
  201      -16.4203613818      -0.0000002578     0.999998    0.00007901
  202      -16.4203616382      -0.0000002563     0.999998    0.00007889
  203      -16.4203618930      -0.0000002549     0.999998    0.00007878
  204      -16.4203621465      -0.0000002534     0.999998    0.00007867
  205      -16.4203623985      -0.0000002520     0.999998    0.00007856
  206      -16.4203626492      -0.0000002507     0.999998    0.00007845
  207      -16.4203628985      -0.0000002493     0.999998    0.00007835
  208      -16.4203631465      -0.0000002480     0.999998    0.00007825
  209      -16.4203633932      -0.0000002467     0.999998    0.00007815
  210      -16.4203636387      -0.0000002455     0.999998    0.00007805
  211      -16.4203638829      -0.0000002442     0.999998    0.00007796
  212      -16.4203641259      -0.0000002430     0.999998    0.00007787
  213      -16.4203643677      -0.0000002418     0.999998    0.00007778
  214      -16.4203646084      -0.0000002407     0.999998    0.00007769
  215      -16.4203648479      -0.0000002395     0.999998    0.00007761
  216      -16.4203650863      -0.0000002384     0.999998    0.00007753
  217      -16.4203653236      -0.0000002373     0.999998    0.00007745
  218      -16.4203655598      -0.0000002362     0.999998    0.00007737
  219      -16.4203657950      -0.0000002352     0.999998    0.00007730
  220      -16.4203660292      -0.0000002342     0.999998    0.00007723
  221      -16.4203662624      -0.0000002332     0.999998    0.00007716
  222      -16.4203664946      -0.0000002322     0.999998    0.00007709
  223      -16.4203667259      -0.0000002312     0.999998    0.00007703
  224      -16.4203669562      -0.0000002303     0.999998    0.00007697
  225      -16.4203671856      -0.0000002294     0.999998    0.00007691
  226      -16.4203674141      -0.0000002285     0.999998    0.00007685
  227      -16.4203676417      -0.0000002276     0.999998    0.00007679
  228      -16.4203678685      -0.0000002268     0.999998    0.00007674
  229      -16.4203680944      -0.0000002259     0.999998    0.00007669
  230      -16.4203683196      -0.0000002251     0.999998    0.00007664
  231      -16.4203685439      -0.0000002243     0.999998    0.00007660
  232      -16.4203687674      -0.0000002236     0.999998    0.00007655
  233      -16.4203689902      -0.0000002228     0.999998    0.00007651
  234      -16.4203692123      -0.0000002221     0.999998    0.00007647
  235      -16.4203694336      -0.0000002213     0.999998    0.00007643
  236      -16.4203696543      -0.0000002206     0.999998    0.00007640
  237      -16.4203698742      -0.0000002199     0.999998    0.00007636
  238      -16.4203700935      -0.0000002193     0.999998    0.00007633
  239      -16.4203703121      -0.0000002186     0.999998    0.00007630
  240      -16.4203705301      -0.0000002180     0.999998    0.00007628
  241      -16.4203707474      -0.0000002174     0.999998    0.00007625
  242      -16.4203709642      -0.0000002168     0.999998    0.00007623
  243      -16.4203711804      -0.0000002162     0.999998    0.00007621
  244      -16.4203713960      -0.0000002156     0.999998    0.00007619
  245      -16.4203716110      -0.0000002150     0.999998    0.00007618
  246      -16.4203718255      -0.0000002145     0.999998    0.00007616
  247      -16.4203720395      -0.0000002140     0.999998    0.00007615
  248      -16.4203722530      -0.0000002135     0.999998    0.00007614
  249      -16.4203724659      -0.0000002130     0.999998    0.00007613
  250      -16.4203726784      -0.0000002125     0.999998    0.00007613
  251      -16.4203728905      -0.0000002120     0.999998    0.00007612
  252      -16.4203731021      -0.0000002116     0.999998    0.00007612
  253      -16.4203733132      -0.0000002111     0.999998    0.00007612
  254      -16.4203735239      -0.0000002107     0.999998    0.00007612
  255      -16.4203737342      -0.0000002103     0.999998    0.00007613
  256      -16.4203739442      -0.0000002099     0.999998    0.00007613
  257      -16.4203741537      -0.0000002095     0.999998    0.00007614
  258      -16.4203743629      -0.0000002092     0.999998    0.00007615
  259      -16.4203745717      -0.0000002088     0.999998    0.00007616
  260      -16.4203747802      -0.0000002085     0.999998    0.00007618
  261      -16.4203749884      -0.0000002082     0.999998    0.00007619
  262      -16.4203751962      -0.0000002078     0.999998    0.00007621
  263      -16.4203754037      -0.0000002075     0.999998    0.00007623
  264      -16.4203756110      -0.0000002073     0.999998    0.00007625
  265      -16.4203758180      -0.0000002070     0.999998    0.00007627
  266      -16.4203760247      -0.0000002067     0.999998    0.00007630
  267      -16.4203762312      -0.0000002065     0.999998    0.00007633
  268      -16.4203764374      -0.0000002062     0.999998    0.00007636
  269      -16.4203766434      -0.0000002060     0.999998    0.00007639
  270      -16.4203768492      -0.0000002058     0.999998    0.00007642
  271      -16.4203770548      -0.0000002056     0.999998    0.00007645
  272      -16.4203772602      -0.0000002054     0.999998    0.00007649
  273      -16.4203774655      -0.0000002052     0.999998    0.00007653
  274      -16.4203776705      -0.0000002051     0.999998    0.00007657
  275      -16.4203778754      -0.0000002049     0.999998    0.00007661
  276      -16.4203780802      -0.0000002048     0.999998    0.00007666
  277      -16.4203782849      -0.0000002046     0.999998    0.00007670
  278      -16.4203784894      -0.0000002045     0.999998    0.00007675
  279      -16.4203786938      -0.0000002044     0.999998    0.00007680
  280      -16.4203788981      -0.0000002043     0.999998    0.00007685
  281      -16.4203791024      -0.0000002042     0.999998    0.00007691
  282      -16.4203793065      -0.0000002042     0.999998    0.00007696
  283      -16.4203795106      -0.0000002041     0.999998    0.00007702
  284      -16.4203797147      -0.0000002040     0.999998    0.00007708
  285      -16.4203799187      -0.0000002040     0.999998    0.00007714
  286      -16.4203801226      -0.0000002040     0.999998    0.00007720
  287      -16.4203803266      -0.0000002040     0.999998    0.00007726
  288      -16.4203805305      -0.0000002039     0.999998    0.00007733
  289      -16.4203807345      -0.0000002040     0.999998    0.00007740
  290      -16.4203809385      -0.0000002040     0.999998    0.00007747
  291      -16.4203811424      -0.0000002040     0.999998    0.00007754
  292      -16.4203813465      -0.0000002040     0.999998    0.00007761
  293      -16.4203815505      -0.0000002041     0.999998    0.00007769
  294      -16.4203817547      -0.0000002041     0.999998    0.00007776
  295      -16.4203819588      -0.0000002042     0.999998    0.00007784
  296      -16.4203821631      -0.0000002043     0.999998    0.00007792
  297      -16.4203823674      -0.0000002043     0.999998    0.00007800
  298      -16.4203825719      -0.0000002044     0.999998    0.00007809
  299      -16.4203827764      -0.0000002045     0.999998    0.00007817
  300      -16.4203829811      -0.0000002047     0.999998    0.00007826
  301      -16.4203831859      -0.0000002048     0.999998    0.00007835
  302      -16.4203833908      -0.0000002049     0.999998    0.00007844
  303      -16.4203835959      -0.0000002051     0.999998    0.00007853
  304      -16.4203838011      -0.0000002052     0.999998    0.00007863
  305      -16.4203840065      -0.0000002054     0.999998    0.00007872
  306      -16.4203842121      -0.0000002056     0.999998    0.00007882
  307      -16.4203844178      -0.0000002058     0.999998    0.00007892
  308      -16.4203846238      -0.0000002059     0.999998    0.00007902
  309      -16.4203848299      -0.0000002062     0.999998    0.00007912
  310      -16.4203850363      -0.0000002064     0.999998    0.00007923
  311      -16.4203852429      -0.0000002066     0.999998    0.00007934
  312      -16.4203854497      -0.0000002068     0.999998    0.00007944
  313      -16.4203856568      -0.0000002071     0.999998    0.00007955
  314      -16.4203858641      -0.0000002073     0.999998    0.00007966
  315      -16.4203860717      -0.0000002076     0.999998    0.00007978
  316      -16.4203862795      -0.0000002079     0.999998    0.00007989
  317      -16.4203864877      -0.0000002081     0.999998    0.00008001
  318      -16.4203866961      -0.0000002084     0.999998    0.00008013
  319      -16.4203869049      -0.0000002087     0.999998    0.00008025
  320      -16.4203871139      -0.0000002090     0.999998    0.00008037
  321      -16.4203873233      -0.0000002094     0.999998    0.00008049
  322      -16.4203875330      -0.0000002097     0.999998    0.00008062
  323      -16.4203877430      -0.0000002100     0.999998    0.00008074
  324      -16.4203879534      -0.0000002104     0.999998    0.00008087
  325      -16.4203881641      -0.0000002107     0.999998    0.00008100
  326      -16.4203883752      -0.0000002111     0.999998    0.00008113
  327      -16.4203885867      -0.0000002115     0.999998    0.00008127
  328      -16.4203887986      -0.0000002119     0.999998    0.00008140
  329      -16.4203890108      -0.0000002123     0.999998    0.00008154
  330      -16.4203892235      -0.0000002127     0.999998    0.00008168
  331      -16.4203894366      -0.0000002131     0.999998    0.00008182
  332      -16.4203896501      -0.0000002135     0.999998    0.00008196
  333      -16.4203898640      -0.0000002139     0.999998    0.00008210
  334      -16.4203900784      -0.0000002144     0.999998    0.00008225
  335      -16.4203902933      -0.0000002148     0.999998    0.00008239
  336      -16.4203905086      -0.0000002153     0.999998    0.00008254
  337      -16.4203907243      -0.0000002158     0.999998    0.00008269
  338      -16.4203909406      -0.0000002162     0.999998    0.00008284
  339      -16.4203911573      -0.0000002167     0.999998    0.00008299
  340      -16.4203913745      -0.0000002172     0.999998    0.00008315
  341      -16.4203915923      -0.0000002177     0.999998    0.00008331
  342      -16.4203918105      -0.0000002183     0.999998    0.00008346
  343      -16.4203920293      -0.0000002188     0.999998    0.00008362
  344      -16.4203922486      -0.0000002193     0.999998    0.00008378
  345      -16.4203924684      -0.0000002199     0.999998    0.00008395
  346      -16.4203926888      -0.0000002204     0.999998    0.00008411
  347      -16.4203929098      -0.0000002210     0.999998    0.00008428
  348      -16.4203931314      -0.0000002215     0.999998    0.00008444
  349      -16.4203933535      -0.0000002221     0.999998    0.00008461
  350      -16.4203935762      -0.0000002227     0.999998    0.00008478
  351      -16.4203937995      -0.0000002233     0.999998    0.00008496
  352      -16.4203940234      -0.0000002239     0.999999    0.00008513
  353      -16.4203942479      -0.0000002245     0.999999    0.00008531
  354      -16.4203944731      -0.0000002252     0.999999    0.00008548
  355      -16.4203946989      -0.0000002258     0.999999    0.00008566
  356      -16.4203949253      -0.0000002264     0.999999    0.00008584
  357      -16.4203951524      -0.0000002271     0.999999    0.00008602
  358      -16.4203953802      -0.0000002278     0.999999    0.00008621
  359      -16.4203956086      -0.0000002284     0.999999    0.00008639
  360      -16.4203958377      -0.0000002291     0.999999    0.00008658
  361      -16.4203960675      -0.0000002298     0.999999    0.00008676
  362      -16.4203962980      -0.0000002305     0.999999    0.00008695
  363      -16.4203965292      -0.0000002312     0.999999    0.00008714
  364      -16.4203967611      -0.0000002319     0.999999    0.00008734
  365      -16.4203969937      -0.0000002326     0.999999    0.00008753
  366      -16.4203972271      -0.0000002334     0.999999    0.00008772
  367      -16.4203974612      -0.0000002341     0.999999    0.00008792
  368      -16.4203976961      -0.0000002349     0.999999    0.00008812
  369      -16.4203979317      -0.0000002356     0.999999    0.00008832
  370      -16.4203981681      -0.0000002364     0.999999    0.00008852
  371      -16.4203984053      -0.0000002372     0.999999    0.00008872
  372      -16.4203986433      -0.0000002380     0.999999    0.00008893
  373      -16.4203988821      -0.0000002388     0.999999    0.00008913
  374      -16.4203991217      -0.0000002396     0.999999    0.00008934
  375      -16.4203993621      -0.0000002404     0.999999    0.00008955
  376      -16.4203996033      -0.0000002412     0.999999    0.00008976
  377      -16.4203998454      -0.0000002421     0.999999    0.00008997
  378      -16.4204000883      -0.0000002429     0.999999    0.00009018
  379      -16.4204003320      -0.0000002438     0.999999    0.00009040
  380      -16.4204005766      -0.0000002446     0.999999    0.00009061
  381      -16.4204008221      -0.0000002455     0.999999    0.00009083
  382      -16.4204010685      -0.0000002464     0.999999    0.00009105
  383      -16.4204013157      -0.0000002472     0.999999    0.00009126
  384      -16.4204015639      -0.0000002481     0.999999    0.00009149
  385      -16.4204018129      -0.0000002491     0.999999    0.00009171
  386      -16.4204020629      -0.0000002500     0.999999    0.00009193
  387      -16.4204023138      -0.0000002509     0.999999    0.00009216
  388      -16.4204025656      -0.0000002518     0.999999    0.00009238
  389      -16.4204028183      -0.0000002528     0.999999    0.00009261
  390      -16.4204030720      -0.0000002537     0.999999    0.00009284
  391      -16.4204033267      -0.0000002547     0.999999    0.00009307
  392      -16.4204035823      -0.0000002556     0.999999    0.00009330
  393      -16.4204038389      -0.0000002566     0.999999    0.00009353
  394      -16.4204040965      -0.0000002576     0.999999    0.00009376
  395      -16.4204043551      -0.0000002586     0.999999    0.00009400
  396      -16.4204046147      -0.0000002596     0.999999    0.00009423
  397      -16.4204048752      -0.0000002606     0.999999    0.00009447
  398      -16.4204051368      -0.0000002616     0.999999    0.00009471
  399      -16.4204053995      -0.0000002626     0.999999    0.00009495
  400      -16.4204056631      -0.0000002637     0.999999    0.00009519
  401      -16.4204059278      -0.0000002647     0.999999    0.00009543
  402      -16.4204061936      -0.0000002657     0.999999    0.00009567
  403      -16.4204064604      -0.0000002668     0.999999    0.00009592
  404      -16.4204067282      -0.0000002679     0.999999    0.00009616
  405      -16.4204069972      -0.0000002689     0.999999    0.00009641
  406      -16.4204072672      -0.0000002700     0.999999    0.00009666
  407      -16.4204075383      -0.0000002711     0.999999    0.00009690
  408      -16.4204078105      -0.0000002722     0.999999    0.00009715
  409      -16.4204080838      -0.0000002733     0.999999    0.00009740
  410      -16.4204083583      -0.0000002744     0.999999    0.00009765
  411      -16.4204086338      -0.0000002755     0.999999    0.00009791
  412      -16.4204089105      -0.0000002767     0.999999    0.00009816
  413      -16.4204091883      -0.0000002778     0.999999    0.00009841
  414      -16.4204094672      -0.0000002789     0.999999    0.00009867
  415      -16.4204097473      -0.0000002801     0.999999    0.00009892
  416      -16.4204100286      -0.0000002813     0.999999    0.00009918
  417      -16.4204103110      -0.0000002824     0.999999    0.00009944
  418      -16.4204105946      -0.0000002836     0.999999    0.00009969
  419      -16.4204108794      -0.0000002848     0.999999    0.00009995
  420      -16.4204111653      -0.0000002860     0.999999    0.00010021
  421      -16.4204114525      -0.0000002871     0.999999    0.00010047
  422      -16.4204117408      -0.0000002883     0.999999    0.00010073
  423      -16.4204120304      -0.0000002895     0.999999    0.00010099
  424      -16.4204123211      -0.0000002908     0.999999    0.00010126
  425      -16.4204126131      -0.0000002920     0.999999    0.00010152
  426      -16.4204129063      -0.0000002932     0.999999    0.00010178
  427      -16.4204132007      -0.0000002944     0.999999    0.00010205
  428      -16.4204134964      -0.0000002957     0.999999    0.00010231
  429      -16.4204137933      -0.0000002969     0.999999    0.00010258
  430      -16.4204140915      -0.0000002982     0.999999    0.00010284
  431      -16.4204143909      -0.0000002994     0.999999    0.00010311
  432      -16.4204146916      -0.0000003007     0.999999    0.00010337
  433      -16.4204149935      -0.0000003019     0.999999    0.00010364
  434      -16.4204152967      -0.0000003032     0.999999    0.00010391
  435      -16.4204156012      -0.0000003045     0.999999    0.00010417
  436      -16.4204159069      -0.0000003058     0.999999    0.00010444
  437      -16.4204162140      -0.0000003070     0.999999    0.00010471
  438      -16.4204165223      -0.0000003083     0.999999    0.00010498
  439      -16.4204168319      -0.0000003096     0.999999    0.00010525
  440      -16.4204171428      -0.0000003109     0.999999    0.00010551
  441      -16.4204174551      -0.0000003122     0.999999    0.00010578
  442      -16.4204177686      -0.0000003135     0.999999    0.00010605
  443      -16.4204180834      -0.0000003148     0.999999    0.00010632
  444      -16.4204183996      -0.0000003161     0.999999    0.00010659
  445      -16.4204187170      -0.0000003175     0.999999    0.00010686
  446      -16.4204190358      -0.0000003188     0.999999    0.00010713
  447      -16.4204193559      -0.0000003201     0.999999    0.00010740
  448      -16.4204196773      -0.0000003214     0.999999    0.00010767
  449      -16.4204200001      -0.0000003228     0.999999    0.00010793
  450      -16.4204203242      -0.0000003241     0.999999    0.00010820
  451      -16.4204206496      -0.0000003254     0.999999    0.00010847
  452      -16.4204209763      -0.0000003268     0.999999    0.00010874
  453      -16.4204213044      -0.0000003281     0.999999    0.00010901
  454      -16.4204216339      -0.0000003294     0.999999    0.00010927
  455      -16.4204219646      -0.0000003308     0.999999    0.00010954
  456      -16.4204222967      -0.0000003321     0.999999    0.00010981
  457      -16.4204226302      -0.0000003334     0.999999    0.00011007
  458      -16.4204229649      -0.0000003348     0.999999    0.00011034
  459      -16.4204233011      -0.0000003361     0.999999    0.00011060
  460      -16.4204236385      -0.0000003375     0.999999    0.00011086
  461      -16.4204239773      -0.0000003388     0.999999    0.00011113
  462      -16.4204243175      -0.0000003401     0.999999    0.00011139
  463      -16.4204246589      -0.0000003415     0.999999    0.00011165
  464      -16.4204250017      -0.0000003428     0.999999    0.00011191
  465      -16.4204253459      -0.0000003442     0.999999    0.00011217
  466      -16.4204256914      -0.0000003455     0.999999    0.00011243
  467      -16.4204260382      -0.0000003468     0.999999    0.00011269
  468      -16.4204263863      -0.0000003481     0.999999    0.00011295
  469      -16.4204267358      -0.0000003495     0.999999    0.00011320
  470      -16.4204270866      -0.0000003508     0.999999    0.00011346
  471      -16.4204274387      -0.0000003521     0.999999    0.00011371
  472      -16.4204277922      -0.0000003534     0.999999    0.00011397
  473      -16.4204281469      -0.0000003548     0.999999    0.00011422
  474      -16.4204285030      -0.0000003561     0.999999    0.00011447
  475      -16.4204288604      -0.0000003574     0.999999    0.00011471
  476      -16.4204292190      -0.0000003587     0.999999    0.00011496
  477      -16.4204295790      -0.0000003600     0.999999    0.00011521
  478      -16.4204299403      -0.0000003613     0.999999    0.00011545
  479      -16.4204303028      -0.0000003625     0.999999    0.00011569
  480      -16.4204306666      -0.0000003638     0.999999    0.00011593
  481      -16.4204310317      -0.0000003651     0.999999    0.00011617
  482      -16.4204313980      -0.0000003663     0.999999    0.00011641
  483      -16.4204317657      -0.0000003676     0.999999    0.00011665
  484      -16.4204321345      -0.0000003689     0.999999    0.00011688
  485      -16.4204325046      -0.0000003701     0.999999    0.00011711
  486      -16.4204328759      -0.0000003713     0.999999    0.00011734
  487      -16.4204332485      -0.0000003725     0.999999    0.00011757
  488      -16.4204336222      -0.0000003738     0.999999    0.00011779
  489      -16.4204339972      -0.0000003750     0.999999    0.00011802
  490      -16.4204343734      -0.0000003762     0.999999    0.00011824
  491      -16.4204347507      -0.0000003773     0.999999    0.00011846
  492      -16.4204351292      -0.0000003785     0.999999    0.00011867
  493      -16.4204355089      -0.0000003797     0.999999    0.00011889
  494      -16.4204358897      -0.0000003808     0.999999    0.00011910
  495      -16.4204362717      -0.0000003820     0.999999    0.00011931
  496      -16.4204366548      -0.0000003831     0.999999    0.00011951
  497      -16.4204370390      -0.0000003842     0.999999    0.00011972
  498      -16.4204374243      -0.0000003853     0.999999    0.00011992
  499      -16.4204378106      -0.0000003864     0.999999    0.00012011
  500      -16.4204381981      -0.0000003874     0.999999    0.00012031
  501      -16.4204385866      -0.0000003885     0.999999    0.00012050
  502      -16.4204389761      -0.0000003895     0.999999    0.00012069
  503      -16.4204393667      -0.0000003906     0.999999    0.00012087
  504      -16.4204397582      -0.0000003916     0.999999    0.00012106
  505      -16.4204401508      -0.0000003926     0.999999    0.00012124
  506      -16.4204405443      -0.0000003935     0.999999    0.00012141
  507      -16.4204409388      -0.0000003945     0.999999    0.00012158
  508      -16.4204413343      -0.0000003954     0.999999    0.00012175
  509      -16.4204417306      -0.0000003963     0.999999    0.00012192
  510      -16.4204421279      -0.0000003972     0.999999    0.00012208
  511      -16.4204425260      -0.0000003981     0.999999    0.00012224
  512      -16.4204429250      -0.0000003990     0.999999    0.00012239
  513      -16.4204433248      -0.0000003998     0.999999    0.00012254
  514      -16.4204437255      -0.0000004007     0.999999    0.00012269
  515      -16.4204441269      -0.0000004015     0.999999    0.00012284
  516      -16.4204445291      -0.0000004022     0.999999    0.00012297
  517      -16.4204449321      -0.0000004030     0.999999    0.00012311
  518      -16.4204453359      -0.0000004037     0.999999    0.00012324
  519      -16.4204457403      -0.0000004044     0.999999    0.00012337
  520      -16.4204461454      -0.0000004051     0.999999    0.00012349
  521      -16.4204465512      -0.0000004058     0.999999    0.00012361
  522      -16.4204469576      -0.0000004064     0.999999    0.00012372
  523      -16.4204473646      -0.0000004070     0.999999    0.00012383
  524      -16.4204477723      -0.0000004076     0.999999    0.00012394
  525      -16.4204481804      -0.0000004082     0.999999    0.00012404
  526      -16.4204485892      -0.0000004087     0.999999    0.00012414
  527      -16.4204489984      -0.0000004092     0.999999    0.00012423
  528      -16.4204494081      -0.0000004097     0.999999    0.00012431
  529      -16.4204498183      -0.0000004102     0.999999    0.00012440
  530      -16.4204502289      -0.0000004106     0.999999    0.00012447
  531      -16.4204506399      -0.0000004110     0.999999    0.00012455
  532      -16.4204510513      -0.0000004114     0.999999    0.00012461
  533      -16.4204514630      -0.0000004117     0.999999    0.00012467
  534      -16.4204518750      -0.0000004120     0.999999    0.00012473
  535      -16.4204522873      -0.0000004123     0.999999    0.00012478
  536      -16.4204526999      -0.0000004126     0.999999    0.00012483
  537      -16.4204531127      -0.0000004128     0.999999    0.00012487
  538      -16.4204535257      -0.0000004130     0.999999    0.00012491
  539      -16.4204539388      -0.0000004131     0.999999    0.00012494
  540      -16.4204543521      -0.0000004133     0.999999    0.00012497
  541      -16.4204547654      -0.0000004134     0.999999    0.00012499
  542      -16.4204551789      -0.0000004134     0.999999    0.00012500
  543      -16.4204555923      -0.0000004135     0.999999    0.00012501
  544      -16.4204560058      -0.0000004135     0.999999    0.00012501
  545      -16.4204564192      -0.0000004134     0.999999    0.00012501
  546      -16.4204568326      -0.0000004134     0.999999    0.00012500
  547      -16.4204572459      -0.0000004133     0.999999    0.00012499
  548      -16.4204576590      -0.0000004131     0.999999    0.00012497
  549      -16.4204580719      -0.0000004130     0.999999    0.00012494
  550      -16.4204584847      -0.0000004127     0.999999    0.00012491
  551      -16.4204588972      -0.0000004125     0.999999    0.00012487
  552      -16.4204593094      -0.0000004122     0.999999    0.00012483
  553      -16.4204597213      -0.0000004119     0.999999    0.00012478
  554      -16.4204601329      -0.0000004116     0.999999    0.00012473
  555      -16.4204605441      -0.0000004112     0.999999    0.00012467
  556      -16.4204609549      -0.0000004108     0.999999    0.00012460
  557      -16.4204613652      -0.0000004103     0.999999    0.00012452
  558      -16.4204617750      -0.0000004098     0.999999    0.00012445
  559      -16.4204621843      -0.0000004093     0.999999    0.00012436
  560      -16.4204625931      -0.0000004087     0.999999    0.00012427
  561      -16.4204630012      -0.0000004081     0.999999    0.00012417
  562      -16.4204634087      -0.0000004075     0.999999    0.00012406
  563      -16.4204638156      -0.0000004068     0.999999    0.00012395
  564      -16.4204642217      -0.0000004061     0.999999    0.00012384
  565      -16.4204646271      -0.0000004054     0.999999    0.00012371
  566      -16.4204650317      -0.0000004046     0.999999    0.00012358
  567      -16.4204654354      -0.0000004038     0.999999    0.00012345
  568      -16.4204658383      -0.0000004029     0.999999    0.00012330
  569      -16.4204662403      -0.0000004020     0.999999    0.00012315
  570      -16.4204666414      -0.0000004011     0.999999    0.00012300
  571      -16.4204670415      -0.0000004001     0.999999    0.00012284
  572      -16.4204674406      -0.0000003991     0.999999    0.00012267
  573      -16.4204678387      -0.0000003981     0.999999    0.00012249
  574      -16.4204682357      -0.0000003970     0.999999    0.00012231
  575      -16.4204686315      -0.0000003959     0.999999    0.00012212
  576      -16.4204690262      -0.0000003947     0.999999    0.00012193
  577      -16.4204694197      -0.0000003935     0.999999    0.00012173
  578      -16.4204698120      -0.0000003923     0.999999    0.00012152
  579      -16.4204702030      -0.0000003910     0.999999    0.00012131
  580      -16.4204705927      -0.0000003897     0.999999    0.00012109
  581      -16.4204709811      -0.0000003884     0.999999    0.00012086
  582      -16.4204713681      -0.0000003870     0.999999    0.00012063
  583      -16.4204717537      -0.0000003856     0.999999    0.00012039
  584      -16.4204721379      -0.0000003842     0.999999    0.00012014
  585      -16.4204725206      -0.0000003827     0.999999    0.00011989
  586      -16.4204729018      -0.0000003812     0.999999    0.00011963
  587      -16.4204732814      -0.0000003796     0.999999    0.00011937
  588      -16.4204736594      -0.0000003780     0.999999    0.00011910
  589      -16.4204740359      -0.0000003764     0.999999    0.00011882
  590      -16.4204744107      -0.0000003748     0.999999    0.00011854
  591      -16.4204747838      -0.0000003731     0.999999    0.00011825
  592      -16.4204751551      -0.0000003714     0.999999    0.00011795
  593      -16.4204755248      -0.0000003696     0.999999    0.00011765
  594      -16.4204758927      -0.0000003679     0.999999    0.00011734
  595      -16.4204762587      -0.0000003661     0.999999    0.00011703
  596      -16.4204766229      -0.0000003642     0.999999    0.00011671
  597      -16.4204769853      -0.0000003623     0.999999    0.00011638
  598      -16.4204773457      -0.0000003604     0.999999    0.00011605
  599      -16.4204777043      -0.0000003585     0.999999    0.00011571
  600      -16.4204780608      -0.0000003566     0.999999    0.00011537
  601      -16.4204784154      -0.0000003546     0.999999    0.00011502
  602      -16.4204787679      -0.0000003526     0.999999    0.00011466
  603      -16.4204791185      -0.0000003505     0.999999    0.00011430
  604      -16.4204794669      -0.0000003484     0.999999    0.00011393
  605      -16.4204798132      -0.0000003463     0.999999    0.00011356
  606      -16.4204801575      -0.0000003442     0.999999    0.00011318
  607      -16.4204804995      -0.0000003421     0.999999    0.00011280
  608      -16.4204808394      -0.0000003399     0.999999    0.00011241
  609      -16.4204811771      -0.0000003377     0.999999    0.00011201
  610      -16.4204815126      -0.0000003355     0.999999    0.00011161
  611      -16.4204818458      -0.0000003332     0.999999    0.00011121
  612      -16.4204821768      -0.0000003310     0.999999    0.00011080
  613      -16.4204825054      -0.0000003287     0.999999    0.00011038
  614      -16.4204828318      -0.0000003264     0.999999    0.00010996
  615      -16.4204831558      -0.0000003240     0.999999    0.00010954
  616      -16.4204834775      -0.0000003217     0.999999    0.00010910
  617      -16.4204837968      -0.0000003193     0.999999    0.00010867
  618      -16.4204841137      -0.0000003169     0.999999    0.00010823
  619      -16.4204844282      -0.0000003145     0.999999    0.00010778
  620      -16.4204847403      -0.0000003121     0.999999    0.00010733
  621      -16.4204850499      -0.0000003096     0.999999    0.00010688
  622      -16.4204853571      -0.0000003072     0.999999    0.00010642
  623      -16.4204856618      -0.0000003047     0.999999    0.00010596
  624      -16.4204859640      -0.0000003022     0.999999    0.00010549
  625      -16.4204862637      -0.0000002997     0.999999    0.00010502
  626      -16.4204865609      -0.0000002972     0.999999    0.00010454
  627      -16.4204868555      -0.0000002947     0.999999    0.00010406
  628      -16.4204871477      -0.0000002921     0.999999    0.00010358
  629      -16.4204874372      -0.0000002896     0.999999    0.00010309
  630      -16.4204877243      -0.0000002870     0.999999    0.00010260
  631      -16.4204880087      -0.0000002844     0.999999    0.00010210
  632      -16.4204882906      -0.0000002819     0.999999    0.00010161
  633      -16.4204885698      -0.0000002793     0.999999    0.00010110
  634      -16.4204888465      -0.0000002767     0.999999    0.00010060
  635      -16.4204891206      -0.0000002741     0.999999    0.00010009
  636      -16.4204893920      -0.0000002715     0.999999    0.00009958
  637      -16.4204896609      -0.0000002688     0.999999    0.00009906
  638      -16.4204899271      -0.0000002662     0.999999    0.00009854
  639      -16.4204901907      -0.0000002636     0.999999    0.00009802
  640      -16.4204904517      -0.0000002610     0.999999    0.00009749
  641      -16.4204907100      -0.0000002583     0.999999    0.00009697
  642      -16.4204909657      -0.0000002557     0.999999    0.00009643
  643      -16.4204912188      -0.0000002531     0.999999    0.00009590
  644      -16.4204914692      -0.0000002504     0.999999    0.00009537
  645      -16.4204917170      -0.0000002478     0.999999    0.00009483
  646      -16.4204919622      -0.0000002452     0.999999    0.00009429
  647      -16.4204922047      -0.0000002425     0.999999    0.00009374
  648      -16.4204924446      -0.0000002399     0.999999    0.00009320
  649      -16.4204926819      -0.0000002373     0.999999    0.00009265
  650      -16.4204929165      -0.0000002346     0.999999    0.00009210
  651      -16.4204931485      -0.0000002320     0.999999    0.00009155
  652      -16.4204933779      -0.0000002294     0.999999    0.00009100
  653      -16.4204936047      -0.0000002268     0.999999    0.00009044
  654      -16.4204938288      -0.0000002242     0.999999    0.00008989
  655      -16.4204940504      -0.0000002216     0.999999    0.00008933
  656      -16.4204942694      -0.0000002190     0.999999    0.00008877
  657      -16.4204944857      -0.0000002164     0.999999    0.00008821
  658      -16.4204946995      -0.0000002138     0.999999    0.00008765
  659      -16.4204949107      -0.0000002112     0.999999    0.00008709
  660      -16.4204951194      -0.0000002086     0.999999    0.00008652
  661      -16.4204953255      -0.0000002061     0.999999    0.00008596
  662      -16.4204955290      -0.0000002035     0.999999    0.00008539
  663      -16.4204957300      -0.0000002010     0.999999    0.00008482
  664      -16.4204959285      -0.0000001985     0.999999    0.00008426
  665      -16.4204961244      -0.0000001960     0.999999    0.00008369
  666      -16.4204963179      -0.0000001935     0.999999    0.00008312
  667      -16.4204965089      -0.0000001910     0.999999    0.00008255
  668      -16.4204966973      -0.0000001885     0.999999    0.00008198
  669      -16.4204968834      -0.0000001860     0.999999    0.00008141
  670      -16.4204970669      -0.0000001836     0.999999    0.00008084
  671      -16.4204972480      -0.0000001811     0.999999    0.00008027
  672      -16.4204974267      -0.0000001787     0.999999    0.00007970
  673      -16.4204976030      -0.0000001763     0.999999    0.00007913
  674      -16.4204977769      -0.0000001739     0.999999    0.00007856
  675      -16.4204979484      -0.0000001715     0.999999    0.00007799
  676      -16.4204981176      -0.0000001691     0.999999    0.00007742
  677      -16.4204982844      -0.0000001668     0.999999    0.00007685
  678      -16.4204984488      -0.0000001645     0.999999    0.00007628
  679      -16.4204986110      -0.0000001621     0.999999    0.00007571
  680      -16.4204987708      -0.0000001598     0.999999    0.00007514
  681      -16.4204989284      -0.0000001576     0.999999    0.00007457
  682      -16.4204990837      -0.0000001553     0.999999    0.00007401
  683      -16.4204992367      -0.0000001531     0.999999    0.00007344
  684      -16.4204993875      -0.0000001508     1.000000    0.00007288
  685      -16.4204995362      -0.0000001486     1.000000    0.00007231
  686      -16.4204996826      -0.0000001464     1.000000    0.00007175
  687      -16.4204998268      -0.0000001442     1.000000    0.00007119
  688      -16.4204999689      -0.0000001421     1.000000    0.00007063
  689      -16.4205001089      -0.0000001400     1.000000    0.00007007
  690      -16.4205002467      -0.0000001378     1.000000    0.00006951
  691      -16.4205003824      -0.0000001357     1.000000    0.00006895
  692      -16.4205005161      -0.0000001337     1.000000    0.00006839
  693      -16.4205006477      -0.0000001316     1.000000    0.00006784
  694      -16.4205007773      -0.0000001296     1.000000    0.00006729
  695      -16.4205009048      -0.0000001275     1.000000    0.00006674
  696      -16.4205010304      -0.0000001256     1.000000    0.00006619
  697      -16.4205011539      -0.0000001236     1.000000    0.00006564
  698      -16.4205012756      -0.0000001216     1.000000    0.00006509
  699      -16.4205013952      -0.0000001197     1.000000    0.00006455
  700      -16.4205015130      -0.0000001178     1.000000    0.00006400
  701      -16.4205016289      -0.0000001159     1.000000    0.00006346
  702      -16.4205017429      -0.0000001140     1.000000    0.00006292
  703      -16.4205018550      -0.0000001121     1.000000    0.00006239
  704      -16.4205019653      -0.0000001103     1.000000    0.00006185
  705      -16.4205020738      -0.0000001085     1.000000    0.00006132
  706      -16.4205021805      -0.0000001067     1.000000    0.00006079
  707      -16.4205022854      -0.0000001049     1.000000    0.00006026
  708      -16.4205023886      -0.0000001032     1.000000    0.00005973
  709      -16.4205024900      -0.0000001014     1.000000    0.00005921
  710      -16.4205025898      -0.0000000997     1.000000    0.00005869
  711      -16.4205026878      -0.0000000981     1.000000    0.00005817
  712      -16.4205027842      -0.0000000964     1.000000    0.00005765
  713      -16.4205028790      -0.0000000947     1.000000    0.00005713
  714      -16.4205029721      -0.0000000931     1.000000    0.00005662
  715      -16.4205030636      -0.0000000915     1.000000    0.00005611
  716      -16.4205031535      -0.0000000899     1.000000    0.00005560
  717      -16.4205032419      -0.0000000884     1.000000    0.00005510
  718      -16.4205033287      -0.0000000868     1.000000    0.00005460
  719      -16.4205034140      -0.0000000853     1.000000    0.00005410
  720      -16.4205034978      -0.0000000838     1.000000    0.00005360
  721      -16.4205035801      -0.0000000823     1.000000    0.00005310
  722      -16.4205036609      -0.0000000808     1.000000    0.00005261
  723      -16.4205037403      -0.0000000794     1.000000    0.00005212
  724      -16.4205038183      -0.0000000780     1.000000    0.00005164
  725      -16.4205038949      -0.0000000766     1.000000    0.00005115
  726      -16.4205039701      -0.0000000752     1.000000    0.00005067
  727      -16.4205040439      -0.0000000738     1.000000    0.00005019
  728      -16.4205041164      -0.0000000725     1.000000    0.00004972
  729      -16.4205041876      -0.0000000712     1.000000    0.00004925
  730      -16.4205042575      -0.0000000699     1.000000    0.00004878
  731      -16.4205043261      -0.0000000686     1.000000    0.00004831
  732      -16.4205043934      -0.0000000673     1.000000    0.00004785
  733      -16.4205044594      -0.0000000661     1.000000    0.00004739
  734      -16.4205045243      -0.0000000648     1.000000    0.00004693
  735      -16.4205045879      -0.0000000636     1.000000    0.00004647
  736      -16.4205046503      -0.0000000624     1.000000    0.00004602
  737      -16.4205047116      -0.0000000613     1.000000    0.00004557
  738      -16.4205047717      -0.0000000601     1.000000    0.00004513
  739      -16.4205048307      -0.0000000590     1.000000    0.00004468
  740      -16.4205048885      -0.0000000579     1.000000    0.00004424
  741      -16.4205049453      -0.0000000567     1.000000    0.00004381
  742      -16.4205050009      -0.0000000557     1.000000    0.00004337
  743      -16.4205050555      -0.0000000546     1.000000    0.00004294
  744      -16.4205051091      -0.0000000535     1.000000    0.00004251
  745      -16.4205051616      -0.0000000525     1.000000    0.00004209
  746      -16.4205052131      -0.0000000515     1.000000    0.00004167
  747      -16.4205052636      -0.0000000505     1.000000    0.00004125
  748      -16.4205053131      -0.0000000495     1.000000    0.00004083
  749      -16.4205053616      -0.0000000485     1.000000    0.00004042
  750      -16.4205054092      -0.0000000476     1.000000    0.00004001
  751      -16.4205054559      -0.0000000467     1.000000    0.00003960
  752      -16.4205055016      -0.0000000457     1.000000    0.00003920
  753      -16.4205055465      -0.0000000448     1.000000    0.00003880
  754      -16.4205055904      -0.0000000439     1.000000    0.00003840
  755      -16.4205056335      -0.0000000431     1.000000    0.00003801
  756      -16.4205056757      -0.0000000422     1.000000    0.00003762
  757      -16.4205057171      -0.0000000414     1.000000    0.00003723
  758      -16.4205057576      -0.0000000405     1.000000    0.00003685
  759      -16.4205057974      -0.0000000397     1.000000    0.00003646
  760      -16.4205058363      -0.0000000389     1.000000    0.00003608
  761      -16.4205058745      -0.0000000381     1.000000    0.00003571
  762      -16.4205059118      -0.0000000374     1.000000    0.00003534
  763      -16.4205059484      -0.0000000366     1.000000    0.00003497
  764      -16.4205059843      -0.0000000359     1.000000    0.00003460
  765      -16.4205060194      -0.0000000351     1.000000    0.00003424
  766      -16.4205060539      -0.0000000344     1.000000    0.00003388
  767      -16.4205060876      -0.0000000337     1.000000    0.00003352
  768      -16.4205061206      -0.0000000330     1.000000    0.00003316
  769      -16.4205061529      -0.0000000323     1.000000    0.00003281
  770      -16.4205061846      -0.0000000317     1.000000    0.00003246
  771      -16.4205062156      -0.0000000310     1.000000    0.00003212
  772      -16.4205062460      -0.0000000304     1.000000    0.00003178
  773      -16.4205062758      -0.0000000297     1.000000    0.00003144
  774      -16.4205063049      -0.0000000291     1.000000    0.00003110
  775      -16.4205063334      -0.0000000285     1.000000    0.00003077
  776      -16.4205063613      -0.0000000279     1.000000    0.00003044
  777      -16.4205063887      -0.0000000273     1.000000    0.00003011
  778      -16.4205064154      -0.0000000268     1.000000    0.00002978
  779      -16.4205064416      -0.0000000262     1.000000    0.00002946
  780      -16.4205064673      -0.0000000256     1.000000    0.00002914
  781      -16.4205064924      -0.0000000251     1.000000    0.00002883
  782      -16.4205065169      -0.0000000246     1.000000    0.00002851
  783      -16.4205065410      -0.0000000241     1.000000    0.00002820
  784      -16.4205065645      -0.0000000235     1.000000    0.00002790
  785      -16.4205065876      -0.0000000230     1.000000    0.00002759
  786      -16.4205066101      -0.0000000225     1.000000    0.00002729
  787      -16.4205066322      -0.0000000221     1.000000    0.00002699
  788      -16.4205066538      -0.0000000216     1.000000    0.00002669
  789      -16.4205066749      -0.0000000211     1.000000    0.00002640
  790      -16.4205066956      -0.0000000207     1.000000    0.00002611
  791      -16.4205067158      -0.0000000202     1.000000    0.00002582
  792      -16.4205067356      -0.0000000198     1.000000    0.00002554
  793      -16.4205067550      -0.0000000194     1.000000    0.00002525
  794      -16.4205067739      -0.0000000189     1.000000    0.00002497
  795      -16.4205067925      -0.0000000185     1.000000    0.00002470
  796      -16.4205068106      -0.0000000181     1.000000    0.00002442
  797      -16.4205068283      -0.0000000177     1.000000    0.00002415
  798      -16.4205068457      -0.0000000174     1.000000    0.00002388
  799      -16.4205068627      -0.0000000170     1.000000    0.00002361
  800      -16.4205068793      -0.0000000166     1.000000    0.00002335
  801      -16.4205068955      -0.0000000162     1.000000    0.00002309
  802      -16.4205069114      -0.0000000159     1.000000    0.00002283
  803      -16.4205069269      -0.0000000155     1.000000    0.00002257
  804      -16.4205069421      -0.0000000152     1.000000    0.00002232
  805      -16.4205069570      -0.0000000149     1.000000    0.00002207
  806      -16.4205069715      -0.0000000145     1.000000    0.00002182
  807      -16.4205069857      -0.0000000142     1.000000    0.00002157
  808      -16.4205069996      -0.0000000139     1.000000    0.00002133
  809      -16.4205070132      -0.0000000136     1.000000    0.00002109
  810      -16.4205070265      -0.0000000133     1.000000    0.00002085
  811      -16.4205070395      -0.0000000130     1.000000    0.00002061
  812      -16.4205070522      -0.0000000127     1.000000    0.00002038
  813      -16.4205070646      -0.0000000124     1.000000    0.00002015
  814      -16.4205070767      -0.0000000121     1.000000    0.00001992
  815      -16.4205070886      -0.0000000119     1.000000    0.00001969
  816      -16.4205071002      -0.0000000116     1.000000    0.00001946
  817      -16.4205071115      -0.0000000113     1.000000    0.00001924
  818      -16.4205071226      -0.0000000111     1.000000    0.00001902
  819      -16.4205071334      -0.0000000108     1.000000    0.00001880
  820      -16.4205071440      -0.0000000106     1.000000    0.00001859
  821      -16.4205071544      -0.0000000104     1.000000    0.00001838
  822      -16.4205071645      -0.0000000101     1.000000    0.00001816
  823      -16.4205071744      -0.0000000099     1.000000    0.00001796
  824      -16.4205071841      -0.0000000097     1.000000    0.00001775
  825      -16.4205071935      -0.0000000095     1.000000    0.00001754
  826      -16.4205072028      -0.0000000092     1.000000    0.00001734
  827      -16.4205072118      -0.0000000090     1.000000    0.00001714
  828      -16.4205072206      -0.0000000088     1.000000    0.00001694
  829      -16.4205072293      -0.0000000086     1.000000    0.00001675
  830      -16.4205072377      -0.0000000084     1.000000    0.00001655
  831      -16.4205072459      -0.0000000082     1.000000    0.00001636
  832      -16.4205072540      -0.0000000080     1.000000    0.00001617
  833      -16.4205072618      -0.0000000079     1.000000    0.00001598
  834      -16.4205072695      -0.0000000077     1.000000    0.00001580
  835      -16.4205072770      -0.0000000075     1.000000    0.00001561
  836      -16.4205072844      -0.0000000073     1.000000    0.00001543
  837      -16.4205072915      -0.0000000072     1.000000    0.00001525
  838      -16.4205072985      -0.0000000070     1.000000    0.00001507
  839      -16.4205073054      -0.0000000068     1.000000    0.00001490
  840      -16.4205073121      -0.0000000067     1.000000    0.00001472
  841      -16.4205073186      -0.0000000065     1.000000    0.00001455
  842      -16.4205073250      -0.0000000064     1.000000    0.00001438
  843      -16.4205073312      -0.0000000062     1.000000    0.00001421
  844      -16.4205073373      -0.0000000061     1.000000    0.00001405
  845      -16.4205073432      -0.0000000059     1.000000    0.00001388
  846      -16.4205073491      -0.0000000058     1.000000    0.00001372
  847      -16.4205073547      -0.0000000057     1.000000    0.00001356
  848      -16.4205073603      -0.0000000055     1.000000    0.00001340
  849      -16.4205073657      -0.0000000054     1.000000    0.00001324
  850      -16.4205073710      -0.0000000053     1.000000    0.00001308
  851      -16.4205073762      -0.0000000052     1.000000    0.00001293
  852      -16.4205073812      -0.0000000050     1.000000    0.00001278
  853      -16.4205073861      -0.0000000049     1.000000    0.00001263
  854      -16.4205073910      -0.0000000048     1.000000    0.00001248
  855      -16.4205073957      -0.0000000047     1.000000    0.00001233
  856      -16.4205074003      -0.0000000046     1.000000    0.00001218
  857      -16.4205074047      -0.0000000045     1.000000    0.00001204
  858      -16.4205074091      -0.0000000044     1.000000    0.00001190
  859      -16.4205074134      -0.0000000043     1.000000    0.00001175
  860      -16.4205074176      -0.0000000042     1.000000    0.00001162
  861      -16.4205074217      -0.0000000041     1.000000    0.00001148
  862      -16.4205074257      -0.0000000040     1.000000    0.00001134
  863      -16.4205074295      -0.0000000039     1.000000    0.00001121
  864      -16.4205074334      -0.0000000038     1.000000    0.00001107
  865      -16.4205074371      -0.0000000037     1.000000    0.00001094
  866      -16.4205074407      -0.0000000036     1.000000    0.00001081
  867      -16.4205074442      -0.0000000035     1.000000    0.00001068
  868      -16.4205074477      -0.0000000035     1.000000    0.00001055
  869      -16.4205074511      -0.0000000034     1.000000    0.00001043
  870      -16.4205074544      -0.0000000033     1.000000    0.00001030
  871      -16.4205074576      -0.0000000032     1.000000    0.00001018
  872      -16.4205074607      -0.0000000031     1.000000    0.00001006
  873      -16.4205074638      -0.0000000031     1.000000    0.00000994
  874      -16.4205074668      -0.0000000030     1.000000    0.00000982
  875      -16.4205074697      -0.0000000029     1.000000    0.00000970
  876      -16.4205074726      -0.0000000029     1.000000    0.00000959
  877      -16.4205074753      -0.0000000028     1.000000    0.00000947
  878      -16.4205074781      -0.0000000027     1.000000    0.00000936
  879      -16.4205074807      -0.0000000027     1.000000    0.00000925
  880      -16.4205074833      -0.0000000026     1.000000    0.00000913
  881      -16.4205074859      -0.0000000025     1.000000    0.00000902
  882      -16.4205074883      -0.0000000025     1.000000    0.00000892
  883      -16.4205074907      -0.0000000024     1.000000    0.00000881
  884      -16.4205074931      -0.0000000024     1.000000    0.00000870
  885      -16.4205074954      -0.0000000023     1.000000    0.00000860
  886      -16.4205074976      -0.0000000022     1.000000    0.00000849
  887      -16.4205074998      -0.0000000022     1.000000    0.00000839
  888      -16.4205075020      -0.0000000021     1.000000    0.00000829
  889      -16.4205075041      -0.0000000021     1.000000    0.00000819
  890      -16.4205075061      -0.0000000020     1.000000    0.00000809
  891      -16.4205075081      -0.0000000020     1.000000    0.00000799
  892      -16.4205075100      -0.0000000019     1.000000    0.00000790
  893      -16.4205075119      -0.0000000019     1.000000    0.00000780
  894      -16.4205075138      -0.0000000019     1.000000    0.00000771
  895      -16.4205075156      -0.0000000018     1.000000    0.00000762
  896      -16.4205075174      -0.0000000018     1.000000    0.00000752
  897      -16.4205075191      -0.0000000017     1.000000    0.00000743
  898      -16.4205075208      -0.0000000017     1.000000    0.00000734
  899      -16.4205075224      -0.0000000016     1.000000    0.00000725
  900      -16.4205075240      -0.0000000016     1.000000    0.00000717
  901      -16.4205075256      -0.0000000016     1.000000    0.00000708
  902      -16.4205075271      -0.0000000015     1.000000    0.00000699
  903      -16.4205075286      -0.0000000015     1.000000    0.00000691
  904      -16.4205075300      -0.0000000015     1.000000    0.00000682
  905      -16.4205075315      -0.0000000014     1.000000    0.00000674
  906      -16.4205075328      -0.0000000014     1.000000    0.00000666
  907      -16.4205075342      -0.0000000014     1.000000    0.00000658
  908      -16.4205075355      -0.0000000013     1.000000    0.00000650
  909      -16.4205075368      -0.0000000013     1.000000    0.00000642
  910      -16.4205075381      -0.0000000013     1.000000    0.00000634
  911      -16.4205075393      -0.0000000012     1.000000    0.00000626
  912      -16.4205075405      -0.0000000012     1.000000    0.00000619
  913      -16.4205075416      -0.0000000012     1.000000    0.00000611
  914      -16.4205075428      -0.0000000011     1.000000    0.00000604
  915      -16.4205075439      -0.0000000011     1.000000    0.00000597
  916      -16.4205075450      -0.0000000011     1.000000    0.00000589
  917      -16.4205075460      -0.0000000011     1.000000    0.00000582
  918      -16.4205075471      -0.0000000010     1.000000    0.00000575
  919      -16.4205075481      -0.0000000010     1.000000    0.00000568
  920      -16.4205075491      -0.0000000010     1.000000    0.00000561
  921      -16.4205075500      -0.0000000010     1.000000    0.00000554
  922      -16.4205075510      -0.0000000009     1.000000    0.00000547
  923      -16.4205075519      -0.0000000009     1.000000    0.00000541
  924      -16.4205075528      -0.0000000009     1.000000    0.00000534
  925      -16.4205075536      -0.0000000009     1.000000    0.00000528
  926      -16.4205075545      -0.0000000008     1.000000    0.00000521
  927      -16.4205075553      -0.0000000008     1.000000    0.00000515
  928      -16.4205075561      -0.0000000008     1.000000    0.00000508
  929      -16.4205075569      -0.0000000008     1.000000    0.00000502
  930      -16.4205075577      -0.0000000008     1.000000    0.00000496
  931      -16.4205075584      -0.0000000008     1.000000    0.00000490
  932      -16.4205075592      -0.0000000007     1.000000    0.00000484
  933      -16.4205075599      -0.0000000007     1.000000    0.00000478
  934      -16.4205075606      -0.0000000007     1.000000    0.00000472
  935      -16.4205075613      -0.0000000007     1.000000    0.00000466
  936      -16.4205075619      -0.0000000007     1.000000    0.00000461
  937      -16.4205075626      -0.0000000006     1.000000    0.00000455
  938      -16.4205075632      -0.0000000006     1.000000    0.00000450
  939      -16.4205075638      -0.0000000006     1.000000    0.00000444
  940      -16.4205075644      -0.0000000006     1.000000    0.00000439
  941      -16.4205075650      -0.0000000006     1.000000    0.00000433
  942      -16.4205075656      -0.0000000006     1.000000    0.00000428
  943      -16.4205075662      -0.0000000006     1.000000    0.00000423
  944      -16.4205075667      -0.0000000005     1.000000    0.00000417
  945      -16.4205075672      -0.0000000005     1.000000    0.00000412
  946      -16.4205075678      -0.0000000005     1.000000    0.00000407
  947      -16.4205075683      -0.0000000005     1.000000    0.00000402
  948      -16.4205075688      -0.0000000005     1.000000    0.00000397
  949      -16.4205075692      -0.0000000005     1.000000    0.00000392
  950      -16.4205075697      -0.0000000005     1.000000    0.00000388
  951      -16.4205075702      -0.0000000005     1.000000    0.00000383
  952      -16.4205075706      -0.0000000004     1.000000    0.00000378
  953      -16.4205075711      -0.0000000004     1.000000    0.00000373
  954      -16.4205075715      -0.0000000004     1.000000    0.00000369
  955      -16.4205075719      -0.0000000004     1.000000    0.00000364
  956      -16.4205075723      -0.0000000004     1.000000    0.00000360
  957      -16.4205075727      -0.0000000004     1.000000    0.00000355
  958      -16.4205075731      -0.0000000004     1.000000    0.00000351
  959      -16.4205075735      -0.0000000004     1.000000    0.00000347
  960      -16.4205075738      -0.0000000004     1.000000    0.00000342
  961      -16.4205075742      -0.0000000004     1.000000    0.00000338
  962      -16.4205075745      -0.0000000004     1.000000    0.00000334
  963      -16.4205075749      -0.0000000003     1.000000    0.00000330
  964      -16.4205075752      -0.0000000003     1.000000    0.00000326
  965      -16.4205075755      -0.0000000003     1.000000    0.00000322
  966      -16.4205075759      -0.0000000003     1.000000    0.00000318
  967      -16.4205075762      -0.0000000003     1.000000    0.00000314
  968      -16.4205075765      -0.0000000003     1.000000    0.00000310
  969      -16.4205075768      -0.0000000003     1.000000    0.00000306
  970      -16.4205075770      -0.0000000003     1.000000    0.00000302
  971      -16.4205075773      -0.0000000003     1.000000    0.00000299
  972      -16.4205075776      -0.0000000003     1.000000    0.00000295
  973      -16.4205075779      -0.0000000003     1.000000    0.00000291
  974      -16.4205075781      -0.0000000003     1.000000    0.00000288
  975      -16.4205075784      -0.0000000003     1.000000    0.00000284
  976      -16.4205075786      -0.0000000002     1.000000    0.00000281
  977      -16.4205075789      -0.0000000002     1.000000    0.00000277
  978      -16.4205075791      -0.0000000002     1.000000    0.00000274
  979      -16.4205075793      -0.0000000002     1.000000    0.00000270
  980      -16.4205075796      -0.0000000002     1.000000    0.00000267
  981      -16.4205075798      -0.0000000002     1.000000    0.00000264
  982      -16.4205075800      -0.0000000002     1.000000    0.00000261
  983      -16.4205075802      -0.0000000002     1.000000    0.00000257
  984      -16.4205075804      -0.0000000002     1.000000    0.00000254
  985      -16.4205075806      -0.0000000002     1.000000    0.00000251
  986      -16.4205075808      -0.0000000002     1.000000    0.00000248
  987      -16.4205075810      -0.0000000002     1.000000    0.00000245
  988      -16.4205075812      -0.0000000002     1.000000    0.00000242
  989      -16.4205075813      -0.0000000002     1.000000    0.00000239
  990      -16.4205075815      -0.0000000002     1.000000    0.00000236
  991      -16.4205075817      -0.0000000002     1.000000    0.00000233
  992      -16.4205075819      -0.0000000002     1.000000    0.00000230
  993      -16.4205075820      -0.0000000002     1.000000    0.00000227
  994      -16.4205075822      -0.0000000002     1.000000    0.00000224
  995      -16.4205075823      -0.0000000002     1.000000    0.00000222
  996      -16.4205075825      -0.0000000002     1.000000    0.00000219
  997      -16.4205075826      -0.0000000001     1.000000    0.00000216
  998      -16.4205075828      -0.0000000001     1.000000    0.00000214
  999      -16.4205075829      -0.0000000001     1.000000    0.00000211
 1000      -16.4205075830      -0.0000000001     1.000000    0.00000208

Total Energy:                      -16.4205075830 H         -446.8247 eV
Extrapolated to 0:                 -16.3783760006 H         -445.6783 eV

----------------------------------------------------------------------------------
 Solving CP-REKS equation for  1 state vector...
----------------------------------------------------------------------------------
  CG solver: Constructing Y initial guess
  CG solver: Iteration    1    eps =    0.084775861013
  CG solver: Iteration    2    eps =    0.007879975269
  CG solver: Iteration    3    eps =    0.001339753903
  CG solver: Iteration    4    eps =    0.000407387765
  CG solver: Iteration    5    eps =    0.000131804673
  CG solver: Iteration    6    eps =    0.000044902786
  CG solver: Iteration    7    eps =    0.000244655498
  CG solver: Iteration    8    eps =    0.000187125692
  CG solver: Iteration    9    eps =    0.000055015938
  CG solver: Iteration   10    eps =    0.000009071898
  CG solver: Iteration   11    eps =    0.000001738740
  CG solver: Iteration   12    eps =    0.000000350206
  CG solver: Iteration   13    eps =    0.000000046216
  CG solver: Iteration   14    eps =    0.000000012953
  CG solver: Iteration   15    eps =    0.000000001768
  Convergence reached in CG solver after   15 iterations
  CG solver: Calculating converged R, Z, Q2 matrix
----------------------------------------------------------------------------------

----------------------------------------------------------------------------------
 Solving CP-REKS equation for SI between  1 and  2 state vectors...
----------------------------------------------------------------------------------
  CG solver: Constructing Y initial guess
  CG solver: Iteration    1    eps =    0.030647709594
  CG solver: Iteration    2    eps =    0.000681961329
  CG solver: Iteration    3    eps =    0.000234100880
  CG solver: Iteration    4    eps =    0.001381254128
  CG solver: Iteration    5    eps =    0.000867233785
  CG solver: Iteration    6    eps =    0.000402409179
  CG solver: Iteration    7    eps =    0.000328356523
  CG solver: Iteration    8    eps =    0.000049944956
  CG solver: Iteration    9    eps =    0.000003095891
  CG solver: Iteration   10    eps =    0.000000737630
  CG solver: Iteration   11    eps =    0.000000068112
  CG solver: Iteration   12    eps =    0.000000012341
  CG solver: Iteration   13    eps =    0.000000002619
  Convergence reached in CG solver after   13 iterations
  CG solver: Calculating converged R, Z, Q2 matrix
----------------------------------------------------------------------------------

--------------------------------------------------
 Gradient Information
--------------------------------------------------
           1 st state (SSR)
     0.00000000     0.00000000     0.00000000
     0.00000000     0.00000000     0.00000000
     0.00000000     0.00000000     0.00000000
     0.00000000     0.00000000     0.00000000
     0.00000000     0.00000000     0.00000000
     0.00000000     0.00000000     0.00000000
     0.00000000     0.00000000     0.00000000
     0.00000000     0.00000000     0.00000000
     0.00000000     0.00000000     0.00000000
     0.00000000     0.00000000     0.00000000
     0.00000000     0.00000000     0.00000000
     0.00000000     0.00000000     0.00000000
     0.00000000     0.00000000     0.00000000
     0.00000000     0.00000000     0.00000000

           2 st state (SSR)
     0.00000000     0.00000000     0.00000000
     0.00000000     0.00000000     0.00000000
     0.00000000     0.00000000     0.00000000
     0.00000000     0.00000000     0.00000000
     0.00000000     0.00000000     0.00000000
     0.00000000     0.00000000     0.00000000
     0.00000000     0.00000000     0.00000000
     0.00000000     0.00000000     0.00000000
     0.00000000     0.00000000     0.00000000
     0.00000000     0.00000000     0.00000000
     0.00000000     0.00000000     0.00000000
     0.00000000     0.00000000     0.00000000
     0.00000000     0.00000000     0.00000000
     0.00000000     0.00000000     0.00000000
--------------------------------------------------
 Coupling Information
--------------------------------------------------
 between  1 and  2 states
--------------------------------------------------
 g vector - difference gradient
    -0.10127011     0.03287493    -0.01227748
    -0.16526305     0.11966392     0.13852800
     0.04237340     0.02918155    -0.12802726
     0.01045578    -0.08629709     0.06924055
     0.15387103    -0.07645199     0.00637130
    -0.23625704    -0.12060959    -0.15936088
     0.29527965     0.40627069     0.14041174
     0.03130410     0.10286680    -0.03055094
    -0.07834220    -0.02897641     0.00911206
    -0.22120934    -0.32283631    -0.14082993
    -0.01480159    -0.06826109     0.06857419
     0.24413542     0.02971400     0.02975677
     0.03456685     0.02111607     0.05159757
     0.00515709    -0.03825546    -0.04254570

 h vector - derivative coupling
     0.03459246     0.02837245    -0.00259423
    -0.05088599    -0.02335803     0.00147348
    -0.01761791     0.00131470    -0.02067022
     0.00635175    -0.00959555     0.01710435
    -0.00796086     0.00971147    -0.01102873
     0.08943528     0.03320220     0.02859346
    -0.05422716    -0.01242843     0.01249259
    -0.00152948    -0.01424267    -0.00209400
    -0.00322202     0.00487797    -0.00623537
     0.01925496    -0.01938371    -0.02118177
    -0.00244649    -0.00193533    -0.00036294
    -0.01169017     0.00251116     0.00489648
    -0.00018958     0.00198712    -0.00173639
     0.00013521    -0.00103335     0.00134330

 G vector - GDV
     0.00000000     0.00000000     0.00000000
     0.00000000     0.00000000     0.00000000
     0.00000000     0.00000000     0.00000000
     0.00000000     0.00000000     0.00000000
     0.00000000     0.00000000     0.00000000
     0.00000000     0.00000000     0.00000000
     0.00000000     0.00000000     0.00000000
     0.00000000     0.00000000     0.00000000
     0.00000000     0.00000000     0.00000000
     0.00000000     0.00000000     0.00000000
     0.00000000     0.00000000     0.00000000
     0.00000000     0.00000000     0.00000000
     0.00000000     0.00000000     0.00000000
     0.00000000     0.00000000     0.00000000

 H vector - DCV - non-adiabatic coupling
     0.00000000     0.00000000     0.00000000
     0.00000000     0.00000000     0.00000000
     0.00000000     0.00000000     0.00000000
     0.00000000     0.00000000     0.00000000
     0.00000000     0.00000000     0.00000000
     0.00000000     0.00000000     0.00000000
     0.00000000     0.00000000     0.00000000
     0.00000000     0.00000000     0.00000000
     0.00000000     0.00000000     0.00000000
     0.00000000     0.00000000     0.00000000
     0.00000000     0.00000000     0.00000000
     0.00000000     0.00000000     0.00000000
     0.00000000     0.00000000     0.00000000
     0.00000000     0.00000000     0.00000000
--------------------------------------------------

WARNING!
-> SCC is NOT converged, maximal SCC iterations exceeded

--------------------------------------------------------------------------------
DFTB+ running times                          cpu [s]             wall clock [s]
--------------------------------------------------------------------------------
SCC                                    +     1.36  ( 78.7%)      1.37  ( 78.6%)
      Sparse to dense                        0.07  (  4.1%)      0.08  (  4.5%)
      Dense to sparse                        0.24  ( 14.0%)      0.24  ( 13.6%)
      Range separated Hamiltonian            0.13  (  7.3%)      0.13  (  7.2%)
  Density matrix creation                    0.15  (  8.7%)      0.15  (  8.8%)
  Force calculation                          0.37  ( 21.2%)      0.37  ( 21.2%)
--------------------------------------------------------------------------------
Missing                                +     0.37  ( 21.3%)      0.37  ( 21.4%)
Total                                  =     1.73  (100.0%)      1.74  (100.0%)
--------------------------------------------------------------------------------
