 Fermi distribution function

Calculation with static geometry


********************************************************************************
 iSCC Total electronic   Diff electronic      SCC error    
    9   -0.54520793E+01   -0.63948846E-13    0.29884011E-06
********************************************************************************

 Total charge:     1.00000000

 Atomic gross charges (e)
 Atom           Charge
    1       0.15554254
    2      -0.01860605
    3       0.16658919
    4       0.26774790
    5       0.26696613
    6       0.16176028

Nr. of electrons (up):     12.00000000
Atom populations (up)
 Atom       Population
    1       3.84445746
    2       5.01860605
    3       0.83341081
    4       0.73225210
    5       0.73303387
    6       0.83823972

l-shell populations (up)
 Atom Sh.   l       Population
    1   1   0       1.27929104
    1   2   1       2.56516642
    2   1   0       1.41216759
    2   2   1       3.60643846
    3   1   0       0.83341081
    4   1   0       0.73225210
    5   1   0       0.73303387
    6   1   0       0.83823972

Orbital populations (up)
 Atom Sh.   l   m       Population  Label
    1   1   0   0       1.27929104  s
    1   2   1  -1       0.60759840  p_y
    1   2   1   0       0.89951378  p_z
    1   2   1   1       1.05805424  p_x
    2   1   0   0       1.41216759  s
    2   2   1  -1       1.31703528  p_y
    2   2   1   0       1.12469277  p_z
    2   2   1   1       1.16471041  p_x
    3   1   0   0       0.83341081  s
    4   1   0   0       0.73225210  s
    5   1   0   0       0.73303387  s
    6   1   0   0       0.83823972  s

Fermi level:                        -0.4956831464 H          -13.4882 eV
Band energy:                        -9.0435037831 H         -246.0863 eV
TS:                                  0.0000000000 H            0.0000 eV
Band free energy (E-TS):            -9.0435037831 H         -246.0863 eV
Extrapolated E(0K):                 -9.0435037831 H         -246.0863 eV
Input / Output electrons (q):     12.0000000000     12.0000000000

Energy H0:                          -5.5893377655 H         -152.0936 eV
Energy SCC:                          0.1372584931 H            3.7350 eV
Total Electronic energy:            -5.4520792724 H         -148.3586 eV
Repulsive energy:                    0.2232237743 H            6.0742 eV
Total energy:                       -5.2288554981 H         -142.2844 eV
Extrapolated to 0:                  -5.2288554981 H         -142.2844 eV
Total Mermin free energy:           -5.2288554981 H         -142.2844 eV
Force related energy:               -5.2288554981 H         -142.2844 eV

SCC converged

Excitation Energy:                   0.1622970456 H            4.4163 eV

Total Forces
    1      0.005812406970     -0.009621841370     -0.054010357146
    2     -0.004731471675      0.015528668890      0.048699081087
    3      0.004281405434      0.003958583894     -0.001226103475
    4      0.004484396997     -0.007441198336      0.002021111745
    5     -0.003705748710     -0.003033104679      0.006922067913
    6     -0.006140989017      0.000608891602     -0.002405800124

Maximal derivative component:        0.540104E-01 au


