|===============================================================================
|
|  DFTB+ release 20.1
|
|  Copyright (C) 2006 - 2020  DFTB+ developers group
|
|===============================================================================
|
|  When publishing results obtained with DFTB+, please cite the following
|  reference:
|
|  * DFTB+, a software package for efficient approximate density functional
|    theory based atomistic simulations, J. Chem. Phys. 152, 124101 (2020).
|    [doi: 10.1063/1.5143190]
|
|  You should also cite additional publications crediting the parametrization
|  data you use. Please consult the documentation of the SK-files for the
|  references.
|
|===============================================================================

Reading input file 'dftb_in.hsd'
Parser version: 8

--------------------------------------------------------------------------------
Reading SK-files:
Done.


Processed input in HSD format written to 'dftb_pin.hsd'

Starting initialization...
--------------------------------------------------------------------------------
OpenMP threads:              1
Chosen random seed:          449965820
Mode:                        Static calculation
Self consistent charges:     Yes
SCC-tolerance:                 0.100000E-05
Max. scc iterations:                   1000
Shell resolved Hubbard:      No
Spin polarisation:           No
Nr. of up electrons:             6.000000
Nr. of down electrons:           6.000000
Periodic boundaries:         No
Electronic solver:           Relatively robust
Maximal SCC-cycles:                    1000
Initial charges:             Set automatically (system chrg:   0.100E+01)
Included shells:             C:  s, p
                             N:  s, p
                             H:  s
Spin coupling constants:     C   1(s)-1(s):  -0.455900E-01
                             C   1(s)-2(p):  -0.293000E-01
                             C   2(p)-1(s):  -0.293000E-01
                             C   2(p)-2(p):  -0.275500E-01
                             N   1(s)-1(s):  -0.468700E-01
                             N   1(s)-2(p):  -0.317000E-01
                             N   2(p)-1(s):  -0.317000E-01
                             N   2(p)-2(p):  -0.307200E-01
                             H   1(s)-1(s):  -0.792500E-01
Range separated hybrid:      Yes
  Screening parameter omega:   0.300000E+00
  Range separated algorithm:   MatrixBased
Extra options:
                             Mulliken analysis
                             Force calculation
Force type                   original
                             Eigenvector printing


REKS Calcuation:             Yes
SSR(2,2) Calcuation:         Yes
Energy Functional:           (PPS+OSS)/2
Number of Core Orbitals:                  5
Number of Active Orbitals:                2
Number of Basis:                         12
Number of States:                         2
State-Averaging Weight:          0.500000
                                 0.500000
State of Interest:                        1
Initial Guess:               Diagonalize H0 matrix
Newton-Raphson for FON opt:  Yes
NR max. Iterations:                      50
Level Shifting:              Yes
Shift Value:                     0.300000
W Scale Factor:              C  =    3.200000
                             N  =    3.200000
                             H  =    3.200000
Transition Dipole:           No
Gradient of Microstate:      No
CP-REKS Solver:              Preconditioned Conjugate-Gradient
CG max. Iterations:                     100
CG Tolerance:                  0.100000E-07
Memory for A and Hxc:        Direct Updating Without Saving
Non-Adiabatic Coupling:      Yes

--------------------------------------------------------------------------------

***  Geometry step: 0

  iSCC       reks energy        Diff energy         x_a       SCC error   
    1       -6.1285690195       0.0000000000     0.891394    1.10662105
    2       -6.1350756233      -0.0065066039     0.865222    0.05822887
    3       -6.1364340648      -0.0013584414     0.856463    0.02673029
    4       -6.1368427708      -0.0004087061     0.853306    0.01356370
    5       -6.1370029868      -0.0001602160     0.852099    0.00766396
    6       -6.1370773008      -0.0000743140     0.851704    0.00469424
    7       -6.1371161403      -0.0000388395     0.851715    0.00304277
    8       -6.1371384095      -0.0000222692     0.851957    0.00205806
    9       -6.1371521685      -0.0000137590     0.852339    0.00151785
   10       -6.1371612107      -0.0000090423     0.852804    0.00125546
   11       -6.1371674715      -0.0000062608     0.853319    0.00104594
   12       -6.1371720055      -0.0000045340     0.853859    0.00087921
   13       -6.1371754191      -0.0000034136     0.854409    0.00074639
   14       -6.1371780765      -0.0000026575     0.854957    0.00067286
   15       -6.1371802050      -0.0000021285     0.855497    0.00064308
   16       -6.1371819507      -0.0000017457     0.856024    0.00061410
   17       -6.1371834107      -0.0000014599     0.856536    0.00058604
   18       -6.1371846511      -0.0000012404     0.857029    0.00055902
   19       -6.1371857184      -0.0000010674     0.857505    0.00053310
   20       -6.1371866464      -0.0000009280     0.857961    0.00050833
   21       -6.1371874600      -0.0000008135     0.858399    0.00048474
   22       -6.1371881781      -0.0000007181     0.858819    0.00046232
   23       -6.1371888155      -0.0000006374     0.859221    0.00044105
   24       -6.1371893840      -0.0000005685     0.859606    0.00042091
   25       -6.1371898931      -0.0000005091     0.859974    0.00040184
   26       -6.1371903507      -0.0000004576     0.860327    0.00038383
   27       -6.1371907632      -0.0000004125     0.860665    0.00036680
   28       -6.1371911362      -0.0000003730     0.860989    0.00035072
   29       -6.1371914743      -0.0000003381     0.861299    0.00033554
   30       -6.1371917815      -0.0000003072     0.861597    0.00032121
   31       -6.1371920613      -0.0000002798     0.861882    0.00030767
   32       -6.1371923166      -0.0000002554     0.862157    0.00029489
   33       -6.1371925502      -0.0000002335     0.862420    0.00028282
   34       -6.1371927641      -0.0000002139     0.862673    0.00027142
   35       -6.1371929604      -0.0000001964     0.862917    0.00026064
   36       -6.1371931410      -0.0000001805     0.863151    0.00025044
   37       -6.1371933072      -0.0000001663     0.863376    0.00024080
   38       -6.1371934606      -0.0000001534     0.863594    0.00023167
   39       -6.1371936022      -0.0000001417     0.863803    0.00022302
   40       -6.1371937333      -0.0000001311     0.864005    0.00021483
   41       -6.1371938547      -0.0000001214     0.864200    0.00020706
   42       -6.1371939674      -0.0000001126     0.864389    0.00019969
   43       -6.1371940720      -0.0000001046     0.864571    0.00019269
   44       -6.1371941694      -0.0000000973     0.864746    0.00018604
   45       -6.1371942600      -0.0000000906     0.864917    0.00017972
   46       -6.1371943445      -0.0000000845     0.865081    0.00017370
   47       -6.1371944234      -0.0000000789     0.865240    0.00016798
   48       -6.1371944972      -0.0000000737     0.865395    0.00016252
   49       -6.1371945661      -0.0000000690     0.865544    0.00015733
   50       -6.1371946308      -0.0000000646     0.865689    0.00015237
   51       -6.1371946913      -0.0000000606     0.865830    0.00014764
   52       -6.1371947482      -0.0000000568     0.865966    0.00014312
   53       -6.1371948016      -0.0000000534     0.866099    0.00013881
   54       -6.1371948518      -0.0000000502     0.866228    0.00013468
   55       -6.1371948990      -0.0000000472     0.866353    0.00013074
   56       -6.1371949435      -0.0000000445     0.866474    0.00012696
   57       -6.1371949855      -0.0000000420     0.866592    0.00012334
   58       -6.1371950250      -0.0000000396     0.866707    0.00011987
   59       -6.1371950624      -0.0000000374     0.866819    0.00011655
   60       -6.1371950977      -0.0000000353     0.866928    0.00011336
   61       -6.1371951312      -0.0000000334     0.867034    0.00011030
   62       -6.1371951628      -0.0000000316     0.867137    0.00010736
   63       -6.1371951927      -0.0000000300     0.867237    0.00010454
   64       -6.1371952211      -0.0000000284     0.867335    0.00010183
   65       -6.1371952481      -0.0000000269     0.867431    0.00009922
   66       -6.1371952736      -0.0000000256     0.867524    0.00009671
   67       -6.1371952979      -0.0000000243     0.867615    0.00009429
   68       -6.1371953210      -0.0000000231     0.867704    0.00009196
   69       -6.1371953430      -0.0000000220     0.867791    0.00008972
   70       -6.1371953638      -0.0000000209     0.867875    0.00008756
   71       -6.1371953837      -0.0000000199     0.867958    0.00008547
   72       -6.1371954027      -0.0000000190     0.868039    0.00008346
   73       -6.1371954208      -0.0000000181     0.868118    0.00008152
   74       -6.1371954380      -0.0000000172     0.868195    0.00007965
   75       -6.1371954545      -0.0000000165     0.868270    0.00007784
   76       -6.1371954702      -0.0000000157     0.868344    0.00007610
   77       -6.1371954852      -0.0000000150     0.868416    0.00007441
   78       -6.1371954996      -0.0000000144     0.868487    0.00007277
   79       -6.1371955133      -0.0000000137     0.868556    0.00007119
   80       -6.1371955264      -0.0000000131     0.868624    0.00006967
   81       -6.1371955390      -0.0000000126     0.868690    0.00006819
   82       -6.1371955510      -0.0000000120     0.868755    0.00006675
   83       -6.1371955626      -0.0000000115     0.868818    0.00006537
   84       -6.1371955737      -0.0000000111     0.868881    0.00006402
   85       -6.1371955843      -0.0000000106     0.868942    0.00006272
   86       -6.1371955945      -0.0000000102     0.869002    0.00006146
   87       -6.1371956043      -0.0000000098     0.869060    0.00006023
   88       -6.1371956137      -0.0000000094     0.869118    0.00005905
   89       -6.1371956227      -0.0000000090     0.869174    0.00005789
   90       -6.1371956314      -0.0000000087     0.869230    0.00005678
   91       -6.1371956397      -0.0000000083     0.869284    0.00005569
   92       -6.1371956478      -0.0000000080     0.869337    0.00005463
   93       -6.1371956555      -0.0000000077     0.869390    0.00005361
   94       -6.1371956629      -0.0000000074     0.869441    0.00005261
   95       -6.1371956701      -0.0000000072     0.869491    0.00005165
   96       -6.1371956770      -0.0000000069     0.869541    0.00005071
   97       -6.1371956836      -0.0000000067     0.869590    0.00004979
   98       -6.1371956901      -0.0000000064     0.869638    0.00004890
   99       -6.1371956963      -0.0000000062     0.869685    0.00004804
  100       -6.1371957022      -0.0000000060     0.869731    0.00004719
  101       -6.1371957080      -0.0000000058     0.869776    0.00004638
  102       -6.1371957136      -0.0000000056     0.869821    0.00004558
  103       -6.1371957189      -0.0000000054     0.869865    0.00004480
  104       -6.1371957241      -0.0000000052     0.869908    0.00004404
  105       -6.1371957291      -0.0000000050     0.869950    0.00004331
  106       -6.1371957340      -0.0000000049     0.869992    0.00004259
  107       -6.1371957387      -0.0000000047     0.870033    0.00004189
  108       -6.1371957432      -0.0000000045     0.870074    0.00004120
  109       -6.1371957476      -0.0000000044     0.870113    0.00004054
  110       -6.1371957519      -0.0000000043     0.870152    0.00003989
  111       -6.1371957560      -0.0000000041     0.870191    0.00003925
  112       -6.1371957600      -0.0000000040     0.870229    0.00003864
  113       -6.1371957638      -0.0000000039     0.870266    0.00003803
  114       -6.1371957676      -0.0000000037     0.870303    0.00003744
  115       -6.1371957712      -0.0000000036     0.870339    0.00003687
  116       -6.1371957747      -0.0000000035     0.870375    0.00003631
  117       -6.1371957781      -0.0000000034     0.870410    0.00003576
  118       -6.1371957814      -0.0000000033     0.870445    0.00003523
  119       -6.1371957846      -0.0000000032     0.870479    0.00003470
  120       -6.1371957878      -0.0000000031     0.870513    0.00003419
  121       -6.1371957908      -0.0000000030     0.870546    0.00003369
  122       -6.1371957937      -0.0000000029     0.870578    0.00003321
  123       -6.1371957966      -0.0000000029     0.870611    0.00003273
  124       -6.1371957993      -0.0000000028     0.870642    0.00003226
  125       -6.1371958020      -0.0000000027     0.870674    0.00003181
  126       -6.1371958046      -0.0000000026     0.870705    0.00003136
  127       -6.1371958072      -0.0000000025     0.870735    0.00003092
  128       -6.1371958097      -0.0000000025     0.870765    0.00003050
  129       -6.1371958121      -0.0000000024     0.870795    0.00003008
  130       -6.1371958144      -0.0000000023     0.870824    0.00002967
  131       -6.1371958167      -0.0000000023     0.870853    0.00002927
  132       -6.1371958189      -0.0000000022     0.870881    0.00002888
  133       -6.1371958210      -0.0000000022     0.870909    0.00002850
  134       -6.1371958231      -0.0000000021     0.870937    0.00002812
  135       -6.1371958252      -0.0000000020     0.870965    0.00002775
  136       -6.1371958272      -0.0000000020     0.870992    0.00002739
  137       -6.1371958291      -0.0000000019     0.871018    0.00002704
  138       -6.1371958310      -0.0000000019     0.871045    0.00002669
  139       -6.1371958328      -0.0000000018     0.871071    0.00002635
  140       -6.1371958346      -0.0000000018     0.871096    0.00002602
  141       -6.1371958364      -0.0000000017     0.871122    0.00002570
  142       -6.1371958381      -0.0000000017     0.871147    0.00002538
  143       -6.1371958398      -0.0000000017     0.871172    0.00002507
  144       -6.1371958414      -0.0000000016     0.871196    0.00002476
  145       -6.1371958430      -0.0000000016     0.871220    0.00002446
  146       -6.1371958445      -0.0000000015     0.871244    0.00002416
  147       -6.1371958460      -0.0000000015     0.871268    0.00002387
  148       -6.1371958475      -0.0000000015     0.871291    0.00002359
  149       -6.1371958489      -0.0000000014     0.871314    0.00002331
  150       -6.1371958503      -0.0000000014     0.871337    0.00002304
  151       -6.1371958517      -0.0000000014     0.871359    0.00002277
  152       -6.1371958530      -0.0000000013     0.871382    0.00002251
  153       -6.1371958544      -0.0000000013     0.871404    0.00002225
  154       -6.1371958556      -0.0000000013     0.871425    0.00002200
  155       -6.1371958569      -0.0000000012     0.871447    0.00002175
  156       -6.1371958581      -0.0000000012     0.871468    0.00002150
  157       -6.1371958593      -0.0000000012     0.871489    0.00002126
  158       -6.1371958605      -0.0000000012     0.871510    0.00002103
  159       -6.1371958616      -0.0000000011     0.871531    0.00002079
  160       -6.1371958627      -0.0000000011     0.871551    0.00002057
  161       -6.1371958638      -0.0000000011     0.871571    0.00002034
  162       -6.1371958649      -0.0000000011     0.871591    0.00002012
  163       -6.1371958659      -0.0000000010     0.871611    0.00001991
  164       -6.1371958670      -0.0000000010     0.871630    0.00001970
  165       -6.1371958680      -0.0000000010     0.871650    0.00001949
  166       -6.1371958689      -0.0000000010     0.871669    0.00001928
  167       -6.1371958699      -0.0000000010     0.871688    0.00001908
  168       -6.1371958708      -0.0000000009     0.871706    0.00001888
  169       -6.1371958718      -0.0000000009     0.871725    0.00001869
  170       -6.1371958727      -0.0000000009     0.871743    0.00001850
  171       -6.1371958736      -0.0000000009     0.871761    0.00001831
  172       -6.1371958744      -0.0000000009     0.871779    0.00001813
  173       -6.1371958753      -0.0000000008     0.871797    0.00001794
  174       -6.1371958761      -0.0000000008     0.871815    0.00001777
  175       -6.1371958769      -0.0000000008     0.871832    0.00001759
  176       -6.1371958777      -0.0000000008     0.871850    0.00001742
  177       -6.1371958785      -0.0000000008     0.871867    0.00001725
  178       -6.1371958793      -0.0000000008     0.871884    0.00001708
  179       -6.1371958800      -0.0000000008     0.871900    0.00001691
  180       -6.1371958808      -0.0000000007     0.871917    0.00001675
  181       -6.1371958815      -0.0000000007     0.871934    0.00001659
  182       -6.1371958822      -0.0000000007     0.871950    0.00001643
  183       -6.1371958829      -0.0000000007     0.871966    0.00001628
  184       -6.1371958836      -0.0000000007     0.871982    0.00001613
  185       -6.1371958842      -0.0000000007     0.871998    0.00001598
  186       -6.1371958849      -0.0000000007     0.872014    0.00001583
  187       -6.1371958855      -0.0000000006     0.872029    0.00001569
  188       -6.1371958862      -0.0000000006     0.872045    0.00001554
  189       -6.1371958868      -0.0000000006     0.872060    0.00001540
  190       -6.1371958874      -0.0000000006     0.872075    0.00001526
  191       -6.1371958880      -0.0000000006     0.872090    0.00001513
  192       -6.1371958886      -0.0000000006     0.872105    0.00001499
  193       -6.1371958892      -0.0000000006     0.872120    0.00001486
  194       -6.1371958898      -0.0000000006     0.872134    0.00001473
  195       -6.1371958903      -0.0000000006     0.872149    0.00001460
  196       -6.1371958909      -0.0000000006     0.872163    0.00001447
  197       -6.1371958914      -0.0000000005     0.872178    0.00001435
  198       -6.1371958919      -0.0000000005     0.872192    0.00001422
  199       -6.1371958925      -0.0000000005     0.872206    0.00001410
  200       -6.1371958930      -0.0000000005     0.872220    0.00001398
  201       -6.1371958935      -0.0000000005     0.872234    0.00001387
  202       -6.1371958940      -0.0000000005     0.872247    0.00001375
  203       -6.1371958945      -0.0000000005     0.872261    0.00001364
  204       -6.1371958950      -0.0000000005     0.872274    0.00001352
  205       -6.1371958954      -0.0000000005     0.872288    0.00001341
  206       -6.1371958959      -0.0000000005     0.872301    0.00001330
  207       -6.1371958963      -0.0000000005     0.872314    0.00001319
  208       -6.1371958968      -0.0000000004     0.872327    0.00001309
  209       -6.1371958972      -0.0000000004     0.872340    0.00001298
  210       -6.1371958977      -0.0000000004     0.872353    0.00001288
  211       -6.1371958981      -0.0000000004     0.872365    0.00001278
  212       -6.1371958985      -0.0000000004     0.872378    0.00001268
  213       -6.1371958989      -0.0000000004     0.872391    0.00001258
  214       -6.1371958993      -0.0000000004     0.872403    0.00001248
  215       -6.1371958997      -0.0000000004     0.872415    0.00001238
  216       -6.1371959001      -0.0000000004     0.872428    0.00001229
  217       -6.1371959005      -0.0000000004     0.872440    0.00001219
  218       -6.1371959009      -0.0000000004     0.872452    0.00001210
  219       -6.1371959013      -0.0000000004     0.872464    0.00001201
  220       -6.1371959017      -0.0000000004     0.872476    0.00001192
  221       -6.1371959020      -0.0000000004     0.872487    0.00001183
  222       -6.1371959024      -0.0000000004     0.872499    0.00001174
  223       -6.1371959027      -0.0000000004     0.872511    0.00001165
  224       -6.1371959031      -0.0000000004     0.872522    0.00001157
  225       -6.1371959034      -0.0000000003     0.872534    0.00001148
  226       -6.1371959038      -0.0000000003     0.872545    0.00001140
  227       -6.1371959041      -0.0000000003     0.872556    0.00001132
  228       -6.1371959045      -0.0000000003     0.872567    0.00001124
  229       -6.1371959048      -0.0000000003     0.872579    0.00001116
  230       -6.1371959051      -0.0000000003     0.872590    0.00001108
  231       -6.1371959054      -0.0000000003     0.872601    0.00001100
  232       -6.1371959057      -0.0000000003     0.872612    0.00001092
  233       -6.1371959060      -0.0000000003     0.872622    0.00001084
  234       -6.1371959063      -0.0000000003     0.872633    0.00001077
  235       -6.1371959066      -0.0000000003     0.872644    0.00001069
  236       -6.1371959069      -0.0000000003     0.872654    0.00001062
  237       -6.1371959072      -0.0000000003     0.872665    0.00001055
  238       -6.1371959075      -0.0000000003     0.872675    0.00001048
  239       -6.1371959078      -0.0000000003     0.872686    0.00001041
  240       -6.1371959081      -0.0000000003     0.872696    0.00001034
  241       -6.1371959083      -0.0000000003     0.872706    0.00001027
  242       -6.1371959086      -0.0000000003     0.872716    0.00001020
  243       -6.1371959089      -0.0000000003     0.872727    0.00001013
  244       -6.1371959092      -0.0000000003     0.872737    0.00001007
  245       -6.1371959094      -0.0000000003     0.872747    0.00001000
  246       -6.1371959097      -0.0000000003     0.872756    0.00000994
  247       -6.1371959099      -0.0000000003     0.872766    0.00000987
  248       -6.1371959102      -0.0000000003     0.872776    0.00000981
  249       -6.1371959104      -0.0000000002     0.872786    0.00000975
  250       -6.1371959107      -0.0000000002     0.872795    0.00000968
  251       -6.1371959109      -0.0000000002     0.872805    0.00000962
  252       -6.1371959112      -0.0000000002     0.872815    0.00000956
  253       -6.1371959114      -0.0000000002     0.872824    0.00000950
  254       -6.1371959116      -0.0000000002     0.872834    0.00000944
  255       -6.1371959119      -0.0000000002     0.872843    0.00000939
  256       -6.1371959121      -0.0000000002     0.872852    0.00000933
  257       -6.1371959123      -0.0000000002     0.872861    0.00000927
  258       -6.1371959125      -0.0000000002     0.872871    0.00000922
  259       -6.1371959127      -0.0000000002     0.872880    0.00000916
  260       -6.1371959130      -0.0000000002     0.872889    0.00000911
  261       -6.1371959132      -0.0000000002     0.872898    0.00000905
  262       -6.1371959134      -0.0000000002     0.872907    0.00000900
  263       -6.1371959136      -0.0000000002     0.872916    0.00000894
  264       -6.1371959138      -0.0000000002     0.872925    0.00000889
  265       -6.1371959140      -0.0000000002     0.872934    0.00000884
  266       -6.1371959142      -0.0000000002     0.872942    0.00000879
  267       -6.1371959144      -0.0000000002     0.872951    0.00000874
  268       -6.1371959146      -0.0000000002     0.872960    0.00000869
  269       -6.1371959148      -0.0000000002     0.872968    0.00000864
  270       -6.1371959150      -0.0000000002     0.872977    0.00000859
  271       -6.1371959152      -0.0000000002     0.872986    0.00000854
  272       -6.1371959154      -0.0000000002     0.872994    0.00000849
  273       -6.1371959156      -0.0000000002     0.873002    0.00000845
  274       -6.1371959157      -0.0000000002     0.873011    0.00000840
  275       -6.1371959159      -0.0000000002     0.873019    0.00000835
  276       -6.1371959161      -0.0000000002     0.873028    0.00000831
  277       -6.1371959163      -0.0000000002     0.873036    0.00000826
  278       -6.1371959165      -0.0000000002     0.873044    0.00000822
  279       -6.1371959166      -0.0000000002     0.873052    0.00000817
  280       -6.1371959168      -0.0000000002     0.873060    0.00000813
  281       -6.1371959170      -0.0000000002     0.873068    0.00000809
  282       -6.1371959171      -0.0000000002     0.873076    0.00000804
  283       -6.1371959173      -0.0000000002     0.873084    0.00000800
  284       -6.1371959175      -0.0000000002     0.873092    0.00000796
  285       -6.1371959176      -0.0000000002     0.873100    0.00000792
  286       -6.1371959178      -0.0000000002     0.873108    0.00000788
  287       -6.1371959180      -0.0000000002     0.873116    0.00000784
  288       -6.1371959181      -0.0000000002     0.873124    0.00000780
  289       -6.1371959183      -0.0000000002     0.873132    0.00000776
  290       -6.1371959184      -0.0000000002     0.873139    0.00000772
  291       -6.1371959186      -0.0000000002     0.873147    0.00000768
  292       -6.1371959187      -0.0000000002     0.873155    0.00000764
  293       -6.1371959189      -0.0000000002     0.873162    0.00000760
  294       -6.1371959190      -0.0000000001     0.873170    0.00000756
  295       -6.1371959192      -0.0000000001     0.873177    0.00000753
  296       -6.1371959193      -0.0000000001     0.873185    0.00000749
  297       -6.1371959195      -0.0000000001     0.873192    0.00000745
  298       -6.1371959196      -0.0000000001     0.873200    0.00000742
  299       -6.1371959198      -0.0000000001     0.873207    0.00000738
  300       -6.1371959199      -0.0000000001     0.873214    0.00000735
  301       -6.1371959200      -0.0000000001     0.873222    0.00000731
  302       -6.1371959202      -0.0000000001     0.873229    0.00000728
  303       -6.1371959203      -0.0000000001     0.873236    0.00000724
  304       -6.1371959205      -0.0000000001     0.873244    0.00000721
  305       -6.1371959206      -0.0000000001     0.873251    0.00000718
  306       -6.1371959207      -0.0000000001     0.873258    0.00000714
  307       -6.1371959209      -0.0000000001     0.873265    0.00000711
  308       -6.1371959210      -0.0000000001     0.873272    0.00000708
  309       -6.1371959211      -0.0000000001     0.873279    0.00000705
  310       -6.1371959212      -0.0000000001     0.873286    0.00000701
  311       -6.1371959214      -0.0000000001     0.873293    0.00000698
  312       -6.1371959215      -0.0000000001     0.873300    0.00000695
  313       -6.1371959216      -0.0000000001     0.873307    0.00000692
  314       -6.1371959217      -0.0000000001     0.873314    0.00000689
  315       -6.1371959219      -0.0000000001     0.873321    0.00000686
  316       -6.1371959220      -0.0000000001     0.873328    0.00000683
  317       -6.1371959221      -0.0000000001     0.873334    0.00000680
  318       -6.1371959222      -0.0000000001     0.873341    0.00000677
  319       -6.1371959223      -0.0000000001     0.873348    0.00000674
  320       -6.1371959225      -0.0000000001     0.873355    0.00000671
  321       -6.1371959226      -0.0000000001     0.873361    0.00000669
  322       -6.1371959227      -0.0000000001     0.873368    0.00000666
  323       -6.1371959228      -0.0000000001     0.873375    0.00000663
  324       -6.1371959229      -0.0000000001     0.873381    0.00000660
  325       -6.1371959230      -0.0000000001     0.873388    0.00000658
  326       -6.1371959231      -0.0000000001     0.873394    0.00000655
  327       -6.1371959233      -0.0000000001     0.873401    0.00000652
  328       -6.1371959234      -0.0000000001     0.873408    0.00000650
  329       -6.1371959235      -0.0000000001     0.873414    0.00000647
  330       -6.1371959236      -0.0000000001     0.873420    0.00000644
  331       -6.1371959237      -0.0000000001     0.873427    0.00000642
  332       -6.1371959238      -0.0000000001     0.873433    0.00000639
  333       -6.1371959239      -0.0000000001     0.873440    0.00000637
  334       -6.1371959240      -0.0000000001     0.873446    0.00000634
  335       -6.1371959241      -0.0000000001     0.873452    0.00000632
  336       -6.1371959242      -0.0000000001     0.873459    0.00000629
  337       -6.1371959243      -0.0000000001     0.873465    0.00000627
  338       -6.1371959244      -0.0000000001     0.873471    0.00000625
  339       -6.1371959245      -0.0000000001     0.873477    0.00000622
  340       -6.1371959246      -0.0000000001     0.873484    0.00000620
  341       -6.1371959247      -0.0000000001     0.873490    0.00000617
  342       -6.1371959248      -0.0000000001     0.873496    0.00000615
  343       -6.1371959249      -0.0000000001     0.873502    0.00000613
  344       -6.1371959250      -0.0000000001     0.873508    0.00000611
  345       -6.1371959251      -0.0000000001     0.873514    0.00000608
  346       -6.1371959252      -0.0000000001     0.873520    0.00000606
  347       -6.1371959253      -0.0000000001     0.873527    0.00000604
  348       -6.1371959254      -0.0000000001     0.873533    0.00000602
  349       -6.1371959255      -0.0000000001     0.873539    0.00000600
  350       -6.1371959256      -0.0000000001     0.873545    0.00000598
  351       -6.1371959257      -0.0000000001     0.873551    0.00000596
  352       -6.1371959258      -0.0000000001     0.873556    0.00000593
  353       -6.1371959258      -0.0000000001     0.873562    0.00000591
  354       -6.1371959259      -0.0000000001     0.873568    0.00000589
  355       -6.1371959260      -0.0000000001     0.873574    0.00000587
  356       -6.1371959261      -0.0000000001     0.873580    0.00000585
  357       -6.1371959262      -0.0000000001     0.873586    0.00000583
  358       -6.1371959263      -0.0000000001     0.873592    0.00000581
  359       -6.1371959264      -0.0000000001     0.873598    0.00000579
  360       -6.1371959265      -0.0000000001     0.873603    0.00000578
  361       -6.1371959266      -0.0000000001     0.873609    0.00000576
  362       -6.1371959266      -0.0000000001     0.873615    0.00000574
  363       -6.1371959267      -0.0000000001     0.873621    0.00000572
  364       -6.1371959268      -0.0000000001     0.873626    0.00000570
  365       -6.1371959269      -0.0000000001     0.873632    0.00000568
  366       -6.1371959270      -0.0000000001     0.873638    0.00000566
  367       -6.1371959271      -0.0000000001     0.873643    0.00000565
  368       -6.1371959271      -0.0000000001     0.873649    0.00000563
  369       -6.1371959272      -0.0000000001     0.873655    0.00000561
  370       -6.1371959273      -0.0000000001     0.873660    0.00000559
  371       -6.1371959274      -0.0000000001     0.873666    0.00000558
  372       -6.1371959275      -0.0000000001     0.873671    0.00000556
  373       -6.1371959275      -0.0000000001     0.873677    0.00000554
  374       -6.1371959276      -0.0000000001     0.873683    0.00000553
  375       -6.1371959277      -0.0000000001     0.873688    0.00000551
  376       -6.1371959278      -0.0000000001     0.873694    0.00000549
  377       -6.1371959279      -0.0000000001     0.873699    0.00000548
  378       -6.1371959279      -0.0000000001     0.873705    0.00000546
  379       -6.1371959280      -0.0000000001     0.873710    0.00000544
  380       -6.1371959281      -0.0000000001     0.873716    0.00000543
  381       -6.1371959282      -0.0000000001     0.873721    0.00000541
  382       -6.1371959282      -0.0000000001     0.873726    0.00000540
  383       -6.1371959283      -0.0000000001     0.873732    0.00000538
  384       -6.1371959284      -0.0000000001     0.873737    0.00000537
  385       -6.1371959285      -0.0000000001     0.873743    0.00000535
  386       -6.1371959285      -0.0000000001     0.873748    0.00000534
  387       -6.1371959286      -0.0000000001     0.873753    0.00000532
  388       -6.1371959287      -0.0000000001     0.873759    0.00000531
  389       -6.1371959288      -0.0000000001     0.873764    0.00000529
  390       -6.1371959288      -0.0000000001     0.873769    0.00000528
  391       -6.1371959289      -0.0000000001     0.873774    0.00000526
  392       -6.1371959290      -0.0000000001     0.873780    0.00000525
  393       -6.1371959290      -0.0000000001     0.873785    0.00000524
  394       -6.1371959291      -0.0000000001     0.873790    0.00000522
  395       -6.1371959292      -0.0000000001     0.873795    0.00000521
  396       -6.1371959293      -0.0000000001     0.873801    0.00000520
  397       -6.1371959293      -0.0000000001     0.873806    0.00000518
  398       -6.1371959294      -0.0000000001     0.873811    0.00000517
  399       -6.1371959295      -0.0000000001     0.873816    0.00000516
  400       -6.1371959295      -0.0000000001     0.873821    0.00000514
  401       -6.1371959296      -0.0000000001     0.873827    0.00000513
  402       -6.1371959297      -0.0000000001     0.873832    0.00000512
  403       -6.1371959297      -0.0000000001     0.873837    0.00000511
  404       -6.1371959298      -0.0000000001     0.873842    0.00000509
  405       -6.1371959299      -0.0000000001     0.873847    0.00000508
  406       -6.1371959299      -0.0000000001     0.873852    0.00000507
  407       -6.1371959300      -0.0000000001     0.873857    0.00000506
  408       -6.1371959301      -0.0000000001     0.873862    0.00000505
  409       -6.1371959301      -0.0000000001     0.873867    0.00000503
  410       -6.1371959302      -0.0000000001     0.873872    0.00000502
  411       -6.1371959303      -0.0000000001     0.873877    0.00000501
  412       -6.1371959303      -0.0000000001     0.873882    0.00000500
  413       -6.1371959304      -0.0000000001     0.873887    0.00000499
  414       -6.1371959305      -0.0000000001     0.873892    0.00000498
  415       -6.1371959305      -0.0000000001     0.873897    0.00000497
  416       -6.1371959306      -0.0000000001     0.873902    0.00000496
  417       -6.1371959306      -0.0000000001     0.873907    0.00000494
  418       -6.1371959307      -0.0000000001     0.873912    0.00000493
  419       -6.1371959308      -0.0000000001     0.873917    0.00000492
  420       -6.1371959308      -0.0000000001     0.873922    0.00000491
  421       -6.1371959309      -0.0000000001     0.873927    0.00000490
  422       -6.1371959310      -0.0000000001     0.873932    0.00000489
  423       -6.1371959310      -0.0000000001     0.873937    0.00000488
  424       -6.1371959311      -0.0000000001     0.873942    0.00000487
  425       -6.1371959311      -0.0000000001     0.873947    0.00000486
  426       -6.1371959312      -0.0000000001     0.873952    0.00000485
  427       -6.1371959313      -0.0000000001     0.873957    0.00000484
  428       -6.1371959313      -0.0000000001     0.873961    0.00000483
  429       -6.1371959314      -0.0000000001     0.873966    0.00000482
  430       -6.1371959314      -0.0000000001     0.873971    0.00000481
  431       -6.1371959315      -0.0000000001     0.873976    0.00000481
  432       -6.1371959316      -0.0000000001     0.873981    0.00000480
  433       -6.1371959316      -0.0000000001     0.873986    0.00000479
  434       -6.1371959317      -0.0000000001     0.873990    0.00000478
  435       -6.1371959317      -0.0000000001     0.873995    0.00000477
  436       -6.1371959318      -0.0000000001     0.874000    0.00000476
  437       -6.1371959319      -0.0000000001     0.874005    0.00000475
  438       -6.1371959319      -0.0000000001     0.874009    0.00000474
  439       -6.1371959320      -0.0000000001     0.874014    0.00000474
  440       -6.1371959320      -0.0000000001     0.874019    0.00000473
  441       -6.1371959321      -0.0000000001     0.874024    0.00000472
  442       -6.1371959322      -0.0000000001     0.874028    0.00000471
  443       -6.1371959322      -0.0000000001     0.874033    0.00000470
  444       -6.1371959323      -0.0000000001     0.874038    0.00000469
  445       -6.1371959323      -0.0000000001     0.874043    0.00000469
  446       -6.1371959324      -0.0000000001     0.874047    0.00000468
  447       -6.1371959324      -0.0000000001     0.874052    0.00000467
  448       -6.1371959325      -0.0000000001     0.874057    0.00000466
  449       -6.1371959325      -0.0000000001     0.874061    0.00000466
  450       -6.1371959326      -0.0000000001     0.874066    0.00000465
  451       -6.1371959327      -0.0000000001     0.874071    0.00000464
  452       -6.1371959327      -0.0000000001     0.874075    0.00000464
  453       -6.1371959328      -0.0000000001     0.874080    0.00000463
  454       -6.1371959328      -0.0000000001     0.874085    0.00000462
  455       -6.1371959329      -0.0000000001     0.874089    0.00000461
  456       -6.1371959329      -0.0000000001     0.874094    0.00000461
  457       -6.1371959330      -0.0000000001     0.874099    0.00000460
  458       -6.1371959330      -0.0000000001     0.874103    0.00000459
  459       -6.1371959331      -0.0000000001     0.874108    0.00000459
  460       -6.1371959332      -0.0000000001     0.874113    0.00000458
  461       -6.1371959332      -0.0000000001     0.874117    0.00000457
  462       -6.1371959333      -0.0000000001     0.874122    0.00000457
  463       -6.1371959333      -0.0000000001     0.874126    0.00000456
  464       -6.1371959334      -0.0000000001     0.874131    0.00000456
  465       -6.1371959334      -0.0000000001     0.874135    0.00000455
  466       -6.1371959335      -0.0000000001     0.874140    0.00000454
  467       -6.1371959335      -0.0000000001     0.874145    0.00000454
  468       -6.1371959336      -0.0000000001     0.874149    0.00000453
  469       -6.1371959336      -0.0000000001     0.874154    0.00000453
  470       -6.1371959337      -0.0000000001     0.874158    0.00000452
  471       -6.1371959337      -0.0000000001     0.874163    0.00000452
  472       -6.1371959338      -0.0000000001     0.874167    0.00000451
  473       -6.1371959338      -0.0000000001     0.874172    0.00000451
  474       -6.1371959339      -0.0000000001     0.874176    0.00000450
  475       -6.1371959340      -0.0000000001     0.874181    0.00000450
  476       -6.1371959340      -0.0000000001     0.874185    0.00000449
  477       -6.1371959341      -0.0000000001     0.874190    0.00000449
  478       -6.1371959341      -0.0000000001     0.874194    0.00000448
  479       -6.1371959342      -0.0000000001     0.874199    0.00000448
  480       -6.1371959342      -0.0000000001     0.874204    0.00000447
  481       -6.1371959343      -0.0000000001     0.874208    0.00000447
  482       -6.1371959343      -0.0000000001     0.874212    0.00000446
  483       -6.1371959344      -0.0000000001     0.874217    0.00000446
  484       -6.1371959344      -0.0000000001     0.874221    0.00000445
  485       -6.1371959345      -0.0000000001     0.874226    0.00000445
  486       -6.1371959345      -0.0000000001     0.874230    0.00000444
  487       -6.1371959346      -0.0000000001     0.874235    0.00000444
  488       -6.1371959346      -0.0000000001     0.874239    0.00000444
  489       -6.1371959347      -0.0000000001     0.874244    0.00000443
  490       -6.1371959347      -0.0000000001     0.874248    0.00000443
  491       -6.1371959348      -0.0000000001     0.874253    0.00000442
  492       -6.1371959348      -0.0000000001     0.874257    0.00000442
  493       -6.1371959349      -0.0000000001     0.874262    0.00000442
  494       -6.1371959349      -0.0000000001     0.874266    0.00000441
  495       -6.1371959350      -0.0000000001     0.874271    0.00000441
  496       -6.1371959350      -0.0000000001     0.874275    0.00000441
  497       -6.1371959351      -0.0000000001     0.874279    0.00000440
  498       -6.1371959351      -0.0000000000     0.874284    0.00000440
  499       -6.1371959352      -0.0000000000     0.874288    0.00000440
  500       -6.1371959352      -0.0000000000     0.874293    0.00000439
  501       -6.1371959353      -0.0000000000     0.874297    0.00000439
  502       -6.1371959353      -0.0000000000     0.874302    0.00000439
  503       -6.1371959354      -0.0000000000     0.874306    0.00000438
  504       -6.1371959354      -0.0000000000     0.874310    0.00000438
  505       -6.1371959355      -0.0000000000     0.874315    0.00000438
  506       -6.1371959355      -0.0000000000     0.874319    0.00000438
  507       -6.1371959356      -0.0000000000     0.874324    0.00000437
  508       -6.1371959356      -0.0000000000     0.874328    0.00000437
  509       -6.1371959357      -0.0000000000     0.874332    0.00000437
  510       -6.1371959357      -0.0000000000     0.874337    0.00000437
  511       -6.1371959358      -0.0000000000     0.874341    0.00000436
  512       -6.1371959358      -0.0000000000     0.874346    0.00000436
  513       -6.1371959359      -0.0000000000     0.874350    0.00000436
  514       -6.1371959359      -0.0000000000     0.874354    0.00000436
  515       -6.1371959360      -0.0000000000     0.874359    0.00000435
  516       -6.1371959360      -0.0000000000     0.874363    0.00000435
  517       -6.1371959361      -0.0000000000     0.874367    0.00000435
  518       -6.1371959361      -0.0000000000     0.874372    0.00000435
  519       -6.1371959362      -0.0000000000     0.874376    0.00000435
  520       -6.1371959362      -0.0000000000     0.874381    0.00000435
  521       -6.1371959363      -0.0000000000     0.874385    0.00000434
  522       -6.1371959363      -0.0000000000     0.874389    0.00000434
  523       -6.1371959364      -0.0000000000     0.874394    0.00000434
  524       -6.1371959364      -0.0000000000     0.874398    0.00000434
  525       -6.1371959364      -0.0000000000     0.874403    0.00000434
  526       -6.1371959365      -0.0000000000     0.874407    0.00000434
  527       -6.1371959365      -0.0000000000     0.874411    0.00000434
  528       -6.1371959366      -0.0000000000     0.874416    0.00000433
  529       -6.1371959366      -0.0000000000     0.874420    0.00000433
  530       -6.1371959367      -0.0000000000     0.874424    0.00000433
  531       -6.1371959367      -0.0000000000     0.874429    0.00000433
  532       -6.1371959368      -0.0000000000     0.874433    0.00000433
  533       -6.1371959368      -0.0000000000     0.874437    0.00000433
  534       -6.1371959369      -0.0000000000     0.874442    0.00000433
  535       -6.1371959369      -0.0000000000     0.874446    0.00000433
  536       -6.1371959370      -0.0000000000     0.874451    0.00000433
  537       -6.1371959370      -0.0000000000     0.874455    0.00000433
  538       -6.1371959371      -0.0000000000     0.874459    0.00000433
  539       -6.1371959371      -0.0000000000     0.874464    0.00000433
  540       -6.1371959372      -0.0000000000     0.874468    0.00000433
  541       -6.1371959372      -0.0000000000     0.874472    0.00000433
  542       -6.1371959373      -0.0000000000     0.874477    0.00000433
  543       -6.1371959373      -0.0000000000     0.874481    0.00000433
  544       -6.1371959374      -0.0000000000     0.874485    0.00000433
  545       -6.1371959374      -0.0000000000     0.874490    0.00000433
  546       -6.1371959375      -0.0000000000     0.874494    0.00000433
  547       -6.1371959375      -0.0000000000     0.874499    0.00000433
  548       -6.1371959376      -0.0000000000     0.874503    0.00000433
  549       -6.1371959376      -0.0000000000     0.874507    0.00000433
  550       -6.1371959377      -0.0000000000     0.874512    0.00000433
  551       -6.1371959377      -0.0000000000     0.874516    0.00000433
  552       -6.1371959378      -0.0000000000     0.874520    0.00000433
  553       -6.1371959378      -0.0000000000     0.874525    0.00000433
  554       -6.1371959379      -0.0000000000     0.874529    0.00000433
  555       -6.1371959379      -0.0000000000     0.874533    0.00000433
  556       -6.1371959379      -0.0000000000     0.874538    0.00000433
  557       -6.1371959380      -0.0000000000     0.874542    0.00000433
  558       -6.1371959380      -0.0000000000     0.874547    0.00000434
  559       -6.1371959381      -0.0000000000     0.874551    0.00000434
  560       -6.1371959381      -0.0000000000     0.874555    0.00000434
  561       -6.1371959382      -0.0000000000     0.874560    0.00000434
  562       -6.1371959382      -0.0000000000     0.874564    0.00000434
  563       -6.1371959383      -0.0000000000     0.874568    0.00000434
  564       -6.1371959383      -0.0000000000     0.874573    0.00000434
  565       -6.1371959384      -0.0000000000     0.874577    0.00000434
  566       -6.1371959384      -0.0000000000     0.874582    0.00000435
  567       -6.1371959385      -0.0000000000     0.874586    0.00000435
  568       -6.1371959385      -0.0000000000     0.874590    0.00000435
  569       -6.1371959386      -0.0000000000     0.874595    0.00000435
  570       -6.1371959386      -0.0000000000     0.874599    0.00000435
  571       -6.1371959387      -0.0000000000     0.874604    0.00000436
  572       -6.1371959387      -0.0000000000     0.874608    0.00000436
  573       -6.1371959388      -0.0000000000     0.874612    0.00000436
  574       -6.1371959388      -0.0000000000     0.874617    0.00000436
  575       -6.1371959389      -0.0000000000     0.874621    0.00000436
  576       -6.1371959389      -0.0000000000     0.874626    0.00000437
  577       -6.1371959390      -0.0000000000     0.874630    0.00000437
  578       -6.1371959390      -0.0000000000     0.874634    0.00000437
  579       -6.1371959391      -0.0000000000     0.874639    0.00000437
  580       -6.1371959391      -0.0000000000     0.874643    0.00000438
  581       -6.1371959392      -0.0000000000     0.874648    0.00000438
  582       -6.1371959392      -0.0000000000     0.874652    0.00000438
  583       -6.1371959393      -0.0000000000     0.874657    0.00000439
  584       -6.1371959393      -0.0000000000     0.874661    0.00000439
  585       -6.1371959394      -0.0000000000     0.874665    0.00000439
  586       -6.1371959394      -0.0000000000     0.874670    0.00000439
  587       -6.1371959395      -0.0000000000     0.874674    0.00000440
  588       -6.1371959395      -0.0000000000     0.874679    0.00000440
  589       -6.1371959396      -0.0000000000     0.874683    0.00000440
  590       -6.1371959396      -0.0000000001     0.874688    0.00000441
  591       -6.1371959397      -0.0000000001     0.874692    0.00000441
  592       -6.1371959397      -0.0000000001     0.874697    0.00000442
  593       -6.1371959398      -0.0000000001     0.874701    0.00000442
  594       -6.1371959398      -0.0000000001     0.874705    0.00000442
  595       -6.1371959399      -0.0000000001     0.874710    0.00000443
  596       -6.1371959399      -0.0000000001     0.874714    0.00000443
  597       -6.1371959400      -0.0000000001     0.874719    0.00000443
  598       -6.1371959400      -0.0000000001     0.874723    0.00000444
  599       -6.1371959401      -0.0000000001     0.874728    0.00000444
  600       -6.1371959401      -0.0000000001     0.874732    0.00000445
  601       -6.1371959402      -0.0000000001     0.874737    0.00000445
  602       -6.1371959402      -0.0000000001     0.874741    0.00000446
  603       -6.1371959403      -0.0000000001     0.874746    0.00000446
  604       -6.1371959403      -0.0000000001     0.874750    0.00000446
  605       -6.1371959404      -0.0000000001     0.874755    0.00000447
  606       -6.1371959404      -0.0000000001     0.874759    0.00000447
  607       -6.1371959405      -0.0000000001     0.874764    0.00000448
  608       -6.1371959405      -0.0000000001     0.874768    0.00000448
  609       -6.1371959406      -0.0000000001     0.874773    0.00000449
  610       -6.1371959406      -0.0000000001     0.874778    0.00000449
  611       -6.1371959407      -0.0000000001     0.874782    0.00000450
  612       -6.1371959407      -0.0000000001     0.874787    0.00000450
  613       -6.1371959408      -0.0000000001     0.874791    0.00000451
  614       -6.1371959408      -0.0000000001     0.874796    0.00000451
  615       -6.1371959409      -0.0000000001     0.874800    0.00000452
  616       -6.1371959410      -0.0000000001     0.874805    0.00000453
  617       -6.1371959410      -0.0000000001     0.874809    0.00000453
  618       -6.1371959411      -0.0000000001     0.874814    0.00000454
  619       -6.1371959411      -0.0000000001     0.874819    0.00000454
  620       -6.1371959412      -0.0000000001     0.874823    0.00000455
  621       -6.1371959412      -0.0000000001     0.874828    0.00000455
  622       -6.1371959413      -0.0000000001     0.874832    0.00000456
  623       -6.1371959413      -0.0000000001     0.874837    0.00000457
  624       -6.1371959414      -0.0000000001     0.874842    0.00000457
  625       -6.1371959414      -0.0000000001     0.874846    0.00000458
  626       -6.1371959415      -0.0000000001     0.874851    0.00000459
  627       -6.1371959415      -0.0000000001     0.874856    0.00000459
  628       -6.1371959416      -0.0000000001     0.874860    0.00000460
  629       -6.1371959416      -0.0000000001     0.874865    0.00000461
  630       -6.1371959417      -0.0000000001     0.874870    0.00000461
  631       -6.1371959418      -0.0000000001     0.874874    0.00000462
  632       -6.1371959418      -0.0000000001     0.874879    0.00000463
  633       -6.1371959419      -0.0000000001     0.874884    0.00000463
  634       -6.1371959419      -0.0000000001     0.874888    0.00000464
  635       -6.1371959420      -0.0000000001     0.874893    0.00000465
  636       -6.1371959420      -0.0000000001     0.874898    0.00000465
  637       -6.1371959421      -0.0000000001     0.874902    0.00000466
  638       -6.1371959421      -0.0000000001     0.874907    0.00000467
  639       -6.1371959422      -0.0000000001     0.874912    0.00000468
  640       -6.1371959423      -0.0000000001     0.874917    0.00000469
  641       -6.1371959423      -0.0000000001     0.874921    0.00000469
  642       -6.1371959424      -0.0000000001     0.874926    0.00000470
  643       -6.1371959424      -0.0000000001     0.874931    0.00000471
  644       -6.1371959425      -0.0000000001     0.874936    0.00000472
  645       -6.1371959425      -0.0000000001     0.874940    0.00000473
  646       -6.1371959426      -0.0000000001     0.874945    0.00000473
  647       -6.1371959427      -0.0000000001     0.874950    0.00000474
  648       -6.1371959427      -0.0000000001     0.874955    0.00000475
  649       -6.1371959428      -0.0000000001     0.874960    0.00000476
  650       -6.1371959428      -0.0000000001     0.874964    0.00000477
  651       -6.1371959429      -0.0000000001     0.874969    0.00000478
  652       -6.1371959430      -0.0000000001     0.874974    0.00000479
  653       -6.1371959430      -0.0000000001     0.874979    0.00000479
  654       -6.1371959431      -0.0000000001     0.874984    0.00000480
  655       -6.1371959431      -0.0000000001     0.874989    0.00000481
  656       -6.1371959432      -0.0000000001     0.874994    0.00000482
  657       -6.1371959432      -0.0000000001     0.874998    0.00000483
  658       -6.1371959433      -0.0000000001     0.875003    0.00000484
  659       -6.1371959434      -0.0000000001     0.875008    0.00000485
  660       -6.1371959434      -0.0000000001     0.875013    0.00000486
  661       -6.1371959435      -0.0000000001     0.875018    0.00000487
  662       -6.1371959436      -0.0000000001     0.875023    0.00000488
  663       -6.1371959436      -0.0000000001     0.875028    0.00000489
  664       -6.1371959437      -0.0000000001     0.875033    0.00000490
  665       -6.1371959437      -0.0000000001     0.875038    0.00000491
  666       -6.1371959438      -0.0000000001     0.875043    0.00000492
  667       -6.1371959439      -0.0000000001     0.875048    0.00000493
  668       -6.1371959439      -0.0000000001     0.875053    0.00000494
  669       -6.1371959440      -0.0000000001     0.875058    0.00000495
  670       -6.1371959441      -0.0000000001     0.875063    0.00000497
  671       -6.1371959441      -0.0000000001     0.875068    0.00000498
  672       -6.1371959442      -0.0000000001     0.875073    0.00000499
  673       -6.1371959442      -0.0000000001     0.875078    0.00000500
  674       -6.1371959443      -0.0000000001     0.875083    0.00000501
  675       -6.1371959444      -0.0000000001     0.875088    0.00000502
  676       -6.1371959444      -0.0000000001     0.875093    0.00000503
  677       -6.1371959445      -0.0000000001     0.875098    0.00000505
  678       -6.1371959446      -0.0000000001     0.875103    0.00000506
  679       -6.1371959446      -0.0000000001     0.875109    0.00000507
  680       -6.1371959447      -0.0000000001     0.875114    0.00000508
  681       -6.1371959448      -0.0000000001     0.875119    0.00000509
  682       -6.1371959448      -0.0000000001     0.875124    0.00000511
  683       -6.1371959449      -0.0000000001     0.875129    0.00000512
  684       -6.1371959450      -0.0000000001     0.875134    0.00000513
  685       -6.1371959450      -0.0000000001     0.875140    0.00000514
  686       -6.1371959451      -0.0000000001     0.875145    0.00000516
  687       -6.1371959452      -0.0000000001     0.875150    0.00000517
  688       -6.1371959452      -0.0000000001     0.875155    0.00000518
  689       -6.1371959453      -0.0000000001     0.875161    0.00000520
  690       -6.1371959454      -0.0000000001     0.875166    0.00000521
  691       -6.1371959455      -0.0000000001     0.875171    0.00000522
  692       -6.1371959455      -0.0000000001     0.875176    0.00000524
  693       -6.1371959456      -0.0000000001     0.875182    0.00000525
  694       -6.1371959457      -0.0000000001     0.875187    0.00000527
  695       -6.1371959457      -0.0000000001     0.875192    0.00000528
  696       -6.1371959458      -0.0000000001     0.875198    0.00000530
  697       -6.1371959459      -0.0000000001     0.875203    0.00000531
  698       -6.1371959460      -0.0000000001     0.875209    0.00000532
  699       -6.1371959460      -0.0000000001     0.875214    0.00000534
  700       -6.1371959461      -0.0000000001     0.875219    0.00000535
  701       -6.1371959462      -0.0000000001     0.875225    0.00000537
  702       -6.1371959462      -0.0000000001     0.875230    0.00000538
  703       -6.1371959463      -0.0000000001     0.875236    0.00000540
  704       -6.1371959464      -0.0000000001     0.875241    0.00000542
  705       -6.1371959465      -0.0000000001     0.875247    0.00000543
  706       -6.1371959465      -0.0000000001     0.875252    0.00000545
  707       -6.1371959466      -0.0000000001     0.875258    0.00000546
  708       -6.1371959467      -0.0000000001     0.875263    0.00000548
  709       -6.1371959468      -0.0000000001     0.875269    0.00000550
  710       -6.1371959469      -0.0000000001     0.875275    0.00000551
  711       -6.1371959469      -0.0000000001     0.875280    0.00000553
  712       -6.1371959470      -0.0000000001     0.875286    0.00000555
  713       -6.1371959471      -0.0000000001     0.875291    0.00000556
  714       -6.1371959472      -0.0000000001     0.875297    0.00000558
  715       -6.1371959473      -0.0000000001     0.875303    0.00000560
  716       -6.1371959473      -0.0000000001     0.875308    0.00000562
  717       -6.1371959474      -0.0000000001     0.875314    0.00000563
  718       -6.1371959475      -0.0000000001     0.875320    0.00000565
  719       -6.1371959476      -0.0000000001     0.875326    0.00000567
  720       -6.1371959477      -0.0000000001     0.875331    0.00000569
  721       -6.1371959477      -0.0000000001     0.875337    0.00000571
  722       -6.1371959478      -0.0000000001     0.875343    0.00000573
  723       -6.1371959479      -0.0000000001     0.875349    0.00000574
  724       -6.1371959480      -0.0000000001     0.875355    0.00000576
  725       -6.1371959481      -0.0000000001     0.875360    0.00000578
  726       -6.1371959482      -0.0000000001     0.875366    0.00000580
  727       -6.1371959483      -0.0000000001     0.875372    0.00000582
  728       -6.1371959483      -0.0000000001     0.875378    0.00000584
  729       -6.1371959484      -0.0000000001     0.875384    0.00000586
  730       -6.1371959485      -0.0000000001     0.875390    0.00000588
  731       -6.1371959486      -0.0000000001     0.875396    0.00000590
  732       -6.1371959487      -0.0000000001     0.875402    0.00000592
  733       -6.1371959488      -0.0000000001     0.875408    0.00000594
  734       -6.1371959489      -0.0000000001     0.875414    0.00000597
  735       -6.1371959490      -0.0000000001     0.875420    0.00000599
  736       -6.1371959491      -0.0000000001     0.875426    0.00000601
  737       -6.1371959492      -0.0000000001     0.875432    0.00000603
  738       -6.1371959493      -0.0000000001     0.875439    0.00000605
  739       -6.1371959493      -0.0000000001     0.875445    0.00000607
  740       -6.1371959494      -0.0000000001     0.875451    0.00000610
  741       -6.1371959495      -0.0000000001     0.875457    0.00000612
  742       -6.1371959496      -0.0000000001     0.875463    0.00000614
  743       -6.1371959497      -0.0000000001     0.875470    0.00000617
  744       -6.1371959498      -0.0000000001     0.875476    0.00000619
  745       -6.1371959499      -0.0000000001     0.875482    0.00000621
  746       -6.1371959500      -0.0000000001     0.875489    0.00000624
  747       -6.1371959501      -0.0000000001     0.875495    0.00000626
  748       -6.1371959502      -0.0000000001     0.875501    0.00000628
  749       -6.1371959503      -0.0000000001     0.875508    0.00000631
  750       -6.1371959504      -0.0000000001     0.875514    0.00000633
  751       -6.1371959505      -0.0000000001     0.875521    0.00000636
  752       -6.1371959506      -0.0000000001     0.875527    0.00000638
  753       -6.1371959507      -0.0000000001     0.875534    0.00000641
  754       -6.1371959509      -0.0000000001     0.875540    0.00000644
  755       -6.1371959510      -0.0000000001     0.875547    0.00000646
  756       -6.1371959511      -0.0000000001     0.875553    0.00000649
  757       -6.1371959512      -0.0000000001     0.875560    0.00000652
  758       -6.1371959513      -0.0000000001     0.875566    0.00000654
  759       -6.1371959514      -0.0000000001     0.875573    0.00000657
  760       -6.1371959515      -0.0000000001     0.875580    0.00000660
  761       -6.1371959516      -0.0000000001     0.875587    0.00000663
  762       -6.1371959517      -0.0000000001     0.875593    0.00000665
  763       -6.1371959518      -0.0000000001     0.875600    0.00000668
  764       -6.1371959520      -0.0000000001     0.875607    0.00000671
  765       -6.1371959521      -0.0000000001     0.875614    0.00000674
  766       -6.1371959522      -0.0000000001     0.875621    0.00000677
  767       -6.1371959523      -0.0000000001     0.875627    0.00000680
  768       -6.1371959524      -0.0000000001     0.875634    0.00000683
  769       -6.1371959526      -0.0000000001     0.875641    0.00000686
  770       -6.1371959527      -0.0000000001     0.875648    0.00000689
  771       -6.1371959528      -0.0000000001     0.875655    0.00000692
  772       -6.1371959529      -0.0000000001     0.875662    0.00000695
  773       -6.1371959530      -0.0000000001     0.875670    0.00000698
  774       -6.1371959532      -0.0000000001     0.875677    0.00000701
  775       -6.1371959533      -0.0000000001     0.875684    0.00000705
  776       -6.1371959534      -0.0000000001     0.875691    0.00000708
  777       -6.1371959536      -0.0000000001     0.875698    0.00000711
  778       -6.1371959537      -0.0000000001     0.875705    0.00000714
  779       -6.1371959538      -0.0000000001     0.875713    0.00000718
  780       -6.1371959539      -0.0000000001     0.875720    0.00000721
  781       -6.1371959541      -0.0000000001     0.875727    0.00000725
  782       -6.1371959542      -0.0000000001     0.875735    0.00000728
  783       -6.1371959544      -0.0000000001     0.875742    0.00000732
  784       -6.1371959545      -0.0000000001     0.875750    0.00000735
  785       -6.1371959546      -0.0000000001     0.875757    0.00000739
  786       -6.1371959548      -0.0000000001     0.875765    0.00000742
  787       -6.1371959549      -0.0000000001     0.875772    0.00000746
  788       -6.1371959551      -0.0000000001     0.875780    0.00000750
  789       -6.1371959552      -0.0000000001     0.875788    0.00000753
  790       -6.1371959553      -0.0000000001     0.875795    0.00000757
  791       -6.1371959555      -0.0000000001     0.875803    0.00000761
  792       -6.1371959556      -0.0000000001     0.875811    0.00000765
  793       -6.1371959558      -0.0000000002     0.875819    0.00000769
  794       -6.1371959560      -0.0000000002     0.875827    0.00000773
  795       -6.1371959561      -0.0000000002     0.875834    0.00000777
  796       -6.1371959563      -0.0000000002     0.875842    0.00000781
  797       -6.1371959564      -0.0000000002     0.875850    0.00000785
  798       -6.1371959566      -0.0000000002     0.875858    0.00000789
  799       -6.1371959567      -0.0000000002     0.875866    0.00000793
  800       -6.1371959569      -0.0000000002     0.875875    0.00000797
  801       -6.1371959571      -0.0000000002     0.875883    0.00000802
  802       -6.1371959572      -0.0000000002     0.875891    0.00000806
  803       -6.1371959574      -0.0000000002     0.875899    0.00000810
  804       -6.1371959576      -0.0000000002     0.875907    0.00000815
  805       -6.1371959577      -0.0000000002     0.875916    0.00000819
  806       -6.1371959579      -0.0000000002     0.875924    0.00000824
  807       -6.1371959581      -0.0000000002     0.875933    0.00000828
  808       -6.1371959583      -0.0000000002     0.875941    0.00000833
  809       -6.1371959584      -0.0000000002     0.875950    0.00000838
  810       -6.1371959586      -0.0000000002     0.875958    0.00000842
  811       -6.1371959588      -0.0000000002     0.875967    0.00000847
  812       -6.1371959590      -0.0000000002     0.875975    0.00000852
  813       -6.1371959592      -0.0000000002     0.875984    0.00000857
  814       -6.1371959594      -0.0000000002     0.875993    0.00000862
  815       -6.1371959596      -0.0000000002     0.876002    0.00000867
  816       -6.1371959598      -0.0000000002     0.876011    0.00000872
  817       -6.1371959599      -0.0000000002     0.876019    0.00000877
  818       -6.1371959601      -0.0000000002     0.876028    0.00000882
  819       -6.1371959603      -0.0000000002     0.876037    0.00000888
  820       -6.1371959605      -0.0000000002     0.876047    0.00000893
  821       -6.1371959608      -0.0000000002     0.876056    0.00000898
  822       -6.1371959610      -0.0000000002     0.876065    0.00000904
  823       -6.1371959612      -0.0000000002     0.876074    0.00000909
  824       -6.1371959614      -0.0000000002     0.876083    0.00000915
  825       -6.1371959616      -0.0000000002     0.876093    0.00000920
  826       -6.1371959618      -0.0000000002     0.876102    0.00000926
  827       -6.1371959620      -0.0000000002     0.876112    0.00000932
  828       -6.1371959623      -0.0000000002     0.876121    0.00000938
  829       -6.1371959625      -0.0000000002     0.876131    0.00000944
  830       -6.1371959627      -0.0000000002     0.876141    0.00000950
  831       -6.1371959630      -0.0000000002     0.876150    0.00000956
  832       -6.1371959632      -0.0000000002     0.876160    0.00000962
  833       -6.1371959634      -0.0000000002     0.876170    0.00000968
  834       -6.1371959637      -0.0000000002     0.876180    0.00000974
  835       -6.1371959639      -0.0000000002     0.876190    0.00000981
  836       -6.1371959642      -0.0000000002     0.876200    0.00000987
  837       -6.1371959644      -0.0000000003     0.876210    0.00000994
  838       -6.1371959647      -0.0000000003     0.876220    0.00001000
  839       -6.1371959649      -0.0000000003     0.876230    0.00001007
  840       -6.1371959652      -0.0000000003     0.876241    0.00001014
  841       -6.1371959655      -0.0000000003     0.876251    0.00001021
  842       -6.1371959657      -0.0000000003     0.876262    0.00001028
  843       -6.1371959660      -0.0000000003     0.876272    0.00001035
  844       -6.1371959663      -0.0000000003     0.876283    0.00001042
  845       -6.1371959665      -0.0000000003     0.876294    0.00001049
  846       -6.1371959668      -0.0000000003     0.876304    0.00001056
  847       -6.1371959671      -0.0000000003     0.876315    0.00001064
  848       -6.1371959674      -0.0000000003     0.876326    0.00001071
  849       -6.1371959677      -0.0000000003     0.876337    0.00001079
  850       -6.1371959680      -0.0000000003     0.876348    0.00001087
  851       -6.1371959683      -0.0000000003     0.876359    0.00001094
  852       -6.1371959686      -0.0000000003     0.876371    0.00001102
  853       -6.1371959689      -0.0000000003     0.876382    0.00001110
  854       -6.1371959692      -0.0000000003     0.876393    0.00001118
  855       -6.1371959696      -0.0000000003     0.876405    0.00001127
  856       -6.1371959699      -0.0000000003     0.876416    0.00001135
  857       -6.1371959702      -0.0000000003     0.876428    0.00001144
  858       -6.1371959706      -0.0000000003     0.876440    0.00001152
  859       -6.1371959709      -0.0000000003     0.876452    0.00001161
  860       -6.1371959713      -0.0000000003     0.876463    0.00001170
  861       -6.1371959716      -0.0000000004     0.876476    0.00001179
  862       -6.1371959720      -0.0000000004     0.876488    0.00001188
  863       -6.1371959723      -0.0000000004     0.876500    0.00001197
  864       -6.1371959727      -0.0000000004     0.876512    0.00001206
  865       -6.1371959731      -0.0000000004     0.876525    0.00001216
  866       -6.1371959735      -0.0000000004     0.876537    0.00001225
  867       -6.1371959738      -0.0000000004     0.876550    0.00001235
  868       -6.1371959742      -0.0000000004     0.876562    0.00001245
  869       -6.1371959746      -0.0000000004     0.876575    0.00001255
  870       -6.1371959750      -0.0000000004     0.876588    0.00001265
  871       -6.1371959755      -0.0000000004     0.876601    0.00001275
  872       -6.1371959759      -0.0000000004     0.876614    0.00001286
  873       -6.1371959763      -0.0000000004     0.876627    0.00001296
  874       -6.1371959767      -0.0000000004     0.876641    0.00001307
  875       -6.1371959772      -0.0000000004     0.876654    0.00001318
  876       -6.1371959776      -0.0000000004     0.876668    0.00001329
  877       -6.1371959781      -0.0000000005     0.876681    0.00001340
  878       -6.1371959785      -0.0000000005     0.876695    0.00001351
  879       -6.1371959790      -0.0000000005     0.876709    0.00001363
  880       -6.1371959795      -0.0000000005     0.876723    0.00001375
  881       -6.1371959800      -0.0000000005     0.876737    0.00001387
  882       -6.1371959805      -0.0000000005     0.876752    0.00001399
  883       -6.1371959810      -0.0000000005     0.876766    0.00001411
  884       -6.1371959815      -0.0000000005     0.876781    0.00001423
  885       -6.1371959820      -0.0000000005     0.876795    0.00001436
  886       -6.1371959825      -0.0000000005     0.876810    0.00001449
  887       -6.1371959831      -0.0000000005     0.876825    0.00001462
  888       -6.1371959836      -0.0000000006     0.876840    0.00001475
  889       -6.1371959842      -0.0000000006     0.876855    0.00001489
  890       -6.1371959848      -0.0000000006     0.876871    0.00001502
  891       -6.1371959853      -0.0000000006     0.876886    0.00001516
  892       -6.1371959859      -0.0000000006     0.876902    0.00001530
  893       -6.1371959865      -0.0000000006     0.876918    0.00001545
  894       -6.1371959872      -0.0000000006     0.876934    0.00001559
  895       -6.1371959878      -0.0000000006     0.876950    0.00001574
  896       -6.1371959884      -0.0000000006     0.876966    0.00001589
  897       -6.1371959891      -0.0000000007     0.876982    0.00001604
  898       -6.1371959897      -0.0000000007     0.876999    0.00001620
  899       -6.1371959904      -0.0000000007     0.877016    0.00001636
  900       -6.1371959911      -0.0000000007     0.877033    0.00001652
  901       -6.1371959918      -0.0000000007     0.877050    0.00001668
  902       -6.1371959925      -0.0000000007     0.877067    0.00001685
  903       -6.1371959933      -0.0000000007     0.877084    0.00001701
  904       -6.1371959940      -0.0000000007     0.877102    0.00001719
  905       -6.1371959948      -0.0000000008     0.877120    0.00001736
  906       -6.1371959955      -0.0000000008     0.877138    0.00001754
  907       -6.1371959963      -0.0000000008     0.877156    0.00001772
  908       -6.1371959971      -0.0000000008     0.877174    0.00001790
  909       -6.1371959980      -0.0000000008     0.877193    0.00001809
  910       -6.1371959988      -0.0000000008     0.877211    0.00001828
  911       -6.1371959997      -0.0000000009     0.877230    0.00001847
  912       -6.1371960006      -0.0000000009     0.877249    0.00001867
  913       -6.1371960015      -0.0000000009     0.877269    0.00001887
  914       -6.1371960024      -0.0000000009     0.877288    0.00001907
  915       -6.1371960033      -0.0000000009     0.877308    0.00001928
  916       -6.1371960043      -0.0000000010     0.877328    0.00001949
  917       -6.1371960052      -0.0000000010     0.877348    0.00001971
  918       -6.1371960062      -0.0000000010     0.877369    0.00001993
  919       -6.1371960073      -0.0000000010     0.877389    0.00002015
  920       -6.1371960083      -0.0000000010     0.877410    0.00002038
  921       -6.1371960094      -0.0000000011     0.877431    0.00002061
  922       -6.1371960105      -0.0000000011     0.877453    0.00002084
  923       -6.1371960116      -0.0000000011     0.877474    0.00002108
  924       -6.1371960127      -0.0000000011     0.877496    0.00002133
  925       -6.1371960139      -0.0000000012     0.877518    0.00002158
  926       -6.1371960151      -0.0000000012     0.877541    0.00002183
  927       -6.1371960163      -0.0000000012     0.877563    0.00002209
  928       -6.1371960176      -0.0000000013     0.877586    0.00002236
  929       -6.1371960189      -0.0000000013     0.877610    0.00002263
  930       -6.1371960202      -0.0000000013     0.877633    0.00002290
  931       -6.1371960216      -0.0000000014     0.877657    0.00002318
  932       -6.1371960230      -0.0000000014     0.877681    0.00002347
  933       -6.1371960244      -0.0000000014     0.877705    0.00002376
  934       -6.1371960258      -0.0000000015     0.877730    0.00002406
  935       -6.1371960273      -0.0000000015     0.877755    0.00002436
  936       -6.1371960289      -0.0000000015     0.877781    0.00002467
  937       -6.1371960304      -0.0000000016     0.877806    0.00002499
  938       -6.1371960320      -0.0000000016     0.877832    0.00002531
  939       -6.1371960337      -0.0000000017     0.877859    0.00002564
  940       -6.1371960354      -0.0000000017     0.877885    0.00002598
  941       -6.1371960371      -0.0000000017     0.877912    0.00002632
  942       -6.1371960389      -0.0000000018     0.877940    0.00002668
  943       -6.1371960407      -0.0000000018     0.877968    0.00002703
  944       -6.1371960426      -0.0000000019     0.877996    0.00002740
  945       -6.1371960446      -0.0000000019     0.878024    0.00002778
  946       -6.1371960465      -0.0000000020     0.878053    0.00002816
  947       -6.1371960486      -0.0000000020     0.878083    0.00002855
  948       -6.1371960507      -0.0000000021     0.878113    0.00002895
  949       -6.1371960529      -0.0000000022     0.878143    0.00002936
  950       -6.1371960551      -0.0000000022     0.878173    0.00002978
  951       -6.1371960574      -0.0000000023     0.878205    0.00003021
  952       -6.1371960597      -0.0000000024     0.878236    0.00003065
  953       -6.1371960621      -0.0000000024     0.878268    0.00003110
  954       -6.1371960646      -0.0000000025     0.878301    0.00003156
  955       -6.1371960672      -0.0000000026     0.878334    0.00003203
  956       -6.1371960698      -0.0000000026     0.878367    0.00003251
  957       -6.1371960726      -0.0000000027     0.878401    0.00003300
  958       -6.1371960754      -0.0000000028     0.878436    0.00003351
  959       -6.1371960783      -0.0000000029     0.878471    0.00003403
  960       -6.1371960813      -0.0000000030     0.878507    0.00003456
  961       -6.1371960843      -0.0000000031     0.878543    0.00003510
  962       -6.1371960875      -0.0000000032     0.878580    0.00003566
  963       -6.1371960908      -0.0000000033     0.878617    0.00003623
  964       -6.1371960942      -0.0000000034     0.878655    0.00003682
  965       -6.1371960977      -0.0000000035     0.878694    0.00003742
  966       -6.1371961013      -0.0000000036     0.878733    0.00003804
  967       -6.1371961050      -0.0000000037     0.878773    0.00003867
  968       -6.1371961089      -0.0000000039     0.878813    0.00003932
  969       -6.1371961128      -0.0000000040     0.878855    0.00003999
  970       -6.1371961170      -0.0000000041     0.878897    0.00004067
  971       -6.1371961212      -0.0000000043     0.878940    0.00004138
  972       -6.1371961257      -0.0000000044     0.878983    0.00004210
  973       -6.1371961302      -0.0000000046     0.879027    0.00004284
  974       -6.1371961350      -0.0000000047     0.879073    0.00004361
  975       -6.1371961399      -0.0000000049     0.879118    0.00004439
  976       -6.1371961449      -0.0000000051     0.879165    0.00004520
  977       -6.1371961502      -0.0000000053     0.879213    0.00004603
  978       -6.1371961557      -0.0000000055     0.879261    0.00004689
  979       -6.1371961613      -0.0000000057     0.879311    0.00004777
  980       -6.1371961672      -0.0000000059     0.879361    0.00004867
  981       -6.1371961733      -0.0000000061     0.879413    0.00004961
  982       -6.1371961797      -0.0000000063     0.879465    0.00005057
  983       -6.1371961863      -0.0000000066     0.879519    0.00005156
  984       -6.1371961931      -0.0000000069     0.879573    0.00005259
  985       -6.1371962003      -0.0000000071     0.879629    0.00005364
  986       -6.1371962077      -0.0000000074     0.879686    0.00005473
  987       -6.1371962154      -0.0000000077     0.879744    0.00005585
  988       -6.1371962234      -0.0000000080     0.879803    0.00005701
  989       -6.1371962318      -0.0000000084     0.879863    0.00005821
  990       -6.1371962406      -0.0000000087     0.879925    0.00005944
  991       -6.1371962497      -0.0000000091     0.879988    0.00006072
  992       -6.1371962592      -0.0000000095     0.880053    0.00006204
  993       -6.1371962691      -0.0000000099     0.880119    0.00006341
  994       -6.1371962795      -0.0000000104     0.880186    0.00006482
  995       -6.1371962903      -0.0000000108     0.880255    0.00006628
  996       -6.1371963017      -0.0000000113     0.880326    0.00006779
  997       -6.1371963135      -0.0000000119     0.880398    0.00006936
  998       -6.1371963259      -0.0000000124     0.880472    0.00007099
  999       -6.1371963389      -0.0000000130     0.880548    0.00007267
 1000       -6.1371963525      -0.0000000136     0.880625    0.00007442

Total Energy:                       -6.1371963525 H         -167.0016 eV
Extrapolated to 0:                  -6.1888873007 H         -168.4082 eV

----------------------------------------------------------------------------------
 Solving CP-REKS equation for  1 state vector...
----------------------------------------------------------------------------------
  CG solver: Constructing Y initial guess
  CG solver: Iteration    1    eps =    0.307279674997
  CG solver: Iteration    2    eps =    0.030795188956
  CG solver: Iteration    3    eps =    0.003984069181
  CG solver: Iteration    4    eps =    0.004728725286
  CG solver: Iteration    5    eps =    0.001624738509
  CG solver: Iteration    6    eps =    0.000245119121
  CG solver: Iteration    7    eps =    0.000060880188
  CG solver: Iteration    8    eps =    0.000005979592
  CG solver: Iteration    9    eps =    0.000003432975
  CG solver: Iteration   10    eps =    0.000000285743
  CG solver: Iteration   11    eps =    0.000000019518
  CG solver: Iteration   12    eps =    0.000000001061
  Convergence reached in CG solver after   12 iterations
  CG solver: Calculating converged R, Z, Q2 matrix
----------------------------------------------------------------------------------

----------------------------------------------------------------------------------
 Solving CP-REKS equation for SI between  1 and  2 state vectors...
----------------------------------------------------------------------------------
  CG solver: Constructing Y initial guess
  CG solver: Iteration    1    eps =    0.004864225755
  CG solver: Iteration    2    eps =    0.006326385613
  CG solver: Iteration    3    eps =    0.001385409446
  CG solver: Iteration    4    eps =    0.000884262045
  CG solver: Iteration    5    eps =    0.000037605694
  CG solver: Iteration    6    eps =    0.000007330497
  CG solver: Iteration    7    eps =    0.000001575347
  CG solver: Iteration    8    eps =    0.000000122361
  CG solver: Iteration    9    eps =    0.000000012725
  CG solver: Iteration   10    eps =    0.000000004211
  Convergence reached in CG solver after   10 iterations
  CG solver: Calculating converged R, Z, Q2 matrix
----------------------------------------------------------------------------------

--------------------------------------------------
 Gradient Information
--------------------------------------------------
           1 st state (SSR)
     0.00000000     0.00000000     0.00000000
     0.00000000     0.00000000     0.00000000
     0.00000000     0.00000000     0.00000000
     0.00000000     0.00000000     0.00000000
     0.00000000     0.00000000     0.00000000
     0.00000000     0.00000000     0.00000000

           2 st state (SSR)
     0.00000000     0.00000000     0.00000000
     0.00000000     0.00000000     0.00000000
     0.00000000     0.00000000     0.00000000
     0.00000000     0.00000000     0.00000000
     0.00000000     0.00000000     0.00000000
     0.00000000     0.00000000     0.00000000
--------------------------------------------------
 Coupling Information
--------------------------------------------------
 between  1 and  2 states
--------------------------------------------------
 g vector - difference gradient
     0.72998147     0.34796058     0.09065395
    -0.09378551     0.22179691     0.17038330
    -0.08975057    -0.17104595    -0.10541596
    -0.35247716     0.17844087     0.09308714
     0.03203582    -0.27152701    -0.20331811
    -0.22600404    -0.30562541    -0.04539032

 h vector - derivative coupling
     0.00065834    -0.00578430    -0.00311848
    -0.00092035     0.00021523     0.00429885
    -0.00130504     0.00264166     0.00047485
     0.00177915     0.00210575    -0.00138564
    -0.00178459    -0.00092974    -0.00109845
     0.00157250     0.00175141     0.00082887

 G vector - GDV
     0.00000000     0.00000000     0.00000000
     0.00000000     0.00000000     0.00000000
     0.00000000     0.00000000     0.00000000
     0.00000000     0.00000000     0.00000000
     0.00000000     0.00000000     0.00000000
     0.00000000     0.00000000     0.00000000

 H vector - DCV - non-adiabatic coupling
     0.00000000     0.00000000     0.00000000
     0.00000000     0.00000000     0.00000000
     0.00000000     0.00000000     0.00000000
     0.00000000     0.00000000     0.00000000
     0.00000000     0.00000000     0.00000000
     0.00000000     0.00000000     0.00000000
--------------------------------------------------

WARNING!
-> SCC is NOT converged, maximal SCC iterations exceeded

--------------------------------------------------------------------------------
DFTB+ running times                          cpu [s]             wall clock [s]
--------------------------------------------------------------------------------
SCC                                    +     0.43  ( 96.9%)      0.43  ( 96.2%)
      Sparse to dense                        0.02  (  4.5%)      0.01  (  2.9%)
      Dense to sparse                        0.07  ( 15.0%)      0.07  ( 15.5%)
      Range separated Hamiltonian            0.03  (  6.3%)      0.04  (  8.6%)
  Density matrix creation                    0.05  ( 11.7%)      0.05  ( 10.4%)
  Force calculation                          0.01  (  2.8%)      0.01  (  2.7%)
--------------------------------------------------------------------------------
Missing                                +     0.01  (  3.1%)      0.02  (  3.8%)
Total                                  =     0.44  (100.0%)      0.45  (100.0%)
--------------------------------------------------------------------------------
