     6
  Step:     0            Position(A)                                  Velocity(au)
C        -0.04154246     0.01611421     0.03768857    -0.00011383    -0.00009238    -0.00007087
N        -0.03696563    -0.06532208     1.28215290     0.00012831     0.00004592     0.00009705
H         0.92682153    -0.02821385    -0.53335350     0.00037475     0.00019546     0.00007860
H         0.80994655    -0.08328158     1.85044850    -0.00065466    -0.00000138    -0.00098628
H        -0.95767758     0.05417326     1.84268551    -0.00085404    -0.00022099     0.00037807
H        -0.98331874     0.10326544    -0.53408598     0.00070735     0.00048964     0.00002542
     6
  Step:     1            Position(A)                                  Velocity(au)
C        -0.04214192     0.01561906     0.03686606    -0.00010467    -0.00008909    -0.00022934
N        -0.03631848    -0.06510938     1.28305909     0.00010686     0.00003195     0.00023347
H         0.92892119    -0.02704930    -0.53278448     0.00038872     0.00023151     0.00013055
H         0.80666379    -0.08316024     1.84510299    -0.00053232     0.00004658    -0.00095837
H        -0.96196440     0.05302874     1.84447858    -0.00070624    -0.00019793     0.00027483
H        -0.97969855     0.10606881    -0.53389445     0.00061210     0.00053755     0.00004141
     6
  Step:     2            Position(A)                                  Velocity(au)
C        -0.04268720     0.01513979     0.03518024    -0.00009417    -0.00008669    -0.00038609
N        -0.03579688    -0.06497265     1.28470639     0.00008261     0.00001810     0.00036758
H         0.93107300    -0.02568185    -0.53192568     0.00039365     0.00027013     0.00018394
H         0.80412451    -0.08277208     1.83996667    -0.00038368     0.00009666    -0.00090994
H        -0.96540182     0.05200847     1.84569142    -0.00054532    -0.00017502     0.00016757
H        -0.97662410     0.10914468    -0.53363309     0.00050960     0.00058980     0.00005106
     6
  Step:     3            Position(A)                                  Velocity(au)
C        -0.04317174     0.01467099     0.03264385    -0.00008257    -0.00008528    -0.00053974
N        -0.03541512    -0.06491144     1.28707886     0.00005593     0.00000432     0.00049804
H         0.93322602    -0.02409519    -0.53077290     0.00038874     0.00031171     0.00023720
H         0.80246799    -0.08210316     1.83515206    -0.00021080     0.00014938    -0.00084067
H        -0.96792785     0.05111476     1.84631107    -0.00037448    -0.00015126     0.00005950
H        -0.97412565     0.11251879    -0.53333608     0.00040324     0.00064643     0.00005455
     6
  Step:     4            Position(A)                                  Velocity(au)
C        -0.04359034     0.01420700     0.02927663    -0.00007013    -0.00008478    -0.00068856
N        -0.03518509    -0.06492543     1.29015389     0.00002737    -0.00000934     0.00062329
H         0.93532499    -0.02227238    -0.52933121     0.00037325     0.00035577     0.00028836
H         0.80181876    -0.08113813     1.83077154    -0.00001738     0.00020437    -0.00075093
H        -0.96949788     0.05035398     1.84634222    -0.00019721    -0.00012631    -0.00004599
H        -0.97221357     0.11621521    -0.53303645     0.00029670     0.00070628     0.00005205
     6
  Step:     5            Position(A)                                  Velocity(au)
C        -0.04393928     0.01374302     0.02510751    -0.00005711    -0.00008494    -0.00083016
N        -0.03511558    -0.06501365     1.29390075    -0.00000239    -0.00002265     0.00074127
H         0.93731127    -0.02020128    -0.52761681     0.00034699     0.00040073     0.00033518
H         0.80227775    -0.07986628     1.82693308     0.00019113     0.00026003    -0.00064223
H        -0.97008628     0.04973231     1.84580769    -0.00001758    -0.00010062    -0.00014543
H        -0.97087823     0.12024908    -0.53276637     0.00019328     0.00076684     0.00004367
     6
  Step:     6            Position(A)                                  Velocity(au)
C        -0.04421621     0.01327609     0.02017897    -0.00004377    -0.00008537    -0.00096119
N        -0.03521132    -0.06517362     1.29827745    -0.00003246    -0.00003524     0.00084927
H         0.93912769    -0.01788084    -0.52565803     0.00031101     0.00044410     0.00037536
H         0.80391333    -0.07828848     1.82373337     0.00040755     0.00031376    -0.00051761
H        -0.96969050     0.04925128     1.84474844     0.00015930    -0.00007523    -0.00023538
H        -0.97009547     0.12461898    -0.53255782     0.00009487     0.00082451     0.00002947
     6
  Step:     7            Position(A)                                  Velocity(au)
C        -0.04441996     0.01280551     0.01455266    -0.00003035    -0.00008570    -0.00107747
N        -0.03547203    -0.06540067     1.30322658    -0.00006176    -0.00004672     0.00094392
H         0.94072644    -0.01532460    -0.52349497     0.00026777     0.00048320     0.00040679
H         0.80675311    -0.07642089     1.82124916     0.00062321     0.00036281    -0.00038180
H        -0.96833705     0.04890620     1.84322294     0.00032717    -0.00005109    -0.00031252
H        -0.96983643     0.12930309    -0.53244276     0.00000186     0.00087557     0.00000957
     6
  Step:     8            Position(A)                                  Velocity(au)
C        -0.04455043     0.01233237     0.00831367    -0.00001709    -0.00008565    -0.00117452
N        -0.03589149    -0.06568813     1.30867211    -0.00008909    -0.00005675     0.00102171
H         0.94207638    -0.01255973    -0.52117835     0.00022076     0.00051582     0.00042767
H         0.81077627    -0.07429311     1.81952895     0.00082823     0.00040506    -0.00024082
H        -0.96608767     0.04868864     1.84130693     0.00047893    -0.00002857    -0.00037362
H        -0.97007498     0.13426097    -0.53245239    -0.00008613     0.00091696    -0.00001562
     6
  Step:     9            Position(A)                                  Velocity(au)
C        -0.04460886     0.01185883     0.00157094    -0.00000431    -0.00008510    -0.00124848
N        -0.03645678    -0.06602790     1.31451928    -0.00011318    -0.00006512     0.00107962
H         0.94316644    -0.00962331    -0.51876806     0.00017378     0.00054057     0.00043662
H         0.81590738    -0.07194386     1.81858740     0.00101227     0.00043922    -0.00010141
H        -0.96304348     0.04859038     1.83909342     0.00060724    -0.00000742    -0.00041570
H        -0.97078843     0.13943804    -0.53261541    -0.00016919     0.00094664    -0.00004535
     6
  Step:    10            Position(A)                                  Velocity(au)
C        -0.04459825     0.01138759    -0.00554680     0.00000763    -0.00008402    -0.00129700
N        -0.03714795    -0.06641106     1.32065789    -0.00013283    -0.00007176     0.00111592
H         0.94400570    -0.00655835    -0.51633101     0.00013041     0.00055693     0.00043298
H         0.82201432    -0.06941693     1.81840309     0.00116579     0.00046482     0.00002983
H        -0.95934615     0.04860627     1.83669185     0.00070543     0.00001299    -0.00043643
H        -0.97195332     0.14477040    -0.53295583    -0.00024667     0.00096372    -0.00007844
     6
  Step:    11            Position(A)                                  Velocity(au)
C        -0.04452373     0.01092141    -0.01289933     0.00001835    -0.00008249    -0.00132008
N        -0.03793872    -0.06682849     1.32696922    -0.00014720    -0.00007674     0.00113079
H         0.94462140    -0.00340985    -0.51393746     0.00009363     0.00056529     0.00041698
H         0.82891380    -0.06675803     1.81892015     0.00128186     0.00048212     0.00014727
H        -0.95517320     0.04873534     1.83422430     0.00076879     0.00003339    -0.00043468
H        -0.97354043     0.15018994    -0.53349053    -0.00031739     0.00096863    -0.00011341
     6
  Step:    12            Position(A)                                  Velocity(au)
C        -0.04439253     0.01046270    -0.02034772     0.00002755    -0.00008067    -0.00132057
N        -0.03879833    -0.06727150     1.33333653    -0.00015593    -0.00008029     0.00112681
H         0.94505550    -0.00022028    -0.51165573     0.00006561     0.00056706     0.00038996
H         0.83638671    -0.06401135     1.82005430     0.00135764     0.00049221     0.00024715
H        -0.95072639     0.04898060     1.83181809     0.00079561     0.00005446    -0.00041101
H        -0.97551193     0.15563086    -0.53422736    -0.00038026     0.00096333    -0.00014870
     6
  Step:    13            Position(A)                                  Velocity(au)
C        -0.04421349     0.01001305    -0.02776992     0.00003509    -0.00007880    -0.00130393
N        -0.03969459    -0.06773265     1.33965792    -0.00015926    -0.00008279     0.00110865
H         0.94536020     0.00297562    -0.50954619     0.00004759     0.00056453     0.00035410
H         0.84420174    -0.06121535     1.82170318     0.00139499     0.00049696     0.00032806
H        -0.94621410     0.04934857     1.82959607     0.00078744     0.00007688    -0.00036747
H        -0.97782241     0.16103769    -0.53516496    -0.00043494     0.00095114    -0.00018320
     6
  Step:    14            Position(A)                                  Velocity(au)
C        -0.04399626     0.00957275    -0.03507420     0.00006258    -0.00011789    -0.00195057
N        -0.04059700    -0.06820653     1.34585752    -0.00024113    -0.00012937     0.00165289
H         0.94559298     0.00615547    -0.50765658     0.00006110     0.00085613     0.00047631
H         0.85214153    -0.05839870     1.82375935     0.00213764     0.00076173     0.00059713
H        -0.94183309     0.04984891     1.82766793     0.00114287     0.00015484    -0.00046887
H        -0.98042409     0.16637290    -0.53629638    -0.00073637     0.00142996    -0.00033070
     6
  Step:    15            Position(A)                                  Velocity(au)
C        -0.04364260     0.00891276    -0.04562717     0.00003825    -0.00007179    -0.00110242
N        -0.04192909    -0.06891266     1.35483105    -0.00014062    -0.00007463     0.00094069
H         0.94622766     0.01086383    -0.50545510     0.00010366     0.00050191     0.00018754
H         0.86408154    -0.05421800     1.82730267     0.00127823     0.00044451     0.00039840
H        -0.93565129     0.05069638     1.82527825     0.00063336     0.00009155    -0.00022578
H        -0.98488339     0.17431380    -0.53860147    -0.00051698     0.00085458    -0.00029589
     6
  Step:    16            Position(A)                                  Velocity(au)
C        -0.04341726     0.00850911    -0.05177281     0.00004074    -0.00007110    -0.00106984
N        -0.04269804    -0.06934072     1.36006427    -0.00012980    -0.00007672     0.00090914
H         0.94683481     0.01369982    -0.50452904     0.00011453     0.00050150     0.00013896
H         0.87117392    -0.05170053     1.82965200     0.00121955     0.00044528     0.00042618
H        -0.93233607     0.05130795     1.82426033     0.00052913     0.00012590    -0.00012953
H        -0.98789754     0.17910730    -0.54035002    -0.00054487     0.00084059    -0.00032112
     6
  Step:    17            Position(A)                                  Velocity(au)
C        -0.04318201     0.00810889    -0.05772372     0.00004219    -0.00007123    -0.00104394
N        -0.04339670    -0.06978007     1.36511060    -0.00011715    -0.00007940     0.00088339
H         0.94752264     0.01653417    -0.50388390     0.00013297     0.00050624     0.00008939
H         0.87787083    -0.04918323     1.83212140     0.00115091     0.00044878     0.00044600
H        -0.92966853     0.05211995     1.82381368     0.00041049     0.00016385    -0.00002534
H        -0.99104410     0.18381828    -0.54223229    -0.00056918     0.00083331    -0.00034637
     6
  Step:    18            Position(A)                                  Velocity(au)
C        -0.04294252     0.00770764    -0.06351826     0.00004259    -0.00007196    -0.00102203
N        -0.04401611    -0.07023401     1.37000339    -0.00010266    -0.00008250     0.00086113
H         0.94833085     0.01939559    -0.50352335     0.00015795     0.00051491     0.00003844
H         0.88412288    -0.04665124     1.83467003     0.00107075     0.00045384     0.00045848
H        -0.92771764     0.05315144     1.82397518     0.00027893     0.00020519     0.00008579
H        -0.99430144     0.18848295    -0.54424705    -0.00058845     0.00083011    -0.00037080
     6
  Step:    19            Position(A)                                  Velocity(au)
C        -0.04270461     0.00730224    -0.06917987     0.00004187    -0.00007304    -0.00100152
N        -0.04454749    -0.07070488     1.37476324    -0.00008646    -0.00008584     0.00084019
H         0.94929317     0.02230594    -0.50345302     0.00018827     0.00052621    -0.00001387
H         0.88987307    -0.04409599     1.83726063     0.00097798     0.00045927     0.00046392
H        -0.92654191     0.05441995     1.82477530     0.00013730     0.00024930     0.00020190
H        -0.99764016     0.19312322    -0.54638871    -0.00060101     0.00082845    -0.00039343
     6
  Step:    20            Position(A)                                  Velocity(au)
C        -0.04247426     0.00689085    -0.07471767     0.00004004    -0.00007428    -0.00098056
N        -0.04498296    -0.07119389     1.37939877    -0.00006886    -0.00008921     0.00081906
H         0.95043620     0.02527991    -0.50367841     0.00022256     0.00053910    -0.00006713
H         0.89505904    -0.04151545     1.83985783     0.00087277     0.00046413     0.00046279
H        -0.92618223     0.05593921     1.82623291    -0.00001005     0.00029530     0.00032016
H        -1.00102223     0.19774705    -0.54864653    -0.00060556     0.00082635    -0.00041339
     6
  Step:    21            Position(A)                                  Velocity(au)
C        -0.04225742     0.00647272    -0.08013049     0.00003714    -0.00007553    -0.00095805
N        -0.04531647    -0.07170120     1.38391027    -0.00005033    -0.00009248     0.00079689
H         0.95177872     0.02832650    -0.50420272     0.00025935     0.00055285    -0.00012067
H         0.89961998    -0.03891273     1.84242897     0.00075655     0.00046777     0.00045582
H        -0.92665414     0.05771783     1.82835073    -0.00015772     0.00034218     0.00043721
H        -1.00440294     0.20235167    -0.55100532    -0.00060131     0.00082246    -0.00043008
     6
  Step:    22            Position(A)                                  Velocity(au)
C        -0.04205969     0.00604780    -0.08541112     0.00003327    -0.00007671    -0.00093351
N        -0.04554475    -0.07222616     1.38829341    -0.00003147    -0.00009553     0.00077337
H         0.95333103     0.03145059    -0.50502534     0.00029712     0.00056695    -0.00017368
H         0.90350335    -0.03629433     1.84494552     0.00063164     0.00046985     0.00044399
H        -0.92794265     0.05975850     1.83111292    -0.00029983     0.00038886     0.00054959
H        -1.00773379     0.20692701    -0.55344693    -0.00058797     0.00081596    -0.00044317
     6
  Step:    23            Position(A)                                  Velocity(au)
C        -0.04188609     0.00561660    -0.09054949     0.00002857    -0.00007774    -0.00090685
N        -0.04566776    -0.07276746     1.39254192    -0.00001290    -0.00009828     0.00074850
H         0.95509487     0.03465430    -0.50614116     0.00033434     0.00058111    -0.00022529
H         0.90666977    -0.03366871     1.84738438     0.00050095     0.00047020     0.00042846
H        -0.93000060     0.06205797     1.83448475    -0.00043063     0.00043433     0.00065400
H        -1.01096531     0.21145863    -0.55595156    -0.00056574     0.00080643    -0.00045255
     6
  Step:    24            Position(A)                                  Velocity(au)
C        -0.04174077     0.00517994    -0.09553500     0.00002320    -0.00007859    -0.00087824
N        -0.04568880    -0.07332332     1.39664951     0.00000479    -0.00010066     0.00072250
H         0.95706352     0.03793803    -0.50754038     0.00036957     0.00059516    -0.00027467
H         0.90909582    -0.03104512     1.84972878     0.00036761     0.00046882     0.00041047
H        -0.93275017     0.06460726     1.83841402    -0.00054497     0.00047764     0.00074757
H        -1.01404955     0.21592987    -0.55849911    -0.00053515     0.00079375    -0.00045832
     6
  Step:    25            Position(A)                                  Velocity(au)
C        -0.04162697     0.00473884    -0.10035792     0.00001735    -0.00007926    -0.00084802
N        -0.04561432    -0.07389167     1.40061097     0.00002106    -0.00010265     0.00069569
H         0.95922239     0.04130118    -0.50920876     0.00040153     0.00060901    -0.00032110
H         0.91077531    -0.02843278     1.85196860     0.00023479     0.00046583     0.00039126
H        -0.93608701     0.06739245     1.84283385    -0.00063867     0.00051805     0.00082806
H        -1.01694208     0.22032350    -0.56107023    -0.00049706     0.00077801    -0.00046074
     6
  Step:    26            Position(A)                                  Velocity(au)
C        -0.04154689     0.00429440    -0.10501028     0.00001121    -0.00007972    -0.00081663
N        -0.04545349    -0.07447027     1.40442274     0.00003549    -0.00010424     0.00066846
H         0.96154991     0.04474274    -0.51112818     0.00042907     0.00062269    -0.00036398
H         0.91171919    -0.02584028     1.85410052     0.00010549     0.00046140     0.00037207
H        -0.93988623     0.07039565     1.84766628    -0.00070874     0.00055499     0.00089392
H        -1.01960338     0.22462285    -0.56364717    -0.00045247     0.00075943    -0.00046020
     6
  Step:    27            Position(A)                                  Velocity(au)
C        -0.04150172     0.00384768    -0.10948638     0.00000493    -0.00008001    -0.00078451
N        -0.04521764    -0.07505684     1.40808316     0.00004774    -0.00010543     0.00064117
H         0.96401864     0.04826172    -0.51327735     0.00045132     0.00063626    -0.00040282
H         0.91195455    -0.02327517     1.85612769    -0.00001755     0.00045577     0.00035402
H        -0.94400939     0.07359620     1.85282630    -0.00075346     0.00058810     0.00094432
H        -1.02199987     0.22881261    -0.56621442    -0.00040251     0.00073835    -0.00045715
     6
  Step:    28            Position(A)                                  Velocity(au)
C        -0.04149172     0.00339971    -0.11378283    -0.00000130    -0.00008013    -0.00075209
N        -0.04491964    -0.07564918     1.41159239     0.00005762    -0.00010625     0.00061413
H         0.96659661     0.05185752    -0.51563264     0.00046759     0.00064984    -0.00043732
H         0.91152294    -0.02074380     1.85805927    -0.00013198     0.00044916     0.00033814
H        -0.94831158     0.07697196     1.85822583    -0.00077234     0.00061729     0.00097908
H        -1.02410436     0.23287921    -0.56875911    -0.00034835     0.00071510    -0.00045211
     6
  Step:    29            Position(A)                                  Velocity(au)
C        -0.04151632     0.00295139    -0.11789853    -0.00000738    -0.00008012    -0.00071975
N        -0.04457322    -0.07624526     1.41495221     0.00006500    -0.00010674     0.00058761
H         0.96924871     0.05553022    -0.51816885     0.00047749     0.00066360    -0.00046729
H         0.91047836    -0.01825129     1.85990985    -0.00023582     0.00044179     0.00032534
H        -0.95264809     0.08050059     1.86377732    -0.00076594     0.00064263     0.00099859
H        -1.02589621     0.23681109    -0.57127132    -0.00029114     0.00069005    -0.00044564
     6
  Step:    30            Position(A)                                  Velocity(au)
C        -0.04157424     0.00250347    -0.12183438    -0.00001317    -0.00007999    -0.00068782
N        -0.04419247    -0.07684328     1.41816569     0.00006990    -0.00010695     0.00056180
H         0.97193808     0.05928088    -0.52086002     0.00048082     0.00067774    -0.00049265
H         0.90888497    -0.01580171     1.86169872    -0.00032749     0.00043381     0.00031638
H        -0.95687976     0.08416073     1.86939657    -0.00073564     0.00066441     0.00100367
H        -1.02736123     0.24059852    -0.57374424    -0.00023199     0.00066350    -0.00043829
     6
  Step:    31            Position(A)                                  Velocity(au)
C        -0.04166370     0.00205657    -0.12559291    -0.00001862    -0.00007978    -0.00065652
N        -0.04379131    -0.07744171     1.42123684     0.00007236    -0.00010693     0.00053682
H         0.97462750     0.06311185    -0.52367998     0.00047765     0.00069254    -0.00051343
H         0.90681481    -0.01339842     1.86344906    -0.00040585     0.00042529     0.00031189
H        -0.96087745     0.08793309     1.87500501    -0.00068354     0.00068312     0.00099547
H        -1.02849136     0.24423339    -0.57617425    -0.00017193     0.00063567    -0.00043064
     6
  Step:    32            Position(A)                                  Velocity(au)
C        -0.04178256     0.00161112    -0.12917774    -0.00002368    -0.00007951    -0.00062596
N        -0.04338305    -0.07803933     1.42417016     0.00007255    -0.00010672     0.00051267
H         0.97728072     0.06702716    -0.52660291     0.00046825     0.00070836    -0.00052972
H         0.90434547    -0.01104472     1.86518728    -0.00047009     0.00041615     0.00031238
H        -0.96452538     0.09180157     1.88053121    -0.00061216     0.00069940     0.00097532
H        -1.02928427     0.24770864    -0.57856109    -0.00011191     0.00060666    -0.00042332
     6
  Step:    33            Position(A)                                  Velocity(au)
C        -0.04192856     0.00116739    -0.13259283    -0.00002836    -0.00007923    -0.00059611
N        -0.04298003    -0.07863517     1.42696993     0.00007064    -0.00010638     0.00048927
H         0.97986385     0.07103324    -0.52960374     0.00045320     0.00072573    -0.00054168
H         0.90155796    -0.00874477     1.86694232    -0.00051981     0.00040607     0.00031826
H        -0.96772311     0.09575433     1.88591171    -0.00052430     0.00071416     0.00094462
H        -1.02974285     0.25101753    -0.58090815    -0.00005284     0.00057641    -0.00041704
     6
  Step:    34            Position(A)                                  Velocity(au)
C        -0.04209959     0.00072542    -0.13584171    -0.00003271    -0.00007897    -0.00056678
N        -0.04259332    -0.07922852     1.42963978     0.00006691    -0.00010593     0.00046641
H         0.98234708     0.07514009    -0.53265840     0.00043344     0.00074549    -0.00054952
H         0.89853445    -0.00650524     1.86874513    -0.00055499     0.00039434     0.00032988
H        -0.97038661     0.09978520     1.89109118    -0.00042291     0.00072860     0.00090477
H        -1.02987492     0.25415235    -0.58322316     0.00000444     0.00054454    -0.00041271
     6
  Step:    35            Position(A)                                  Velocity(au)
C        -0.04229411     0.00028499    -0.13892635    -0.00003692    -0.00007879    -0.00053750
N        -0.04223232    -0.07981883     1.43218182     0.00006170    -0.00010538     0.00044368
H         0.98470727     0.07936368    -0.53574429     0.00041064     0.00076918    -0.00055357
H         0.89535622    -0.00433824     1.87062855    -0.00057597     0.00037941     0.00034765
H        -0.97244894     0.10389601     1.89602205    -0.00031106     0.00074454     0.00085705
H        -1.02969320     0.25710246    -0.58551999     0.00005895     0.00051016    -0.00041188
     6
  Step:    36            Position(A)                                  Velocity(au)
C        -0.04251196    -0.00015458    -0.14184507    -0.00004140    -0.00007885    -0.00050681
N        -0.04190419    -0.08040555     1.43459532     0.00005551    -0.00010468     0.00042004
H         0.98693362     0.08373120    -0.53884127     0.00038852     0.00080000    -0.00055478
H         0.89210132    -0.00226751     1.87262803    -0.00058352     0.00035782     0.00037237
H        -0.97386090     0.10810105     1.90066362    -0.00019205     0.00076507     0.00080246
H        -1.02921652     0.25985040    -0.58782345     0.00010902     0.00047135    -0.00041787
     6
  Step:    37            Position(A)                                  Velocity(au)
C        -0.04275628    -0.00059518    -0.14458400    -0.00004715    -0.00007971    -0.00046896
N        -0.04161266    -0.08098742     1.43687079     0.00004919    -0.00010338     0.00039140
H         0.98904443     0.08829422    -0.54193736     0.00037816     0.00084466    -0.00055821
H         0.88884232    -0.00034382     1.87478542    -0.00057856     0.00032172     0.00040636
H        -0.97459289     0.11243665     1.90498006    -0.00007030     0.00079464     0.00074193
H        -1.02847623     0.26236425    -0.59018473     0.00014897     0.00042546    -0.00044088
     6
  Step:    38            Position(A)                                  Velocity(au)
C        -0.04303804    -0.00104387    -0.14707718    -0.00005771    -0.00008846    -0.00043496
N        -0.04135535    -0.08155897     1.43896205     0.00004571    -0.00010653     0.00036944
H         0.99115268     0.09315482    -0.54506912     0.00042670     0.00095780    -0.00062389
H         0.88564650     0.00132185     1.87716166    -0.00059608     0.00029113     0.00048072
H        -0.97464521     0.11696663     1.90894117     0.00005065     0.00087368     0.00072509
H        -1.02755450     0.26459721    -0.59274229     0.00017118     0.00041180    -0.00053282
     6
  Step:    39            Position(A)                                  Velocity(au)
C        -0.04333502    -0.00154010    -0.14939872    -0.00005019    -0.00008871    -0.00040683
N        -0.04114628    -0.08214586     1.44094314     0.00003009    -0.00010503     0.00034747
H         0.99336637     0.09831043    -0.54865364     0.00035894     0.00090790    -0.00064408
H         0.88243398     0.00316125     1.87988256    -0.00055488     0.00035401     0.00049907
H        -0.97400738     0.12158492     1.91286740     0.00017985     0.00080511     0.00067772
H        -1.02655993     0.26705277    -0.59567136     0.00019607     0.00044967    -0.00051347
     6
  Step:    40            Position(A)                                  Velocity(au)
C        -0.04359738    -0.00203250    -0.15161111    -0.00004458    -0.00008793    -0.00038910
N        -0.04102004    -0.08272952     1.44283443     0.00001562    -0.00010476     0.00033262
H         0.99515281     0.10327281    -0.55224705     0.00028140     0.00088112    -0.00064029
H         0.87946264     0.00526707     1.88272355    -0.00050896     0.00039480     0.00052349
H        -0.97264084     0.12593915     1.91649395     0.00030939     0.00076711     0.00062220
H        -1.02536938     0.26960857    -0.59846464     0.00023231     0.00046057    -0.00049104
     6
  Step:    41            Position(A)                                  Velocity(au)
C        -0.04383157    -0.00251947    -0.15373260    -0.00003968    -0.00008698    -0.00037366
N        -0.04097226    -0.08331270     1.44464789     0.00000178    -0.00010487     0.00031923
H         0.99650062     0.10812443    -0.55578522     0.00020213     0.00086496    -0.00062799
H         0.87676517     0.00755852     1.88571327    -0.00045743     0.00042526     0.00055186
H        -0.97056140     0.13012905     1.91979757     0.00043486     0.00074221     0.00056419
H        -1.02397240     0.27218258    -0.60114062     0.00026860     0.00046129    -0.00047169
     6
  Step:    42            Position(A)                                  Velocity(au)
C        -0.04403914    -0.00300073    -0.15577063    -0.00003490    -0.00008600    -0.00035934
N        -0.04100023    -0.08389687     1.44638807    -0.00001156    -0.00010522     0.00030652
H         0.99740291     0.11290136    -0.55923770     0.00012172     0.00085363    -0.00061122
H         0.87437062     0.01000103     1.88886675    -0.00040144     0.00045113     0.00058211
H        -0.96780007     0.13420133     1.92277444     0.00055377     0.00072410     0.00050639
H        -1.02237940     0.27474357    -0.60371540     0.00030250     0.00045804    -0.00045485
     6
  Step:    43            Position(A)                                  Velocity(au)
C        -0.04421988    -0.00347623    -0.15773052    -0.00003002    -0.00008501    -0.00034588
N        -0.04110088    -0.08448334     1.44805812    -0.00002427    -0.00010580     0.00029431
H         0.99785489     0.11762165    -0.56258552     0.00004069     0.00084476    -0.00059154
H         0.87229890     0.01257769     1.89218967    -0.00034276     0.00047464     0.00061271
H        -0.96440034     0.13818517     1.92543151     0.00066394     0.00071063     0.00045046
H        -1.02060690     0.27727862    -0.60620115     0.00033320     0.00045319    -0.00043996
     6
  Step:    44            Position(A)                                  Velocity(au)
C        -0.04437301    -0.00394601    -0.15961675    -0.00002499    -0.00008403    -0.00033314
N        -0.04127012    -0.08507338     1.44966075    -0.00003614    -0.00010662     0.00028254
H         0.99785535     0.12229502    -0.56581562    -0.00004026     0.00083723    -0.00056983
H         0.87055913     0.01527902     1.89568001    -0.00028338     0.00049674     0.00064234
H        -0.96041715     0.14210344     1.92778354     0.00076337     0.00070106     0.00039770
H        -1.01867422     0.27978304    -0.60860768     0.00036030     0.00044786    -0.00042668
     6