     6
  Step:   300            Position(A)                                  Velocity(au)
C        -0.05905134     0.01159902     0.01387614     0.00002999    -0.00005882    -0.00006060
N        -0.02133735    -0.05676747     1.30292304    -0.00012542    -0.00000466     0.00004163
H         0.26378471     0.94390711    -0.44420975     0.00037821     0.00022612     0.00073361
H        -0.01886993    -0.95107882     1.80670815     0.00107747     0.00004075     0.00002945
H        -0.03733248     0.82644834     1.81802508     0.00032110     0.00034198    -0.00043807
H        -0.42032512    -0.83843047    -0.55971876    -0.00039113     0.00015676    -0.00018147
