    14
  Step:   600            Position(A)                                  Velocity(au)
C        -5.43431330    -0.76743210    -0.36582723     0.00016737    -0.00017015     0.00039809
C        -4.13374331    -0.44101340    -0.43353012     0.00063135     0.00060312    -0.00048337
H        -5.91798914    -0.25309668     0.42609812    -0.00057784     0.00043956     0.00068529
H        -5.97955113    -1.51806266    -0.92021954     0.00052812    -0.00061784     0.00145933
H        -3.29370904    -0.74270904    -1.10382279     0.00098446     0.00016790     0.00017480
C        -3.82948434     0.25384998     0.86177390     0.00019885     0.00014663    -0.00036361
C        -3.10213593     1.33022420     0.76227818    -0.00053007     0.00044391     0.00034955
H        -4.73089837     0.28289815     1.51303920     0.00048540    -0.00134916    -0.00034465
H        -3.35716316     2.04634282     1.55643858    -0.00143655    -0.00006902     0.00010113
C        -2.05033464     1.72262214    -0.19492799     0.00037746     0.00000083    -0.00005400
H        -1.89599726     2.79556798    -0.42950957    -0.00335589     0.00079661     0.00067769
N        -0.92119416     0.98337173    -0.23863585    -0.00049011    -0.00062282    -0.00001381
H         0.03205469     1.36288866    -0.12986065    -0.00192193    -0.00242662     0.00156717
H        -0.98696171    -0.00142384    -0.08582675     0.00203624    -0.00049255    -0.00230149
