    14
  Step:     0            Position(A)                                  Velocity(au)
C        -6.05594294    -0.79656900    -0.04475851    -0.00016012    -0.00042406     0.00019836
C        -4.67115455    -0.71950949     0.12696298     0.00005311     0.00009737     0.00007059
H        -6.46181428     0.14365202    -0.41238580    -0.00076384     0.00075089    -0.00033584
H        -6.64070232    -1.65889799     0.20148115    -0.00005536    -0.00111369    -0.00069038
H        -4.10390665    -1.62085596     0.41852721     0.00035619     0.00072076     0.00030844
C        -3.94422793     0.45782163    -0.09145458    -0.00015228     0.00012774    -0.00029271
C        -2.55662787     0.50937366     0.15466225    -0.00033031     0.00003313     0.00000182
H        -4.22616774     1.39014894    -0.58050222    -0.00051868     0.00103290    -0.00030293
H        -2.08176283    -0.33205615     0.72652316     0.00022645     0.00028195    -0.00033818
C        -1.74631022     1.66685476    -0.13114914     0.00054213     0.00027283     0.00000926
H        -2.24110513     2.50137258    -0.64698818    -0.00017157    -0.00047302     0.00073535
N        -0.58107429     1.82046946     0.31570779     0.00012299    -0.00022790     0.00009001
H         0.02804311     2.63063327     0.07036939    -0.00005766     0.00007861    -0.00065203
H        -0.07273034     0.96718773     0.67960308    -0.00015916     0.00061340     0.00017596
    14
  Step:     1            Position(A)                                  Velocity(au)
C        -6.05765347    -0.80108342    -0.04262257    -0.00015409    -0.00039856     0.00019076
C        -4.67050084    -0.71847244     0.12771434     0.00006479     0.00009326     0.00006649
H        -6.47122107     0.15149810    -0.41607840    -0.00093418     0.00063636    -0.00031967
H        -6.64180230    -1.67154394     0.19401129    -0.00013617    -0.00118436    -0.00067788
H        -4.10026025    -1.61247633     0.42210580     0.00031503     0.00079955     0.00034788
C        -3.94617283     0.45917695    -0.09477433    -0.00020423     0.00012232    -0.00031505
C        -2.55964466     0.50980795     0.15481555    -0.00021942     0.00004857     0.00002532
H        -4.23354223     1.40124992    -0.58353152    -0.00081658     0.00096650    -0.00023734
H        -2.07965715    -0.32806271     0.72228040     0.00015603     0.00043940    -0.00043286
C        -1.74123460     1.66962174    -0.13125857     0.00038203     0.00022916    -0.00002856
H        -2.24267265     2.49609278    -0.63885090    -0.00011785    -0.00046935     0.00073943
N        -0.57898676     1.81798009     0.31690702     0.00025912    -0.00022352     0.00012836
H         0.02649355     2.63044431     0.06356702    -0.00022462    -0.00012006    -0.00058549
H        -0.07525947     0.97571499     0.68109066    -0.00028271     0.00090910     0.00010976
    14
  Step:     2            Position(A)                                  Velocity(au)
C        -6.05931395    -0.80528836    -0.04058518    -0.00015105    -0.00036861     0.00018068
C        -4.66973716    -0.71746916     0.12841759     0.00007311     0.00009147     0.00006173
H        -6.48225116     0.15757356    -0.41937908    -0.00106246     0.00043575    -0.00026725
H        -6.64368128    -1.68480805     0.18665121    -0.00019474    -0.00122281    -0.00067099
H        -4.09701486    -1.60336419     0.42613765     0.00028426     0.00085247     0.00039200
C        -3.94869584     0.46049753    -0.09834698    -0.00025743     0.00012097    -0.00033862
C        -2.56142801     0.51043617     0.15521607    -0.00010631     0.00006877     0.00004655
H        -4.24403196     1.41129290    -0.58569459    -0.00108712     0.00084290    -0.00014647
H        -2.07834929    -0.32244347     0.71705347     0.00008459     0.00057368    -0.00051428
C        -1.73795254     1.67186804    -0.13177399     0.00021791     0.00017829    -0.00006373
H        -2.24368340     2.49110468    -0.63081183    -0.00007238    -0.00041854     0.00071629
N        -0.57540550     1.81557952     0.31851587     0.00039212    -0.00021172     0.00016364
H         0.02312904     2.62800668     0.05756060    -0.00037980    -0.00032028    -0.00051012
H        -0.07891516     0.98707604     0.68200427    -0.00035500     0.00111574     0.00007827
    14
  Step:     3            Position(A)                                  Velocity(au)
C        -6.06095802    -0.80914738    -0.03866986    -0.00015103    -0.00033637     0.00016877
C        -4.66890147    -0.71647127     0.12906470     0.00007792     0.00009247     0.00005618
H        -6.49446442     0.16103107    -0.42192500    -0.00115292     0.00016742    -0.00018522
H        -6.64606257    -1.69829523     0.17933213    -0.00022629    -0.00122311    -0.00067044
H        -4.09404155    -1.59382700     0.43068147     0.00026610     0.00087606     0.00044187
C        -3.95180471     0.46182337    -0.10218232    -0.00031077     0.00012275    -0.00036269
C        -2.56197033     0.51131242     0.15583394     0.00000599     0.00009408     0.00006460
H        -4.25732516     1.41969008    -0.58673586    -0.00132867     0.00067055    -0.00003492
H        -2.07780655    -0.31551239     0.71102957     0.00002014     0.00067411    -0.00057501
C        -1.73646743     1.67352222    -0.13265289     0.00005703     0.00012164    -0.00009389
H        -2.24425619     2.48693636    -0.62318064    -0.00003953    -0.00032000     0.00066475
N        -0.57040841     1.81334835     0.32048686     0.00051423    -0.00019273     0.00019341
H         0.01818461     2.62343763     0.05240724    -0.00050431    -0.00049772    -0.00043350
H        -0.08302577     1.00012389     0.68280306    -0.00035728     0.00120410     0.00009526
    14
  Step:     4            Position(A)                                  Velocity(au)
C        -6.06261796    -0.81264720    -0.03689305    -0.00015378    -0.00030385     0.00015565
C        -4.66803252    -0.71544619     0.12964664     0.00007924     0.00009652     0.00004980
H        -6.50747360     0.16123615    -0.42343123    -0.00121074    -0.00014893    -0.00008091
H        -6.64863172    -1.71156595     0.17198410    -0.00022866    -0.00118310    -0.00067580
H        -4.09119347    -1.58419873     0.43580439     0.00026145     0.00086913     0.00049785
C        -3.95549447     0.46318291    -0.10628160    -0.00036303     0.00012657    -0.00038646
C        -2.56129697     0.51249429     0.15662932     0.00011450     0.00012474     0.00007860
H        -4.27309924     1.42596247    -0.58645857    -0.00154075     0.00046022     0.00009155
H        -2.07790872    -0.30769606     0.70447407    -0.00002955     0.00073104    -0.00060835
C        -1.73670482     1.67452904    -0.13382795    -0.00009399     0.00006078    -0.00011702
H        -2.24454824     2.48410400    -0.61626920    -0.00002156    -0.00017694     0.00058586
N        -0.56415580     1.81136324     0.32274708     0.00061860    -0.00016721     0.00021568
H         0.01209623     2.61711816     0.04807698    -0.00058086    -0.00062907    -0.00036380
H        -0.08673143     1.01341802     0.68408823    -0.00027604     0.00115311     0.00017137
    14
  Step:     5            Position(A)                                  Velocity(au)
C        -6.06432224    -0.81579463    -0.03526478    -0.00015886    -0.00027268     0.00014186
C        -4.66716805    -0.71435978     0.13015428     0.00007721     0.00010360     0.00004264
H        -6.52095168     0.15777291    -0.42369497    -0.00124155    -0.00049363     0.00003825
H        -6.65106499    -1.72417790     0.16454761    -0.00020219    -0.00110430    -0.00068575
H        -4.08832185    -1.57481311     0.44157288     0.00026965     0.00083303     0.00055938
C        -3.95974663     0.46459223    -0.11063697    -0.00041293     0.00013131    -0.00040910
C        -2.55946544     0.51404132     0.15755338     0.00021632     0.00016077     0.00008781
H        -4.29103199     1.42975823    -0.58473305    -0.00172384     0.00022404     0.00022662
H        -2.07845310    -0.29951960     0.69772064    -0.00005764     0.00073672    -0.00060896
C        -1.73852358     1.67485179    -0.13521287    -0.00022982    -0.00000243    -0.00013180
H        -2.24472777     2.48306541    -0.61036379    -0.00001793     0.00000287     0.00048341
N        -0.55687543     1.80969021     0.32520520     0.00070019    -0.00013667     0.00022929
H         0.00547728     2.60967543     0.04444842    -0.00059505    -0.00069362    -0.00030924
H        -0.08906469     1.02535044     0.68655214    -0.00010760     0.00095733     0.00031062
    14
  Step:     6            Position(A)                                  Velocity(au)
C        -6.06609326    -0.81861255    -0.03378951    -0.00016559    -0.00024417     0.00012790
C        -4.66634339    -0.71317973     0.13057943     0.00007208     0.00011337     0.00003482
H        -6.53463491     0.15043704    -0.42259448    -0.00125132    -0.00084769     0.00016490
H        -6.65305492    -1.73572460     0.15698205    -0.00014927    -0.00099144    -0.00069831
H        -4.08529438    -1.56597454     0.44804181     0.00028834     0.00077172     0.00062487
C        -3.96452808     0.46605555    -0.11523144    -0.00045905     0.00013597    -0.00042978
C        -2.55656449     0.51601146     0.15855036     0.00030867     0.00020176     0.00009176
H        -4.31081146     1.43086381    -0.58150090    -0.00187927    -0.00002511     0.00036370
H        -2.07916965    -0.29157900     0.69115192    -0.00005916     0.00068666    -0.00057375
C        -1.74173248     1.67447585    -0.13671125    -0.00034671    -0.00006576    -0.00013775
H        -2.24494060     2.48416681    -0.60569369    -0.00002516     0.00020695     0.00036392
N        -0.54883774     1.80837330     0.32776316     0.00075654    -0.00010374     0.00023428
H        -0.00092164     2.60194398     0.04131167    -0.00053735    -0.00067586    -0.00027712
H        -0.08908539     1.03436147     0.69088357     0.00013757     0.00063422     0.00050658
    14
  Step:     7            Position(A)                                  Velocity(au)
C        -6.06794477    -0.82113636    -0.03246667    -0.00017305    -0.00021935     0.00011422
C        -4.66559123    -0.71187958     0.13091613     0.00006405     0.00012511     0.00002662
H        -6.54832666     0.13922813    -0.42008748    -0.00124645    -0.00119268     0.00029183
H        -6.65433062    -1.74586751     0.14927076    -0.00007392    -0.00085181    -0.00071120
H        -4.08201378    -1.55793016     0.45524305     0.00031358     0.00069153     0.00069173
C        -3.96978925     0.46756679    -0.12003922    -0.00049983     0.00013970    -0.00044773
C        -2.55271277     0.51845524     0.15956085     0.00038892     0.00024669     0.00009031
H        -4.33214458     1.42920890    -0.57677638    -0.00200918    -0.00027406     0.00049624
H        -2.07974743    -0.28449770     0.68516878    -0.00003210     0.00058102    -0.00050284
C        -1.74610861     1.67341306    -0.13822652    -0.00044258    -0.00012663    -0.00013531
H        -2.24527813     2.48759278    -0.60240226    -0.00003718     0.00041885     0.00023617
N        -0.54032468     1.80742069     0.33033045     0.00078805    -0.00007216     0.00023193
H        -0.00627821     2.59488980     0.03838583    -0.00040532    -0.00056916    -0.00027225
H        -0.08605500     1.03922518     0.69763445     0.00043365     0.00022670     0.00074051
    14
  Step:     8            Position(A)                                  Velocity(au)
C        -6.06987915    -0.82341134    -0.03129068    -0.00018011    -0.00019904     0.00010128
C        -4.66494210    -0.71044274     0.13116175     0.00005331     0.00013779     0.00001836
H        -6.56190338     0.12434486    -0.41621023    -0.00123400    -0.00151055     0.00041187
H        -6.65467210    -1.75435960     0.14142324     0.00001881    -0.00069450    -0.00072203
H        -4.07843432    -1.55084601     0.46317474     0.00034012     0.00060056     0.00075653
C        -3.97546282     0.46911178    -0.12502637    -0.00053372     0.00014184    -0.00046226
C        -2.54805604     0.52140834     0.16052603     0.00045492     0.00029384     0.00008376
H        -4.35476614     1.42486823    -0.57064469    -0.00211647    -0.00050965     0.00061790
H        -2.07987193    -0.27886808     0.68015138     0.00002176     0.00042599    -0.00040033
C        -1.75141476     1.67170554    -0.13967132    -0.00051671    -0.00018218    -0.00012558
H        -2.24575396     2.49332995    -0.60052698    -0.00004653     0.00061991     0.00011009
N        -0.53159771     1.80679468     0.33283711     0.00079773    -0.00004610     0.00022445
H        -0.00978890     2.58949257     0.03535563    -0.00020563    -0.00037929    -0.00029522
H        -0.07959845     1.03932102     0.70708374     0.00074325    -0.00020267     0.00098334
    14
  Step:     9            Position(A)                                  Velocity(au)
C        -6.07188505    -0.82549077    -0.03025096    -0.00018544    -0.00018391     0.00008954
C        -4.66442490    -0.70886521     0.13131779     0.00004002     0.00015023     0.00001044
H        -6.57532270     0.10618199    -0.41107698    -0.00122184    -0.00178346     0.00051791
H        -6.65391903    -1.76106104     0.13347498     0.00012327    -0.00052974    -0.00072850
H        -4.07457310    -1.54479178     0.47179356     0.00036206     0.00050777     0.00081531
C        -3.98146539     0.47066978    -0.13015210    -0.00055944     0.00014182    -0.00047283
C        -2.54276053     0.52488362     0.16139318     0.00050520     0.00034081     0.00007291
H        -4.37844650     1.41805934    -0.56325863    -0.00220471    -0.00071914     0.00072282
H        -2.07927134    -0.27517840     0.67641082     0.00009645     0.00023439    -0.00027460
C        -1.75741262     1.66942747    -0.14097388    -0.00056942    -0.00022955    -0.00011016
H        -2.24629600     2.50115442    -0.59999384    -0.00004580     0.00079161    -0.00000461
N        -0.52287278     1.80641211     0.33524076     0.00079040    -0.00002906     0.00021429
H        -0.01077682     2.58659215     0.03192741     0.00004530    -0.00012646    -0.00034098
H        -0.06979491     1.03479130     0.71914678     0.00102582    -0.00058565     0.00120163
    14
  Step:    10            Position(A)                                  Velocity(au)
C        -6.07393607    -0.82743473    -0.02933173    -0.00018768    -0.00017452     0.00007948
C        -4.66406655    -0.70715609     0.13139019     0.00002439     0.00016131     0.00000326
H        -6.58863351     0.08532822    -0.40487994    -0.00121866    -0.00199418     0.00060296
H        -6.65197543    -1.76594871     0.12548595     0.00023347    -0.00036844    -0.00072847
H        -4.07051350    -1.53973754     0.48101121     0.00037360     0.00042186     0.00086403
C        -3.98770171     0.47221437    -0.13537041    -0.00057617     0.00013916    -0.00047905
C        -2.53700381     0.52886423     0.16212106     0.00053915     0.00038467     0.00005901
H        -4.40299838     1.40913562    -0.55483157    -0.00227793    -0.00089080     0.00080598
H        -2.07776182    -0.27374034     0.67414405     0.00018245     0.00002483    -0.00013751
C        -1.76387195     1.66668377    -0.14208139    -0.00060166    -0.00026610    -0.00009080
H        -2.24675599     2.51064788    -0.60062781    -0.00002915     0.00091813    -0.00009979
N        -0.51430612     1.80615889     0.33752515     0.00077158    -0.00002276     0.00020345
H        -0.00879778     2.58672593     0.02789597     0.00032281     0.00015598    -0.00039880
H        -0.05715663     1.02650887     0.73337167     0.00124729    -0.00086490     0.00136572
    14
  Step:    11            Position(A)                                  Velocity(au)
C        -6.07599081    -0.82930874    -0.02851226    -0.00018549    -0.00017126     0.00007150
C        -4.66389125    -0.70533630     0.13138917     0.00000670     0.00017004    -0.00000282
H        -6.60198326     0.06255557    -0.39788602    -0.00123344    -0.00212715     0.00066063
H        -6.64881152    -1.76912129     0.11753834     0.00034342    -0.00022175    -0.00072005
H        -4.06639979    -1.53556286     0.49069586     0.00036978     0.00035018     0.00089899
C        -3.99407023     0.47371414    -0.14063214    -0.00058355     0.00013346    -0.00048072
C        -2.53096556     0.53329895     0.16268414     0.00055689     0.00042222     0.00004359
H        -4.42828058     1.39857138    -0.54562635    -0.00234032    -0.00101468     0.00086351
H        -2.07527989    -0.27463525     0.67340242     0.00026823    -0.00018070    -0.00000282
C        -1.77057504     1.66360610    -0.14296026    -0.00061466    -0.00028967    -0.00006917
H        -2.24693365     2.52124027    -0.60217694     0.00000673     0.00098838    -0.00016990
N        -0.50599302     1.80591429     0.33969158     0.00074647    -0.00002668     0.00019302
H        -0.00371466     2.59000461     0.02320282     0.00059792     0.00042710    -0.00045394
H        -0.04250810     1.01587005     0.74902445     0.00138669    -0.00100585     0.00145603
    14
  Step:    12            Position(A)                                  Velocity(au)
C        -6.07799405    -0.83118142    -0.02776748    -0.00017775    -0.00017424     0.00006595
C        -4.66392007    -0.70343621     0.13132860    -0.00001279     0.00017568    -0.00000749
H        -6.61561728     0.03879284    -0.39042733    -0.00127445    -0.00217038     0.00068585
H        -6.64446245    -1.77079989     0.10973340     0.00044736    -0.00010068    -0.00070169
H        -4.06242388    -1.53207666     0.50067838     0.00034707     0.00029799     0.00091724
C        -4.00046793     0.47513409    -0.14588703    -0.00058164     0.00012453    -0.00047786
C        -2.52482067     0.53810108     0.16307462     0.00055905     0.00045035     0.00002824
H        -4.45419744     1.38693751    -0.53594055    -0.00239562    -0.00108381     0.00089320
H        -2.07189373    -0.27769345     0.67408234     0.00034235    -0.00036017     0.00011606
C        -1.77731875     1.66034659    -0.14359454    -0.00060974    -0.00029873    -0.00004675
H        -2.24660871     2.53227060    -0.60434476     0.00006226     0.00099701    -0.00021236
N        -0.49797564     1.80557527     0.34174779     0.00071931    -0.00003848     0.00018317
H         0.00428290     2.59606946     0.01796518     0.00084272     0.00064649    -0.00049085
H        -0.02682018     1.00450388     0.76522512     0.00143774    -0.00099973     0.00146553
    14
  Step:    13            Position(A)                                  Velocity(au)
C        -6.07987932    -0.83312055    -0.02706953    -0.00016364    -0.00018308     0.00006295
C        -4.66417109    -0.70149290     0.13122522    -0.00003380     0.00017777    -0.00001056
H        -6.62986439     0.01507442    -0.38288179    -0.00134758    -0.00211810     0.00067602
H        -6.63902472    -1.77132390     0.10218755     0.00053998    -0.00001557    -0.00067221
H        -4.05880700    -1.52904378     0.51076233     0.00030372     0.00026803     0.00091686
C        -4.00679476     0.47643852    -0.15108620    -0.00057091     0.00011248    -0.00047070
C        -2.51873523     0.54315132     0.16330198     0.00054651     0.00046642     0.00001441
H        -4.48068939     1.37486101    -0.52608579    -0.00244621    -0.00109551     0.00089490
H        -2.06779038    -0.28251469     0.67594150     0.00039538    -0.00049505     0.00020813
C        -1.78391429     1.65707092    -0.14398308    -0.00058821    -0.00029235    -0.00002476
H        -2.24557162     2.54305173    -0.60682279     0.00013536     0.00094429    -0.00022735
N        -0.49025680     1.80507245     0.34369874     0.00069300    -0.00005490     0.00017344
H         0.01472146     2.60414774     0.01246455     0.00103539     0.00078254    -0.00049669
H        -0.01105480     0.99399903     0.78108577     0.00140619    -0.00085890     0.00139828
    14
  Step:    14            Position(A)                                  Velocity(au)
C        -6.08157399    -0.83518674    -0.02639042    -0.00014295    -0.00019679     0.00006234
C        -4.66465941    -0.69954715     0.13109759    -0.00005606     0.00017610    -0.00001189
H        -6.64509808    -0.00754466    -0.37563818    -0.00145390    -0.00197362     0.00063228
H        -6.63264945    -1.77114043     0.09502762     0.00061682     0.00002470    -0.00063091
H        -4.05577935    -1.52621306     0.52073647     0.00023984     0.00026051     0.00089710
C        -4.01295765     0.47759490    -0.15618451    -0.00055215     0.00009781    -0.00045969
C        -2.51286479     0.54830481     0.16338995     0.00052024     0.00046850     0.00000321
H        -4.50771288     1.36297124    -0.51636297    -0.00249227    -0.00105232     0.00087071
H        -2.06324394    -0.28852372     0.67863564     0.00042127    -0.00057285     0.00026628
C        -1.79018706     1.65395081    -0.14413623    -0.00055135    -0.00027035    -0.00000408
H        -2.24364756     2.55292874    -0.60931857     0.00022209     0.00083542    -0.00021738
N        -0.48281489     1.80437413     0.34554204     0.00066917    -0.00007274     0.00016313
H         0.02693410     2.61318896     0.00709921     0.00116321     0.00081766    -0.00046384
H         0.00394300     0.98571386     0.79581510     0.00130534    -0.00060887     0.00126588
    14
  Step:    15            Position(A)                                  Velocity(au)
C        -6.08300673    -0.83742567    -0.02570567    -0.00011625    -0.00021363     0.00006363
C        -4.66539753    -0.69764048     0.13096502    -0.00007936     0.00017070    -0.00001148
H        -6.66167132    -0.02810227    -0.36904944    -0.00158766    -0.00175113     0.00056031
H        -6.62553071    -1.77078362     0.08838517     0.00067473     0.00001366    -0.00057768
H        -4.05355995    -1.52334455     0.53038819     0.00015725     0.00027337     0.00085844
C        -4.01887420     0.47857825    -0.16114286    -0.00052652     0.00008140    -0.00044547
C        -2.50735394     0.55340067     0.16337219     0.00048129     0.00045567    -0.00000470
H        -4.53521256     1.35183952    -0.50703740    -0.00253115    -0.00096231     0.00082490
H        -2.05857418    -0.29504693     0.68176690     0.00041767    -0.00058820     0.00028780
C        -1.79597608     1.65115658    -0.14407229    -0.00050040    -0.00023318     0.00001474
H        -2.24071304     2.56132823    -0.61157830     0.00031741     0.00067946    -0.00018665
N        -0.47561734     1.80348114     0.34726752     0.00064832    -0.00008942     0.00015161
H         0.04016882     2.62203570     0.00231725     0.00122286     0.00074925    -0.00039070
H         0.01750193     0.98067885     0.80877934     0.00115200    -0.00028106     0.00108400
    14
  Step:    16            Position(A)                                  Velocity(au)
C        -6.08411721    -0.83986028    -0.02499832    -0.00008498    -0.00023131     0.00006599
C        -4.66639549    -0.69581267     0.13084642    -0.00010346     0.00016185    -0.00000940
H        -6.67983108    -0.04585395    -0.36338036    -0.00173533    -0.00147513     0.00047010
H        -6.61788849    -1.77084153     0.08238976     0.00071235    -0.00005152    -0.00051304
H        -4.05233925    -1.52023249     0.53951641     0.00005917     0.00030269     0.00080242
C        -4.02447629     0.47937559    -0.16593000    -0.00049544     0.00006448    -0.00042879
C        -2.50233569     0.55827336     0.16328721     0.00043076     0.00042798    -0.00000907
H        -4.56308667     1.34191885    -0.49831662    -0.00255710    -0.00083841     0.00076341
H        -2.05410651    -0.30139171     0.68493174     0.00038546    -0.00054234     0.00027389
C        -1.80113417     1.64884948    -0.14381374    -0.00043665    -0.00018202     0.00003147
H        -2.23670367     2.56779320    -0.61340189     0.00041585     0.00048805    -0.00014050
N        -0.46863160     1.80241786     0.34885875     0.00063009    -0.00010321     0.00013840
H         0.05368661     2.62958025    -0.00144811     0.00121895     0.00058726    -0.00028098
H         0.02914526     0.97956523     0.81952964     0.00096397     0.00009201     0.00086983
    14
  Step:    17            Position(A)                                  Velocity(au)
C        -6.08486587    -0.84248608    -0.02426209    -0.00005139    -0.00024736     0.00006837
C        -4.66766090    -0.69409959     0.13075941    -0.00012814     0.00014999    -0.00000580
H        -6.69963495    -0.06037353    -0.35876511    -0.00187701    -0.00117691     0.00037452
H        -6.60994674    -1.77191070     0.07716154     0.00073049    -0.00016905    -0.00043818
H        -4.05226542    -1.51672268     0.54794273    -0.00005008     0.00034321     0.00073155
C        -4.02971297     0.47998898    -0.17052351    -0.00046057     0.00004849    -0.00041046
C        -2.49793026     0.56276361     0.16317386     0.00036992     0.00038652    -0.00001006
H        -4.59115409     1.33349766    -0.49033632    -0.00256186    -0.00069660     0.00069291
H        -2.05014151    -0.30691169     0.68775877     0.00032789    -0.00044182     0.00022879
C        -1.80552861     1.64717449    -0.14338381    -0.00036148    -0.00011870     0.00004621
H        -2.23161549     2.57200536    -0.61465211     0.00051196     0.00027460    -0.00008498
N        -0.46183301     1.80122315     0.35029519     0.00061348    -0.00011307     0.00012316
H         0.06683559     2.63488322    -0.00382966     0.00116143     0.00035028    -0.00014213
H         0.03859062     0.98269185     0.82780849     0.00075883     0.00047878     0.00064092
    14
  Step:    18            Position(A)                                  Velocity(au)
C        -6.08524156    -0.84527183    -0.02350255    -0.00001824    -0.00025966     0.00006977
C        -4.66919889    -0.69253141     0.13071947    -0.00015318     0.00013569    -0.00000093
H        -6.72089434    -0.07160107    -0.35518709    -0.00198990    -0.00088890     0.00028686
H        -6.60190755    -1.77453987     0.07280374     0.00073242    -0.00033169    -0.00035497
H        -4.05343493    -1.51272410     0.55552053    -0.00016553     0.00038887     0.00064904
C        -4.03455208     0.48043638    -0.17490967    -0.00042360     0.00003478    -0.00039122
C        -2.49424306     0.56672912     0.16306706     0.00030022     0.00033324    -0.00000820
H        -4.61913218     1.32667939    -0.48315796    -0.00253594    -0.00055335     0.00061975
H        -2.04693338    -0.31105745     0.68993689     0.00024972    -0.00029696     0.00015874
C        -1.80904217     1.64625267    -0.14280276    -0.00027635    -0.00004573     0.00005939
H        -2.22550365     2.57380069    -0.61526092     0.00060046     0.00005365    -0.00002658
N        -0.45521053     1.79994418     0.35155313     0.00059707    -0.00011840     0.00010561
H         0.07909522     2.63724328    -0.00455753     0.00106343     0.00006170     0.00001615
H         0.04574602     0.99003955     0.83355107     0.00055389     0.00084886     0.00041503
    14
  Step:    19            Position(A)                                  Velocity(au)
C        -6.08526482    -0.84816663    -0.02273584     0.00001168    -0.00026694     0.00006936
C        -4.67101196    -0.69113121     0.13073917    -0.00017832     0.00011965     0.00000495
H        -6.74316778    -0.07981990    -0.35248957    -0.00205298    -0.00063868     0.00021824
H        -6.59392363    -1.77916706     0.06939585     0.00072369    -0.00052672    -0.00026580
H        -4.05588679    -1.50821538     0.56214163    -0.00028181     0.00043321     0.00055859
C        -4.03898003     0.48074987    -0.17908229    -0.00038615     0.00002447    -0.00037167
C        -2.49136235     0.57005378     0.16299445     0.00022336     0.00027088    -0.00000426
H        -4.64663273     1.32139210    -0.47677804    -0.00247045    -0.00042304     0.00054907
H        -2.04467845    -0.31340827     0.69123160     0.00015647    -0.00012031     0.00007113
C        -1.81157434     1.64617405    -0.14208451    -0.00018286     0.00003376     0.00007172
H        -2.21847925     2.57317916    -0.61523357     0.00067643    -0.00015956     0.00002786
N        -0.44877101     1.79863292     0.35260571     0.00057907    -0.00011883     0.00008544
H         0.09010019     2.63623292    -0.00347629     0.00093961    -0.00025286     0.00018309
H         0.05070804     1.00126237     0.83688800     0.00036645     0.00117269     0.00021025
    14
  Step:    20            Position(A)                                  Velocity(au)
C        -6.08498600    -0.85111171    -0.02198511     0.00003591    -0.00026906     0.00006671
C        -4.67310006    -0.68991389     0.13082767    -0.00020335     0.00010265     0.00001148
H        -6.76580732    -0.08557343    -0.35041267    -0.00205111    -0.00044496     0.00017585
H        -6.58607554    -1.78606277     0.06698879     0.00071145    -0.00073704    -0.00017338
H        -4.05960016    -1.50324685     0.56774078    -0.00039347     0.00046974     0.00046424
C        -4.04299979     0.48097162    -0.18304069    -0.00034957     0.00001823    -0.00035220
C        -2.48935672     0.57265519     0.16297378     0.00014120     0.00020280     0.00000076
H        -4.67317802     1.31742451    -0.47114600    -0.00235868    -0.00031605     0.00048418
H        -2.04351029    -0.31368943     0.69149290     0.00005398     0.00007432    -0.00002615
C        -1.81304266     1.64699126    -0.14123372    -0.00008270     0.00011614     0.00008416
H        -2.21070554     2.57031006    -0.61465145     0.00073530    -0.00034954     0.00007133
N        -0.44254222     1.79734457     0.35342221     0.00055748    -0.00011412     0.00006224