    14
  Step:   600            Position(A)                                  Velocity(au)
C        -5.86119426    -0.84495372    -0.21803229    -0.00013474    -0.00024375     0.00040671
C        -4.73933588    -0.52528698     0.37318290    -0.00046654     0.00085656    -0.00053202
H        -5.94449437    -0.77808124    -1.33869263    -0.00224675    -0.00052091    -0.00003209
H        -6.67698361    -1.36905115     0.26205623     0.00010434    -0.00024794     0.00074892
H        -4.48900561    -0.62063191     1.48897587    -0.00195519     0.00082098    -0.00102773
C        -3.65655363     0.07871649    -0.41243877     0.00053088    -0.00054244    -0.00012910
C        -2.78959308     0.77164145     0.48190613    -0.00013832    -0.00040297     0.00056523
H        -3.84879418     0.23526219    -1.51183941     0.00032483    -0.00236798    -0.00273715
H        -3.45333125     0.79292565     1.36485236    -0.00160752     0.00191630    -0.00187281
C        -1.72315725     1.63069854     0.49203166     0.00069026    -0.00084188     0.00046536
H        -1.58553452     2.30891826     1.39971414     0.00074306     0.00026028     0.00085168
N        -0.69212082     1.78773314    -0.28744413    -0.00003502     0.00074652    -0.00026854
H        -0.13655675     2.56106667    -0.02048517    -0.00072106     0.00199348    -0.00080725
H        -0.55800281     1.43150534    -1.17711760     0.00010690     0.00176710    -0.00064099
