    14
  Step:     0            Position(A)                                  Velocity(au)
C        -6.00634028    -0.71349926    -0.03650619    -0.00000804     0.00020533    -0.00033827
C        -4.70562025    -0.78796256     0.09134598    -0.00002139    -0.00017730     0.00017057
H        -6.34727432     0.30237571    -0.31329386     0.00036076     0.00013191     0.00077055
H        -6.70500466    -1.51230101    -0.01127806     0.00030142     0.00093158     0.00053239
H        -4.14734291    -1.68474994     0.27086502    -0.00011376    -0.00118724    -0.00050661
C        -3.88806328     0.44436247    -0.01869967    -0.00019130    -0.00016051     0.00022260
C        -2.54173718     0.45529191     0.08241980     0.00024628     0.00005283     0.00005149
H        -4.31453818     1.39993592    -0.29671942    -0.00006575     0.00036186     0.00037971
H        -2.00359953    -0.36187210     0.48621871     0.00047013    -0.00006754     0.00016166
C        -1.82285869     1.63575699    -0.07805671     0.00025824    -0.00019487    -0.00017061
H        -2.30887530     2.48172470    -0.57709034    -0.00003476     0.00169415     0.00018757
N        -0.57707259     1.86998103     0.30566832    -0.00019409     0.00009806    -0.00014304
H        -0.01799194     2.69825915     0.07924408    -0.00074867     0.00156329    -0.00005754
H        -0.12604518     1.01099294     0.64551361    -0.00085382    -0.00151937     0.00128546
    14
  Step:     1            Position(A)                                  Velocity(au)
C        -6.00691563    -0.71105138    -0.04033304    -0.00009346     0.00024256    -0.00036013
C        -4.70520772    -0.78972472     0.09325489     0.00009622    -0.00014694     0.00017801
H        -6.34406993     0.30306322    -0.30469088     0.00021926     0.00001047     0.00079465
H        -6.70242037    -1.50306653    -0.00510098     0.00014983     0.00073423     0.00059454
H        -4.14839702    -1.69866824     0.26543878    -0.00009400    -0.00132594    -0.00048841
C        -3.89070782     0.44242507    -0.01633108    -0.00029034    -0.00019276     0.00021057
C        -2.53858933     0.45586461     0.08310591     0.00032822     0.00005098     0.00007380
H        -4.31623333     1.40392849    -0.29247357    -0.00023948     0.00035252     0.00040161
H        -1.99788182    -0.36407835     0.48846074     0.00056664    -0.00032074     0.00024325
C        -1.82023939     1.63386420    -0.08014591     0.00021708    -0.00014786    -0.00021321
H        -2.30943872     2.50016434    -0.57476301    -0.00005191     0.00163225     0.00025601
N        -0.57894484     1.87094354     0.30420873    -0.00014407     0.00007614    -0.00012239
H        -0.02670776     2.71485742     0.07864485    -0.00085792     0.00143199    -0.00003913
H        -0.13477410     0.99543619     0.65957850    -0.00076133    -0.00126071     0.00126077
    14
  Step:     2            Position(A)                                  Velocity(au)
C        -6.00838479    -0.70819280    -0.04438466    -0.00017034     0.00027905    -0.00037907
C        -4.70351518    -0.79117719     0.09524023     0.00021057    -0.00012082     0.00018430
H        -6.34247756     0.30260472    -0.29590943     0.00006538    -0.00007292     0.00080296
H        -6.70172680    -1.49623829     0.00172874    -0.00003587     0.00050108     0.00065114
H        -4.14939925    -1.71375744     0.26018020    -0.00010391    -0.00139924    -0.00047508
C        -3.89441505     0.44014543    -0.01409304    -0.00038481    -0.00022301     0.00019872
C        -2.53455674     0.45640712     0.08403422     0.00040776     0.00004699     0.00009586
H        -4.31977728     1.40764800    -0.28793352    -0.00040278     0.00031144     0.00043365
H        -1.99120322    -0.36888889     0.49154035     0.00064170    -0.00053556     0.00031134
C        -1.81810973     1.63252217    -0.08272114     0.00016990    -0.00009518    -0.00025850
H        -2.31001100     2.51743326    -0.57148954    -0.00004054     0.00148804     0.00035496
N        -0.58022444     1.87164684     0.30299077    -0.00008744     0.00005125    -0.00009937
H        -0.03676051     2.72958678     0.07838797    -0.00098627     0.00123131     0.00000245
H        -0.14270070     0.98341250     0.67309529    -0.00069996    -0.00089011     0.00119054
    14
  Step:     3            Position(A)                                  Velocity(au)
C        -6.01064209    -0.70494673    -0.04862587    -0.00023696     0.00031196    -0.00039452
C        -4.70060107    -0.79236781     0.09728670     0.00031774    -0.00009891     0.00018892
H        -6.34263957     0.30146797    -0.28712459    -0.00010162    -0.00011026     0.00079547
H        -6.70320500    -1.49210453     0.00914402    -0.00023669     0.00025336     0.00070069
H        -4.15067017    -1.72927940     0.25504545    -0.00014118    -0.00140565    -0.00046464
C        -3.89912631     0.43754640    -0.01198360    -0.00047343    -0.00025126     0.00018706
C        -2.52966873     0.45689257     0.08520314     0.00048453     0.00004049     0.00011780
H        -4.32504495     1.41074184    -0.28298661    -0.00055423     0.00023898     0.00047593
H        -1.98384351    -0.37579471     0.49527192     0.00068875    -0.00069841     0.00036041
C        -1.81652256     1.63178198    -0.08580120     0.00011910    -0.00003892    -0.00030454
H        -2.31032565     2.53271801    -0.56699758    -0.00000902     0.00127820     0.00047328
N        -0.58085778     1.87206476     0.30203490    -0.00002769     0.00002450    -0.00007506
H        -0.04828425     2.74179475     0.07869850    -0.00111960     0.00098225     0.00006185
H        -0.15008714     0.97596336     0.68562382    -0.00065551    -0.00044211     0.00108636
    14
  Step:     4            Position(A)                                  Velocity(au)
C        -6.01356878    -0.70136811    -0.05301556    -0.00029267     0.00033855    -0.00040600
C        -4.69656402    -0.79334105     0.09937313     0.00041448    -0.00008065     0.00019134
H        -6.34470080     0.30019266    -0.27850702    -0.00028128    -0.00009707     0.00077298
H        -6.70690485    -1.49069560     0.01705772    -0.00043113     0.00001513     0.00074110
H        -4.15248780    -1.74450863     0.25001535    -0.00020078    -0.00134849    -0.00045483
C        -3.90477225     0.43464853    -0.01000071    -0.00055552    -0.00027795     0.00017560
C        -2.52395681     0.45729283     0.08661132     0.00055841     0.00003160     0.00013955
H        -4.33190211     1.41287605    -0.27752173    -0.00069345     0.00013794     0.00052807
H        -1.97613548    -0.38416788     0.49942492     0.00070485    -0.00080140     0.00038785
C        -1.81550426     1.63167081    -0.08938344     0.00006705     0.00001873    -0.00034939
H        -2.31020832     2.54539628    -0.56113572     0.00003441     0.00102039     0.00060028
N        -0.58083018     1.87218282     0.30134873     0.00003170    -0.00000312    -0.00005067
H        -0.06125381     2.75107529     0.07974114    -0.00124348     0.00070812     0.00013354
H        -0.15704133     0.97374056     0.69686149    -0.00061446     0.00004785     0.00096124
    14
  Step:     5            Position(A)                                  Velocity(au)
C        -6.01704484    -0.69754030    -0.05750787    -0.00033784     0.00035661    -0.00041316
C        -4.69153355    -0.79413209     0.10147273     0.00049851    -0.00006501     0.00019113
H        -6.34879315     0.29934435    -0.27021407    -0.00047156    -0.00003369     0.00073710
H        -6.71263672    -1.49177351     0.02535708    -0.00059883    -0.00019068     0.00076998
H        -4.15506268    -1.75878027     0.24509518    -0.00027593    -0.00123495    -0.00044367
C        -3.91127939     0.43146581    -0.00814197    -0.00063074    -0.00030375     0.00016442
C        -2.51745240     0.45758399     0.08825601     0.00062927     0.00002086     0.00016093
H        -4.34021551     1.41375949    -0.27143404    -0.00082089     0.00001302     0.00058922
H        -1.96842364    -0.39332679     0.50375683     0.00069055    -0.00084231     0.00039369
C        -1.81505564     1.63219170    -0.09344484     0.00001607     0.00007564    -0.00039130
H        -2.30957281     2.55504094    -0.55386526     0.00008198     0.00073233     0.00072614
N        -0.58016438     1.87199657     0.30092635     0.00008741    -0.00003072    -0.00002747
H        -0.07548773     2.75728619     0.08161990    -0.00134420     0.00043324     0.00021207
H        -0.16352957     0.97701018     0.70665279    -0.00056431     0.00054485     0.00082901
    14
  Step:     6            Position(A)                                  Velocity(au)
C        -6.02095968    -0.69356662    -0.06205417    -0.00037371     0.00036486    -0.00041587
C        -4.68565806    -0.79476329     0.10355439     0.00056859    -0.00005088     0.00018797
H        -6.35501700     0.29945555    -0.26238158    -0.00066856     0.00007371     0.00069011
H        -6.72000531    -1.49486715     0.03390249    -0.00072391    -0.00034592     0.00078512
H        -4.15852438    -1.77152546     0.24030917    -0.00035905    -0.00107485    -0.00042984
C        -3.91857084     0.42800345    -0.00640373    -0.00069834    -0.00032936     0.00015370
C        -2.51019032     0.45774928     0.09013195     0.00069620     0.00000884     0.00018169
H        -4.34986067     1.41316094    -0.26463137    -0.00093756    -0.00012986     0.00065777
H        -1.96102835    -0.40259499     0.50803767     0.00064939    -0.00082389     0.00037967
C        -1.81515270     1.63332555    -0.09794397    -0.00003156     0.00013000    -0.00042872
H        -2.30841486     2.56141746    -0.54524992     0.00012636     0.00043163     0.00084183
N        -0.57891801     1.87151083     0.30074788     0.00013641    -0.00005743    -0.00000672
H        -0.09066069     2.76055317     0.08438050    -0.00140952     0.00018170     0.00029230
H        -0.16938661     0.98566028     0.71499775    -0.00049327     0.00101453     0.00070437
    14
  Step:     7            Position(A)                                  Velocity(au)
C        -6.02522036    -0.68955830    -0.06660572    -0.00040198     0.00036318    -0.00041423
C        -4.67909452    -0.79524527     0.10558488     0.00062411    -0.00003744     0.00018177
H        -6.36341928     0.30095681    -0.25511665    -0.00086649     0.00021288     0.00063489
H        -6.72847374    -1.49934112     0.04253303    -0.00079694    -0.00043944     0.00078504
H        -4.16291755    -1.78229456     0.23569151    -0.00044243    -0.00087980    -0.00041273
C        -3.92655695     0.42426048    -0.00477949    -0.00075645    -0.00035501     0.00014378
C        -2.50222180     0.45777740     0.09223078     0.00075689    -0.00000417     0.00020153
H        -4.36072642     1.41091847    -0.25704412    -0.00104480    -0.00028418     0.00073116
H        -1.95421691    -0.41135103     0.51206276     0.00058716    -0.00075295     0.00034827
C        -1.81574608     1.63503574    -0.10282384    -0.00007350     0.00018048    -0.00046037
H        -2.30680852     2.56448371    -0.53544868     0.00016042     0.00013602     0.00093886
N        -0.57718023     1.87074013     0.30077939     0.00017602    -0.00008228     0.00001030
H        -0.10632362     2.76126131     0.08801449    -0.00142945    -0.00002395     0.00036957
H        -0.17432079     0.99920488     0.72206228    -0.00038992     0.00142286     0.00060299
    14
  Step:     8            Position(A)                                  Velocity(au)
C        -6.02975368    -0.68562136    -0.07111624    -0.00042431     0.00035257    -0.00040856
C        -4.67200452    -0.79558241     0.10753104     0.00066462    -0.00002439     0.00017262
H        -6.37397315     0.30411267    -0.24849226    -0.00105795     0.00036662     0.00057480
H        -6.73743999    -1.50448078     0.05107677    -0.00081524    -0.00046781     0.00076918
H        -4.16820334    -1.79077285     0.23127990    -0.00051869    -0.00066255    -0.00039205
C        -3.93511964     0.42023691    -0.00325829    -0.00080215    -0.00038032     0.00013508
C        -2.49363182     0.45765797     0.09454091     0.00080800    -0.00001818     0.00022016
H        -4.37271761     1.40694393    -0.24863576    -0.00114411    -0.00044308     0.00080611
H        -1.94818316    -0.41906725     0.51565668     0.00051100    -0.00063915     0.00030233
C        -1.81676056     1.63727394    -0.10801534    -0.00010749     0.00022608    -0.00048527
H        -2.30490544     2.56439310    -0.52471059     0.00017695    -0.00013628     0.00100925
N        -0.57506717     1.86971079     0.30097314     0.00020409    -0.00010407     0.00002233
H        -0.12193257     2.76002915     0.09246556    -0.00139703    -0.00016452     0.00043996
H        -0.17791684     1.01678812     0.72818926    -0.00024333     0.00173703     0.00054125
    14
  Step:     9            Position(A)                                  Velocity(au)
C        -6.03450302    -0.68184511    -0.07554379    -0.00044204     0.00033489    -0.00039930
C        -4.66455459    -0.79577880     0.10936128     0.00068970    -0.00001186     0.00016068
H        -6.38656387     0.30897733    -0.24254174    -0.00123467     0.00051506     0.00051346
H        -6.74630869    -1.50957542     0.05936024    -0.00078179    -0.00043425     0.00073778
H        -4.17426494    -1.79678908     0.22711469    -0.00058108    -0.00043633    -0.00036750
C        -3.94410559     0.41594031    -0.00182444    -0.00083254    -0.00040445     0.00012797
C        -2.48454530     0.45737960     0.09704728     0.00084627    -0.00003315     0.00023724
H        -4.38575607     1.40122530    -0.23940885    -0.00123706    -0.00059952     0.00087915
H        -1.94303774    -0.42533356     0.51867682     0.00042860    -0.00049374     0.00024522
C        -1.81809762     1.63998166    -0.11344012    -0.00013170     0.00026571    -0.00050269
H        -2.30293749     2.56150240    -0.51336947     0.00016850    -0.00036637     0.00104563
N        -0.57271538     1.86846336     0.30126798     0.00021917    -0.00012145     0.00002823
H        -0.13688635     2.75766217     0.09763939    -0.00130926    -0.00022630     0.00050072
H        -0.17964416     1.03720567     0.73390316    -0.00004420     0.00192829     0.00053500
    14
  Step:    10            Position(A)                                  Velocity(au)
C        -6.03942425    -0.67829495    -0.07985162    -0.00045616     0.00031245    -0.00038692
C        -4.65691608    -0.79584181     0.11104628     0.00069898    -0.00000020     0.00014619
H        -6.40098400     0.31538054    -0.23725940    -0.00138848     0.00063860     0.00045408
H        -6.75454305    -1.51398076     0.06721707    -0.00070355    -0.00034683     0.00069187
H        -4.18091557    -1.80031848     0.22324019    -0.00062364    -0.00021452    -0.00033869
C        -3.95333301     0.41138889    -0.00045878    -0.00084561    -0.00042641     0.00012269
C        -2.47511797     0.45693273     0.09973096     0.00086960    -0.00004867     0.00025238
H        -4.39978073     1.39382826    -0.22940274    -0.00132513    -0.00074650     0.00094719
H        -1.93880662    -0.42986887     0.52102135     0.00034759    -0.00032879     0.00018108
C        -1.81964170     1.64308679    -0.11901258    -0.00014491     0.00029792    -0.00051203
H        -2.30121927     2.55637799    -0.50183533     0.00012766    -0.00053544     0.00104173
N        -0.57027249     1.86705376     0.30159077     0.00022079    -0.00013313     0.00002706
H        -0.15057517     2.75507838     0.10341985    -0.00116797    -0.00020372     0.00055087
H        -0.17888375     1.05897325     0.73989331     0.00021288     0.00197764     0.00059666
    14
  Step:    11            Position(A)                                  Velocity(au)
C        -6.04448240    -0.67500957    -0.08400847    -0.00046738     0.00028762    -0.00037193
C        -4.64926308    -0.79578310     0.11255937     0.00069234     0.00001016     0.00012938
H        -6.41693954     0.32294800    -0.23260791    -0.00151223     0.00072091     0.00039901
H        -6.76170028    -1.51716289     0.07449627    -0.00058998    -0.00021674     0.00063318
H        -4.18790816    -1.80148212     0.21970528    -0.00064137    -0.00001023    -0.00030523
C        -3.96260490     0.40661167     0.00085965    -0.00084052    -0.00044522     0.00011935
C        -2.46552115     0.45631479     0.10256858     0.00087716    -0.00006392     0.00026517
H        -4.41474582     1.38489423    -0.21868715    -0.00140954    -0.00087741     0.00100779
H        -1.93543355    -0.43252653     0.52263839     0.00027525    -0.00015667     0.00011476
C        -1.82126782     1.64649914    -0.12464166    -0.00014660     0.00032100    -0.00051290
H        -2.30014471     2.54978865    -0.49057952     0.00004781    -0.00062635     0.00099298
N        -0.56788523     1.86555089     0.30185993     0.00020969    -0.00013827     0.00001838
H        -0.16243796     2.75320539     0.10969066    -0.00098027    -0.00010141     0.00059144
H        -0.17498692     1.08047022     0.74695617     0.00052611     0.00188298     0.00073086
    14
  Step:    12            Position(A)                                  Velocity(au)
C        -6.04964912    -0.67200264    -0.08798826    -0.00047616     0.00026248    -0.00035475
C        -4.64176987    -0.79561960     0.11387675     0.00066983     0.00001869     0.00011054
H        -6.43406699     0.33115179    -0.22853033    -0.00160069     0.00075104     0.00034946
H        -6.76745003    -1.51872237     0.08106916    -0.00045165    -0.00005674     0.00056396
H        -4.19494674    -1.80054222     0.21656272    -0.00063042     0.00016411    -0.00026684
C        -3.97172093     0.40164878     0.00215221    -0.00081734    -0.00045983     0.00011792
C        -2.45592838     0.45553435     0.10553209     0.00086916    -0.00007777     0.00027518
H        -4.43061703     1.37463324    -0.20735536    -0.00149106    -0.00098657     0.00105909
H        -1.93278508    -0.43329634     0.52353195     0.00021830     0.00001022     0.00005147
C        -1.82284875     1.65010925    -0.13023320    -0.00013688     0.00033339    -0.00050519
H        -2.30017341     2.54267539    -0.48011198    -0.00007549    -0.00062670     0.00089751
N        -0.56568521     1.86402894     0.30199280     0.00018796    -0.00013691     0.00000260
H        -0.17202048     2.75285991     0.11635865    -0.00075826     0.00006495     0.00062545
H        -0.16737402     1.10016710     0.75588222     0.00088308     0.00166534     0.00092962
    14
  Step:    13            Position(A)                                  Velocity(au)
C        -6.05489931    -0.66926739    -0.09176938    -0.00048262     0.00023864    -0.00033578
C        -4.63460923    -0.79537433     0.11497770     0.00063166     0.00002478     0.00008995
H        -6.45195774     0.33937846    -0.22496281    -0.00165098     0.00072439     0.00030557
H        -6.77158095    -1.51840411     0.08683389    -0.00029951     0.00011981     0.00048682
H        -4.20169973    -1.79789194     0.21386758    -0.00058825     0.00029737    -0.00022342
C        -3.98048587     0.39655196     0.00343936    -0.00077683    -0.00046915     0.00011828
C        -2.44650660     0.45461336     0.10858875     0.00084646    -0.00008897     0.00028200
H        -4.44736552     1.36331109    -0.19551749    -0.00156981    -0.00106968     0.00109989
H        -1.93065785    -0.43230299     0.52376439     0.00018269     0.00015981    -0.00000350
C        -1.82426228     1.65379278    -0.13569366    -0.00011657     0.00033419    -0.00048918
H        -2.30179617     2.53607832    -0.47094475    -0.00024244    -0.00053286     0.00075738
N        -0.56377316     1.86255583     0.30191687     0.00015906    -0.00013014    -0.00001878
H        -0.17902630     2.75462622     0.12337362    -0.00051777     0.00026984     0.00065731
H        -0.15566778     1.11690282     0.76729334     0.00125917     0.00136932     0.00116976
    14
  Step:    14            Position(A)                                  Velocity(au)
C        -6.06020732    -0.66678196    -0.09533401    -0.00048653     0.00021725    -0.00031531
C        -4.62795109    -0.79507760     0.11584465     0.00057816     0.00002771     0.00006790
H        -6.47018542     0.34699927    -0.22184543    -0.00166263     0.00064228     0.00026664
H        -6.77400238    -1.51610139     0.09171934    -0.00014454     0.00029933     0.00040468
H        -4.20781583    -1.79403665     0.21167504    -0.00051401     0.00038083    -0.00017509
C        -3.98871556     0.39138529     0.00473979    -0.00072016    -0.00047204     0.00012023
C        -2.43741052     0.45358802     0.11170147     0.00081029    -0.00009624     0.00028527
H        -4.46495967     1.35123192    -0.18329314    -0.00164508    -0.00112427     0.00112965
H        -1.92878833    -0.42980028     0.52345536     0.00017334     0.00028088    -0.00004514
C        -1.82539903     1.65742026    -0.14093500    -0.00008725     0.00032355    -0.00046563
H        -2.30547722     2.53101809    -0.46354278    -0.00044701    -0.00035360     0.00057944
N        -0.56220542     1.86118197     0.30158185     0.00012740    -0.00011980    -0.00004334
H        -0.18334765     2.75876307     0.13073864    -0.00027632     0.00048162     0.00069175
H        -0.13982738     1.13012368     0.78147292     0.00161964     0.00105508     0.00141516
    14
  Step:    15            Position(A)                                  Velocity(au)
C        -6.06554318    -0.66451454    -0.09866740    -0.00048737     0.00019904    -0.00029361
C        -4.62196092    -0.79476814     0.11646310     0.00050985     0.00002668     0.00004465
H        -6.48833087     0.35342953    -0.21912950    -0.00163727     0.00051088     0.00023145
H        -6.77474308    -1.51185563     0.09568704     0.00000249     0.00046842     0.00032058
H        -4.21294460    -1.78956060     0.21003718    -0.00040884     0.00040941    -0.00012232
C        -3.99624070     0.38622524     0.00606971    -0.00064883    -0.00046741     0.00012353
C        -2.42877988     0.45250789     0.11482948     0.00076210    -0.00009850     0.00028469
H        -4.48335489     1.33871548    -0.17080427    -0.00171516    -0.00115006     0.00114845
H        -1.92686571    -0.42615829     0.52277689     0.00019370     0.00036396    -0.00006917
C        -1.82617100     1.66087104    -0.14588020    -0.00005120     0.00030295    -0.00043576
H        -2.31157534     2.52834267    -0.45826836    -0.00067576    -0.00011170     0.00037529
N        -0.56098593     1.85993496     0.30096883     0.00009773    -0.00010783    -0.00006809
H        -0.18507135     2.76516252     0.13850701    -0.00005077     0.00066778     0.00073262
H        -0.12023496     1.13998469     0.79825275     0.00192599     0.00078351     0.00162436
    14
  Step:    16            Position(A)                                  Velocity(au)
C        -6.07086945    -0.66242752    -0.10175737    -0.00048434     0.00018438    -0.00027091
C        -4.61679705    -0.79449382     0.11682150     0.00042756     0.00002085     0.00002048
H        -6.50600383     0.35817580    -0.21678194    -0.00157829     0.00033993     0.00019850
H        -6.77394794    -1.50585388     0.09873258     0.00013120     0.00061398     0.00023766
H        -4.21675990    -1.78508006     0.20899899    -0.00027610     0.00038279    -0.00006598
C        -4.00290994     0.38115970     0.00744231    -0.00056458    -0.00045434     0.00012790
C        -2.42073803     0.45143319     0.11792953     0.00070341    -0.00009496     0.00028013
H        -4.50248199     1.32607222    -0.15816865    -0.00177722    -0.00114899     0.00115691
H        -1.92455073    -0.42183804     0.52194215     0.00024523     0.00040256    -0.00007266
C        -1.82651917     1.66404796    -0.15046807    -0.00001130     0.00027505    -0.00040115
H        -2.32026075     2.52857444    -0.45533254    -0.00090856     0.00015827     0.00016001
N        -0.56006745     1.85882301     0.30009220     0.00007424    -0.00009554    -0.00009028
H        -0.18445833     2.77337209     0.14676603     0.00014486     0.00080045     0.00078190
H        -0.09769257     1.14726440     0.81700893     0.00214429     0.00060101     0.00176064
    14
  Step:    17            Position(A)                                  Velocity(au)
C        -6.07613908    -0.66048076    -0.10459409    -0.00047656     0.00017340    -0.00024742
C        -4.61260724    -0.79431196     0.11691111     0.00033247     0.00000938    -0.00000438
H        -6.52285893     0.36086611    -0.21478682    -0.00149027     0.00014126     0.00016624
H        -6.77187276    -1.49842355     0.10088631     0.00023191     0.00072370     0.00015911
H        -4.21898473    -1.78118633     0.20859384    -0.00012146     0.00030625    -0.00000734
C        -4.00859202     0.37628568     0.00886771    -0.00046935    -0.00043217     0.00013306
C        -2.41339134     0.45043055     0.12095783     0.00063580    -0.00008528     0.00027165
H        -4.52223506     1.31357918    -0.14549459    -0.00182742    -0.00112506     0.00115608
H        -1.92150089    -0.41735158     0.52118730     0.00032685     0.00039440    -0.00005461
C        -1.82641828     1.66688833    -0.15465612     0.00002934     0.00024315    -0.00036350
H        -2.33145181     2.53180523    -0.45476785    -0.00112152     0.00041622    -0.00005030
N        -0.55936185     1.85784493     0.29899379     0.00005994    -0.00008328    -0.00010788
H        -0.18190234     2.78267380     0.15561249     0.00030080     0.00086059     0.00083927
H        -0.07332461     1.15313303     0.83677017     0.00225224     0.00053054     0.00180029
    14
  Step:    18            Position(A)                                  Velocity(au)
C        -6.08129507    -0.65863397    -0.10717005    -0.00046315     0.00016601    -0.00022334
C        -4.60952374    -0.79428872     0.11672577     0.00022624    -0.00000845    -0.00002968
H        -6.53860645     0.36126607    -0.21314515    -0.00137866    -0.00007215     0.00013318
H        -6.76887440    -1.49002145     0.10221336     0.00029608     0.00078656     0.00008797
H        -4.21941718    -1.77838022     0.20883838     0.00004720     0.00019082     0.00005184
C        -4.01317788     0.37170520     0.01035326    -0.00036527    -0.00040071     0.00013879
C        -2.40682878     0.44956757     0.12387234     0.00056087    -0.00006968     0.00025953
H        -4.54246020     1.30145941    -0.13287723    -0.00186093    -0.00108381     0.00114722
H        -1.91740027    -0.41320989     0.52074755     0.00043455     0.00034245    -0.00001640
C        -1.82587726     1.66936737    -0.15842041     0.00006786     0.00021052    -0.00032439
H        -2.34479618     2.53768014    -0.45643285    -0.00129150     0.00062486    -0.00024131
N        -0.55875615     1.85700109     0.29773207     0.00005633    -0.00007059    -0.00011991
H        -0.17787775     2.79219923     0.16512660     0.00041208     0.00084005     0.00090224
H        -0.04842054     1.15887099     0.85639365     0.00224212     0.00057149     0.00173566
    14
  Step:    19            Position(A)                                  Velocity(au)
C        -6.08627132    -0.65684905    -0.10948002    -0.00044341     0.00016184    -0.00019888
C        -4.60765789    -0.79449691     0.11626179     0.00011104    -0.00003305    -0.00005522
H        -6.55301968     0.35928760    -0.21187321    -0.00124944    -0.00028682     0.00009802
H        -6.76539538    -1.48121614     0.10281072     0.00031714     0.00079386     0.00002689
H        -4.21795206    -1.77701168     0.20972784     0.00022036     0.00005224     0.00010943
C        -4.01658300     0.36751938     0.01190411    -0.00025468    -0.00036038     0.00014494
C        -2.40112118     0.44890620     0.12663555     0.00048035    -0.00004896     0.00024432
H        -4.56294643     1.28986877    -0.12039687    -0.00187235    -0.00103155     0.00113170
H        -1.91199430    -0.40985975     0.52082843     0.00056118     0.00025554     0.00003789
C        -1.82493375     1.67149388    -0.16175270     0.00010199     0.00017975    -0.00028504
H        -2.35970582     2.54547533    -0.46004692    -0.00140038     0.00075697    -0.00040267
N        -0.55812958     1.85630063     0.29637060     0.00006347    -0.00005659    -0.00012630
H        -0.17288731     2.80105151     0.17535071     0.00047822     0.00074127     0.00096676
H        -0.02427391     1.16563546     0.87474110     0.00211944     0.00070602     0.00157334
    14
  Step:    20            Position(A)                                  Velocity(au)
C        -6.09099549    -0.65509331    -0.11152103    -0.00041698     0.00016024    -0.00017424
C        -4.60709442    -0.79501181     0.11551775    -0.00001044    -0.00006435    -0.00008080
H        -6.56594040     0.35499140    -0.21100082    -0.00110903    -0.00048920     0.00005961
H        -6.76193629    -1.47265422     0.10280153     0.00029168     0.00074080    -0.00002225
H        -4.21459633    -1.77723726     0.21123248     0.00038754    -0.00009111     0.00016310
C        -4.01874952     0.36382125     0.01352409    -0.00014011    -0.00031228     0.00015142
C        -2.39632026     0.44849644     0.12921720     0.00039600    -0.00002446     0.00022676
H        -4.58342151     1.27889219    -0.10811904    -0.00185616    -0.00097447     0.00111080
H        -1.90512343    -0.40761956     0.52157656     0.00069685     0.00014764     0.00010189
C        -1.82364596     1.67329978    -0.16465613     0.00013033     0.00015244    -0.00024629
H        -2.37543209     2.55424035    -0.46524208    -0.00143763     0.00079888    -0.00052884
N        -0.55736770     1.85576318     0.29496900     0.00008032    -0.00004042    -0.00012768