 Fermi distribution function

Calculation with static geometry


********************************************************************************
 iSCC Total electronic   Diff electronic      SCC error    
   13   -0.52822186E+01   -0.67048589E-11    0.27587812E-06
********************************************************************************

 Total charge:     1.00000000

 Atomic gross charges (e)
 Atom           Charge
    1       0.31869476
    2      -0.20461592
    3       0.17282118
    4       0.25787091
    5       0.27165121
    6       0.18357785

Nr. of electrons (up):     12.00000000
Atom populations (up)
 Atom       Population
    1       3.68130524
    2       5.20461592
    3       0.82717882
    4       0.74212909
    5       0.72834879
    6       0.81642215

l-shell populations (up)
 Atom Sh.   l       Population
    1   1   0       1.39549698
    1   2   1       2.28580826
    2   1   0       1.51585276
    2   2   1       3.68876315
    3   1   0       0.82717882
    4   1   0       0.74212909
    5   1   0       0.72834879
    6   1   0       0.81642215

Orbital populations (up)
 Atom Sh.   l   m       Population  Label
    1   1   0   0       1.39549698  s
    1   2   1  -1       0.42457543  p_y
    1   2   1   0       0.86988321  p_z
    1   2   1   1       0.99134962  p_x
    2   1   0   0       1.51585276  s
    2   2   1  -1       1.36551001  p_y
    2   2   1   0       1.06784640  p_z
    2   2   1   1       1.25540674  p_x
    3   1   0   0       0.82717882  s
    4   1   0   0       0.74212909  s
    5   1   0   0       0.72834879  s
    6   1   0   0       0.81642215  s

Fermi level:                        -0.5127693020 H          -13.9532 eV
Band energy:                        -8.6762265022 H         -236.0921 eV
TS:                                  0.0000000000 H            0.0000 eV
Band free energy (E-TS):            -8.6762265022 H         -236.0921 eV
Extrapolated E(0K):                 -8.6762265022 H         -236.0921 eV
Input / Output electrons (q):     12.0000000000     12.0000000000

Energy H0:                          -5.4184122105 H         -147.4425 eV
Energy SCC:                          0.1361936112 H            3.7060 eV
Total Electronic energy:            -5.2822185993 H         -143.7365 eV
Repulsive energy:                    0.1403025792 H            3.8178 eV
Total energy:                       -5.1419160201 H         -139.9187 eV
Extrapolated to 0:                  -5.1419160201 H         -139.9187 eV
Total Mermin free energy:           -5.1419160201 H         -139.9187 eV
Force related energy:               -5.1419160201 H         -139.9187 eV

SCC converged

Excitation Energy:                   0.0980478301 H            2.6680 eV

Total Forces
    1      0.007069946806     -0.001709456027      0.053499801093
    2      0.004695235637      0.011198652151     -0.047852091441
    3     -0.005695016041      0.008827811588      0.002397241289
    4     -0.007120080199     -0.016062159435     -0.003177995361
    5      0.004154580247      0.009184559579     -0.001509123311
    6     -0.003104666451     -0.011439407856     -0.003357832269

Maximal derivative component:        0.534998E-01 au


