|===============================================================================
|
|  DFTB+ release 20.1
|
|  Copyright (C) 2006 - 2020  DFTB+ developers group
|
|===============================================================================
|
|  When publishing results obtained with DFTB+, please cite the following
|  reference:
|
|  * DFTB+, a software package for efficient approximate density functional
|    theory based atomistic simulations, J. Chem. Phys. 152, 124101 (2020).
|    [doi: 10.1063/1.5143190]
|
|  You should also cite additional publications crediting the parametrization
|  data you use. Please consult the documentation of the SK-files for the
|  references.
|
|===============================================================================

Reading input file 'dftb_in.hsd'
Parser version: 8

--------------------------------------------------------------------------------
Reading SK-files:
Done.


Processed input in HSD format written to 'dftb_pin.hsd'

Starting initialization...
--------------------------------------------------------------------------------
OpenMP threads:              1
Chosen random seed:          511179080
Mode:                        Static calculation
Self consistent charges:     Yes
SCC-tolerance:                 0.100000E-05
Max. scc iterations:                   1000
Shell resolved Hubbard:      No
Spin polarisation:           No
Nr. of up electrons:             6.000000
Nr. of down electrons:           6.000000
Periodic boundaries:         No
Electronic solver:           Relatively robust
Maximal SCC-cycles:                    1000
Initial charges:             Set automatically (system chrg:   0.100E+01)
Included shells:             C:  s, p
                             N:  s, p
                             H:  s
Spin coupling constants:     C   1(s)-1(s):  -0.455900E-01
                             C   1(s)-2(p):  -0.293000E-01
                             C   2(p)-1(s):  -0.293000E-01
                             C   2(p)-2(p):  -0.275500E-01
                             N   1(s)-1(s):  -0.468700E-01
                             N   1(s)-2(p):  -0.317000E-01
                             N   2(p)-1(s):  -0.317000E-01
                             N   2(p)-2(p):  -0.307200E-01
                             H   1(s)-1(s):  -0.792500E-01
Range separated hybrid:      Yes
  Screening parameter omega:   0.300000E+00
  Range separated algorithm:   MatrixBased
Extra options:
                             Mulliken analysis
                             Force calculation
Force type                   original
                             Eigenvector printing


REKS Calcuation:             Yes
SSR(2,2) Calcuation:         Yes
Energy Functional:           (PPS+OSS)/2
Number of Core Orbitals:                  5
Number of Active Orbitals:                2
Number of Basis:                         12
Number of States:                         2
State-Averaging Weight:          0.500000
                                 0.500000
State of Interest:                        1
Initial Guess:               Diagonalize H0 matrix
Newton-Raphson for FON opt:  Yes
NR max. Iterations:                      50
Level Shifting:              Yes
Shift Value:                     0.300000
W Scale Factor:              C  =    3.000000
                             N  =    3.000000
                             H  =    3.000000
Transition Dipole:           No
Gradient of Microstate:      No
CP-REKS Solver:              Preconditioned Conjugate-Gradient
CG max. Iterations:                     100
CG Tolerance:                  0.100000E-07
Memory for A and Hxc:        Direct Updating Without Saving
Non-Adiabatic Coupling:      Yes

--------------------------------------------------------------------------------

***  Geometry step: 0

  iSCC       reks energy        Diff energy         x_a       SCC error   
    1       -6.2636463117       0.0000000000     0.998735    1.18079172
    2       -6.2774235025      -0.0137771908     0.999523    0.10935288
    3       -6.2813922974      -0.0039687949     0.999746    0.05128731
    4       -6.2831916325      -0.0017993350     0.999835    0.02615961
    5       -6.2841900650      -0.0009984325     0.999877    0.01415167
    6       -6.2848354654      -0.0006454004     0.999899    0.00770833
    7       -6.2852942549      -0.0004587895     0.999912    0.00670674
    8       -6.2856354679      -0.0003412131     0.999920    0.00603199
    9       -6.2858932931      -0.0002578252     0.999925    0.00532175
   10       -6.2860883845      -0.0001950913     0.999929    0.00476355
   11       -6.2862352690      -0.0001468845     0.999932    0.00438478
   12       -6.2863450390      -0.0001097700     0.999934    0.00397556
   13       -6.2864264249      -0.0000813859     0.999935    0.00356091
   14       -6.2864863157      -0.0000598907     0.999936    0.00315805
   15       -6.2865300951      -0.0000437794     0.999937    0.00277806
   16       -6.2865619142      -0.0000318191     0.999937    0.00242737
   17       -6.2865849289      -0.0000230148     0.999938    0.00210908
   18       -6.2866015090      -0.0000165800     0.999938    0.00182391
   19       -6.2866134140      -0.0000119050     0.999938    0.00157105
   20       -6.2866219390      -0.0000085251     0.999938    0.00134870
   21       -6.2866280302      -0.0000060912     0.999939    0.00115449
   22       -6.2866323744      -0.0000043442     0.999939    0.00098583
   23       -6.2866354681      -0.0000030937     0.999939    0.00084003
   24       -6.2866376684      -0.0000022003     0.999939    0.00071450
   25       -6.2866392318      -0.0000015634     0.999939    0.00060678
   26       -6.2866403416      -0.0000011098     0.999939    0.00051460
   27       -6.2866411289      -0.0000007873     0.999939    0.00043591
   28       -6.2866416870      -0.0000005581     0.999939    0.00036887
   29       -6.2866420825      -0.0000003955     0.999939    0.00031187
   30       -6.2866423626      -0.0000002801     0.999939    0.00026348
   31       -6.2866425610      -0.0000001983     0.999939    0.00022244
   32       -6.2866427013      -0.0000001404     0.999939    0.00018769
   33       -6.2866428006      -0.0000000993     0.999939    0.00015829
   34       -6.2866428709      -0.0000000703     0.999939    0.00013343
   35       -6.2866429206      -0.0000000497     0.999939    0.00011244
   36       -6.2866429557      -0.0000000351     0.999939    0.00009471
   37       -6.2866429806      -0.0000000248     0.999939    0.00007976
   38       -6.2866429981      -0.0000000176     0.999939    0.00006715
   39       -6.2866430106      -0.0000000124     0.999939    0.00005652
   40       -6.2866430193      -0.0000000088     0.999939    0.00004757
   41       -6.2866430255      -0.0000000062     0.999939    0.00004003
   42       -6.2866430299      -0.0000000044     0.999939    0.00003367
   43       -6.2866430330      -0.0000000031     0.999939    0.00002833
   44       -6.2866430352      -0.0000000022     0.999939    0.00002383
   45       -6.2866430368      -0.0000000015     0.999939    0.00002004
   46       -6.2866430379      -0.0000000011     0.999939    0.00001685
   47       -6.2866430386      -0.0000000008     0.999939    0.00001417
   48       -6.2866430392      -0.0000000005     0.999939    0.00001192
   49       -6.2866430396      -0.0000000004     0.999939    0.00001002
   50       -6.2866430398      -0.0000000003     0.999939    0.00000842
   51       -6.2866430400      -0.0000000002     0.999939    0.00000708
   52       -6.2866430402      -0.0000000001     0.999939    0.00000595
   53       -6.2866430403      -0.0000000001     0.999939    0.00000501
   54       -6.2866430403      -0.0000000001     0.999939    0.00000421
   55       -6.2866430404      -0.0000000000     0.999939    0.00000354
   56       -6.2866430404      -0.0000000000     0.999939    0.00000297
   57       -6.2866430404      -0.0000000000     0.999939    0.00000250
   58       -6.2866430404      -0.0000000000     0.999939    0.00000210
   59       -6.2866430405      -0.0000000000     0.999939    0.00000177
   60       -6.2866430405      -0.0000000000     0.999939    0.00000148
   61       -6.2866430405      -0.0000000000     0.999939    0.00000125
   62       -6.2866430405      -0.0000000000     0.999939    0.00000105
   63       -6.2866430405      -0.0000000000     0.999939    0.00000088
  
--------------------------------------------------
 Final SA-REKS(2,2) energy:      -6.28664304
  
 State     Energy      FON(1)    FON(2)   Spin
  PPS   -6.41097508   1.999877  0.000123  0.00
  OSS   -6.16231100   1.000000  1.000000  0.00
 Trip   -6.24417979   1.000000  1.000000  1.00
--------------------------------------------------

 Lagrangian Wab:   0.00662927  0.00662904

--------------------------------------------------
 SSR: 2SI-2SA-REKS(2,2) Hamiltonian matrix
               PPS           OSS
   PPS    -6.41097508    0.00930147
   OSS     0.00930147   -6.16231100
--------------------------------------------------

----------------------------------------------------------------
 SSR: 2SI-2SA-REKS(2,2) states
                    E_n       C_{PPS}    C_{OSS}
 SSR state  1   -6.41132253  -0.999303   0.037328
 SSR state  2   -6.16196355  -0.037328  -0.999303
----------------------------------------------------------------

 unrelaxed SSR FONs for S0:  1.998484  0.001516

Total Energy:                       -6.4113225274 H         -174.4610 eV
Extrapolated to 0:                  -6.4113225274 H         -174.4610 eV

----------------------------------------------------------------------------------
 Solving CP-REKS equation for  1 state vector...
----------------------------------------------------------------------------------
  CG solver: Constructing Y initial guess
  CG solver: Iteration    1    eps =    0.000115942584
  CG solver: Iteration    2    eps =    0.000081777121
  CG solver: Iteration    3    eps =    0.000007632932
  CG solver: Iteration    4    eps =    0.000001058578
  CG solver: Iteration    5    eps =    0.000000012172
  CG solver: Iteration    6    eps =    0.000000004919
  Convergence reached in CG solver after    6 iterations
  CG solver: Calculating converged R, Z, Q2 matrix
----------------------------------------------------------------------------------

----------------------------------------------------------------------------------
 Solving CP-REKS equation for SI between  1 and  2 state vectors...
----------------------------------------------------------------------------------
  CG solver: Constructing Y initial guess
  CG solver: Iteration    1    eps =    0.003056556101
  CG solver: Iteration    2    eps =    0.004669572933
  CG solver: Iteration    3    eps =    0.000585184352
  CG solver: Iteration    4    eps =    0.000007079837
  CG solver: Iteration    5    eps =    0.000000989764
  CG solver: Iteration    6    eps =    0.000000025599
  CG solver: Iteration    7    eps =    0.000000001054
  Convergence reached in CG solver after    7 iterations
  CG solver: Calculating converged R, Z, Q2 matrix
----------------------------------------------------------------------------------

--------------------------------------------------
 Gradient Information
--------------------------------------------------
           1 st state (SSR)
     0.00014587    -0.00204571    -0.01452488
     0.00613881     0.00207348     0.01719822
     0.01138520    -0.00051665     0.00141452
     0.01130570     0.00335430     0.00103547
    -0.01595063    -0.00113574    -0.00760426
    -0.01302495    -0.00172968     0.00248093

           2 st state (SSR)
     0.00260142    -0.00639229     0.08768116
    -0.00751705     0.00488047    -0.10149535
    -0.01117137     0.00914882     0.01889274
    -0.00913205    -0.00034065    -0.00815185
     0.01253157     0.00455832    -0.01448214
     0.01268748    -0.01185466     0.01755544
--------------------------------------------------
 Coupling Information
--------------------------------------------------
 between  1 and  2 states
--------------------------------------------------
 g vector - difference gradient
    -0.00126576     0.00213126    -0.05301057
     0.00703401    -0.00150293     0.06084303
     0.01234375    -0.00463023    -0.00864308
     0.01128337     0.00170041     0.00467850
    -0.01547248    -0.00261055     0.00351205
    -0.01392289     0.00491204    -0.00737992

 h vector - derivative coupling
    -0.00046186    -0.00064296    -0.02358920
     0.00249957    -0.00127674     0.01778334
     0.01382076     0.00288734     0.00161002
     0.01384732    -0.00203489     0.00096249
    -0.01592790     0.00326736     0.00084873
    -0.01377789    -0.00220010     0.00238463

 G vector - GDV
    -0.00122778     0.00217329    -0.05110302
     0.00682793    -0.00140350     0.05934678
     0.01127828    -0.00483273    -0.00873911
     0.01021887     0.00184748     0.00459366
    -0.01424110    -0.00284703     0.00343894
    -0.01285622     0.00506249    -0.00753726

 H vector - DCV - non-adiabatic coupling
    -0.00222571    -0.00193365    -0.11019540
     0.01210047    -0.00555545     0.08932045
     0.05896371     0.01016150     0.00385279
     0.05875265    -0.00762902     0.00524880
    -0.06832643     0.01228548     0.00444488
    -0.05926468    -0.00732887     0.00732849
--------------------------------------------------


--------------------------------------------------------------------------------
DFTB+ running times                          cpu [s]             wall clock [s]
--------------------------------------------------------------------------------
SCC                                    +     0.03  ( 71.0%)      0.03  ( 55.1%)
Post-SCC processing                    +     0.01  ( 25.8%)      0.01  ( 22.4%)
  Force calculation                          0.01  ( 25.3%)      0.01  ( 20.4%)
--------------------------------------------------------------------------------
Missing                                +     0.00  (  3.2%)      0.01  ( 22.4%)
Total                                  =     0.04  (100.0%)      0.05  (100.0%)
--------------------------------------------------------------------------------
