     6
  Step:   300            Position(A)                                  Velocity(au)
C        -0.05205588     0.02643569     0.02288899     0.00007055     0.00007586     0.00012852
N        -0.04032869    -0.05570179     1.29404095    -0.00022919    -0.00001475    -0.00012641
H         0.13409970    -0.91394487    -0.48985830    -0.00094269    -0.00020096     0.00023585
H         0.14115354     0.73567494     1.91185287     0.00028503    -0.00050963     0.00039166
H        -0.03602968    -0.98757374     1.72215221     0.00219017     0.00013668     0.00033380
H        -0.27144521     0.95510367    -0.50728879     0.00081173    -0.00012508    -0.00073615
