     6
  Step:     0            Position(A)                                  Velocity(au)
C        -0.03470579     0.00094831     0.00596473    -0.00003670     0.00001806    -0.00006477
N        -0.04640124    -0.04687444     1.31053992     0.00014036    -0.00010029    -0.00002105
H         0.93102553     0.04607114    -0.52011343    -0.00008894    -0.00008436     0.00033845
H         0.85957580    -0.14045603     1.77909264    -0.00074868     0.00075534    -0.00051180
H        -0.96850711    -0.05088152     1.85729074    -0.00122468     0.00032550     0.00101206
H        -0.97666763     0.11557205    -0.50702881     0.00054910     0.00018199     0.00022567
     6
  Step:     1            Position(A)                                  Velocity(au)
C        -0.03489784     0.00104273     0.00554690    -0.00003349     0.00001644    -0.00008758
N        -0.04566230    -0.04742189     1.31051268     0.00012824    -0.00009993     0.00001104
H         0.93063832     0.04564700    -0.51847473    -0.00005018    -0.00007086     0.00025982
H         0.85552210    -0.13636433     1.77652959    -0.00072180     0.00074057    -0.00041837
H        -0.97476963    -0.04912049     1.86269791    -0.00105341     0.00031873     0.00095736
H        -0.97394440     0.11662602    -0.50615379     0.00044234     0.00020430     0.00009148
     6
  Step:     2            Position(A)                                  Velocity(au)
C        -0.03507204     0.00112811     0.00500707    -0.00003026     0.00001478    -0.00010952
N        -0.04499889    -0.04796717     1.31066059     0.00011310    -0.00009965     0.00004289
H         0.93047684     0.04529627    -0.51727236    -0.00000698    -0.00005763     0.00017946
H         0.85168295    -0.13235791     1.77451776    -0.00067176     0.00072544    -0.00031111
H        -0.98002608    -0.04739625     1.86775945    -0.00086038     0.00031246     0.00088841
H        -0.97183067     0.11780605    -0.50602853     0.00032803     0.00022830    -0.00004776
     6
  Step:     3            Position(A)                                  Velocity(au)
C        -0.03522849     0.00120427     0.00435024    -0.00002710     0.00001310    -0.00013064
N        -0.04442652    -0.04851069     1.31098137     0.00009532    -0.00009949     0.00007430
H         0.93056203     0.04501728    -0.51651387     0.00003954    -0.00004472     0.00009788
H         0.84818207    -0.12843774     1.77313023    -0.00060013     0.00071063    -0.00019093
H        -0.98417069    -0.04570634     1.87240515    -0.00064993     0.00030673     0.00080807
H        -0.97036014     0.11912050    -0.50667567     0.00020880     0.00025383    -0.00019069
     6
  Step:     4            Position(A)                                  Velocity(au)
C        -0.03536783     0.00127115     0.00358102    -0.00002410     0.00001142    -0.00015104
N        -0.04395842    -0.04905322     1.31147161     0.00007530    -0.00009952     0.00010510
H         0.93090844     0.04480813    -0.51620396     0.00008824    -0.00003215     0.00001549
H         0.84513212    -0.12460089     1.77243360    -0.00050911     0.00069678    -0.00005904
H        -0.98712057    -0.04404809     1.87658019    -0.00042571     0.00030153     0.00071889
H        -0.96955143     0.12057682    -0.50811004     0.00008731     0.00028073    -0.00033598
     6
  Step:     5            Position(A)                                  Velocity(au)
C        -0.03549122     0.00132880     0.00270348    -0.00002135     0.00000976    -0.00017080
N        -0.04360553    -0.04959578     1.31212724     0.00005344    -0.00009977     0.00013521
H         0.93152411     0.04466674    -0.51634497     0.00013795    -0.00001995    -0.00006734
H         0.84263125    -0.12084074     1.77248657    -0.00040151     0.00068448     0.00008308
H        -0.98881223    -0.04241871     1.88024324    -0.00019084     0.00029688     0.00062304
H        -0.96940814     0.12218137    -0.51033894    -0.00003378     0.00030879    -0.00048236
     6
  Step:     6            Position(A)                                  Velocity(au)
C        -0.03560030     0.00137740     0.00172115    -0.00001893     0.00000813    -0.00019002
N        -0.04337654    -0.05013966     1.31294390     0.00003014    -0.00010027     0.00016458
H         0.93241059     0.04459092    -0.51693727     0.00018745    -0.00000812    -0.00015028
H         0.84075996    -0.11714742     1.77333832    -0.00028072     0.00067423     0.00023358
H        -0.98919867    -0.04081532     1.88336460     0.00005192     0.00029273     0.00052244
H        -0.96991931     0.12393931    -0.51336253    -0.00015188     0.00033774    -0.00062847
     6
  Step:     7            Position(A)                                  Velocity(au)
C        -0.03569712     0.00141722     0.00063700    -0.00001692     0.00000656    -0.00020874
N        -0.04327777    -0.05068630     1.31391708     0.00000585    -0.00010104     0.00019316
H         0.93356271     0.04457845    -0.51797934     0.00023548     0.00000332    -0.00023295
H         0.83957830    -0.11350831     1.77502688    -0.00015068     0.00066640     0.00039023
H        -0.98824756    -0.03923512     1.88592490     0.00029990     0.00028905     0.00041886
H        -0.97105990     0.12585436    -0.51717379    -0.00026440     0.00036724    -0.00077291
     6
  Step:     8            Position(A)                                  Velocity(au)
C        -0.03578404     0.00144864    -0.00054629    -0.00001535     0.00000506    -0.00022698
N        -0.04331304    -0.05123723     1.31504208    -0.00001895    -0.00010207     0.00022087
H         0.93496848     0.04462700    -0.51946767     0.00028070     0.00001435    -0.00031488
H         0.83912326    -0.10990883     1.77757713    -0.00001583     0.00066120     0.00055032
H        -0.98594106    -0.03767561     1.88791436     0.00055018     0.00028572     0.00031407
H        -0.97279133     0.12792843    -0.52175814    -0.00036881     0.00039689    -0.00091406
     6
  Step:     9            Position(A)                                  Velocity(au)
C        -0.03586368     0.00147211    -0.00182605    -0.00001427     0.00000365    -0.00024464
N        -0.04348343    -0.05179392     1.31631384    -0.00004370    -0.00010333     0.00024755
H         0.93660869     0.04473417    -0.52139624     0.00032167     0.00002493    -0.00039544
H         0.83940656    -0.10633333     1.78099864     0.00011893     0.00065869     0.00071065
H        -0.98227732    -0.03613472     1.88933294     0.00079926     0.00028262     0.00021000
H        -0.97506195     0.13016121    -0.52709261    -0.00046259     0.00042616    -0.00105004
     6
  Step:    10            Position(A)                                  Velocity(au)
C        -0.03593875     0.00148820    -0.00319911    -0.00001368     0.00000235    -0.00026155
N        -0.04378693    -0.05235768     1.31772645    -0.00006776    -0.00010475     0.00027293
H         0.93845661     0.04489731    -0.52375571     0.00035690     0.00003499    -0.00047379
H         0.84041289    -0.10276618     1.78528323     0.00024836     0.00065868     0.00086749
H        -0.97727414    -0.03461100     1.89019152     0.00104268     0.00027959     0.00010893
H        -0.97780749     0.13254960    -0.53314454    -0.00054330     0.00045440    -0.00117867
     6
  Step:    11            Position(A)                                  Velocity(au)
C        -0.03601197     0.00149757    -0.00466134    -0.00001358     0.00000117    -0.00027742
N        -0.04421801    -0.05292945     1.31927251    -0.00009041    -0.00010625     0.00029661
H         0.94047761     0.04511342    -0.52653231     0.00038483     0.00004443    -0.00054884
H         0.84209885    -0.09919294     1.79040259     0.00036707     0.00066079     0.00101664
H        -0.97097420    -0.03310382     1.89051383     0.00127485     0.00027648     0.00001362
H        -0.98095152     0.13508712    -0.53986988    -0.00060858     0.00048085    -0.00129739
     6
  Step:    12            Position(A)                                  Velocity(au)
C        -0.03608596     0.00150094    -0.00620705    -0.00001393     0.00000015    -0.00029189
N        -0.04476721    -0.05350972     1.32094244    -0.00011085    -0.00010773     0.00031807
H         0.94262907     0.04537902    -0.52970651     0.00040395     0.00005313    -0.00061930
H         0.84439286    -0.09560160     1.79630614     0.00046980     0.00066442     0.00115361
H        -0.96345162    -0.03161330     1.89033918     0.00148893     0.00027312    -0.00007266
H        -0.98440601     0.13776322    -0.54721142    -0.00065631     0.00050466    -0.00140341
     6
  Step:    13            Position(A)                                  Velocity(au)
C        -0.03616309     0.00149915    -0.00782849    -0.00001467    -0.00000072    -0.00030452
N        -0.04542079    -0.05409837     1.32272370    -0.00012824    -0.00010906     0.00033667
H         0.94486068     0.04568993    -0.53325191     0.00041293     0.00006095    -0.00068368
H         0.84719640    -0.09198372     1.80291974     0.00055172     0.00066882     0.00127384
H        -0.95481870    -0.03014033     1.88972543     0.00167702     0.00026941    -0.00014610
H        -0.98807271     0.14056288    -0.55509746    -0.00068474     0.00052494    -0.00149387
     6
  Step:    14            Position(A)                                  Velocity(au)
C        -0.03624538     0.00149309    -0.00951548    -0.00001573    -0.00000142    -0.00031484
N        -0.04616048    -0.05469457     1.32460021    -0.00014175    -0.00011011     0.00035173
H         0.94711529     0.04604120    -0.53713427     0.00041067     0.00006772    -0.00074045
H         0.85038695    -0.08833528     1.81014562     0.00060881     0.00067312     0.00137304
H        -0.94523184    -0.02868627     1.88875191     0.00183055     0.00026531    -0.00020254
H        -0.99184535     0.14346640    -0.56344141    -0.00069275     0.00054085    -0.00156604
     6
  Step:    15            Position(A)                                  Velocity(au)
C        -0.03633436     0.00148372    -0.01125532    -0.00001702    -0.00000193    -0.00032242
N        -0.04696363    -0.05529683     1.32655200    -0.00015063    -0.00011077     0.00036255
H         0.94933053     0.04642706    -0.54131124     0.00039652     0.00007331    -0.00078819
H         0.85382284    -0.08465727     1.81786431     0.00063828     0.00067644     0.00144765
H        -0.93489445    -0.02725258     1.88752095     0.00194109     0.00026088    -0.00023780
H        -0.99561282     0.14644965    -0.57214276    -0.00067991     0.00055166    -0.00161767
     6
  Step:    16            Position(A)                                  Velocity(au)
C        -0.03643108     0.00147206    -0.01303293    -0.00001844    -0.00000225    -0.00032692
N        -0.04780373    -0.05590300     1.32855538    -0.00015429    -0.00011095     0.00036855
H         0.95144111     0.04684092    -0.54573292     0.00037037     0.00007757    -0.00082571
H         0.85735013    -0.08095573     1.82593859     0.00063883     0.00067797     0.00149518
H        -0.92405572    -0.02584028     1.88615762     0.00200117     0.00025626    -0.00024808
H        -0.99926279     0.14948470    -0.58108923    -0.00064664     0.00055687    -0.00164720
