    14
  Step:   600            Position(A)                                  Velocity(au)
C        -5.89563957    -0.84423981    -0.23973610    -0.00035240    -0.00025403     0.00005718
C        -4.78114652    -0.48800111     0.34254033    -0.00035883     0.00054670    -0.00020510
H        -6.17234541    -0.62075816    -1.29929044    -0.00179004    -0.00096573     0.00010948
H        -6.58358428    -1.43908980     0.35568094    -0.00060437     0.00013954     0.00078518
H        -4.48670234    -0.59972339     1.45166264    -0.00281279     0.00009806    -0.00074646
C        -3.68914636     0.13751265    -0.39529609     0.00051653    -0.00011191    -0.00007772
C        -2.74837719     0.59305468     0.51668289     0.00006920    -0.00068830     0.00068200
H        -3.86812236     0.46695348    -1.41509465    -0.00038785    -0.00184728    -0.00374415
H        -3.33530652     0.70865814     1.44215711    -0.00093766     0.00129095    -0.00206054
C        -1.71960699     1.58908496     0.46407642     0.00057921    -0.00036706     0.00057119
H        -1.59439519     2.24785500     1.28823038     0.00101098     0.00061728     0.00028160
N        -0.63699792     1.85084266    -0.27306506     0.00009511     0.00049983    -0.00034637
H        -0.33433468     2.76966296    -0.05068992    -0.00099556     0.00156644    -0.00139903
H        -0.32035433     1.62178457    -1.16665210    -0.00021078     0.00257664    -0.00065727
