|===============================================================================
|
|  DFTB+ release 20.1
|
|  Copyright (C) 2006 - 2020  DFTB+ developers group
|
|===============================================================================
|
|  When publishing results obtained with DFTB+, please cite the following
|  reference:
|
|  * DFTB+, a software package for efficient approximate density functional
|    theory based atomistic simulations, J. Chem. Phys. 152, 124101 (2020).
|    [doi: 10.1063/1.5143190]
|
|  You should also cite additional publications crediting the parametrization
|  data you use. Please consult the documentation of the SK-files for the
|  references.
|
|===============================================================================

Reading input file 'dftb_in.hsd'
Parser version: 8

--------------------------------------------------------------------------------
Reading SK-files:
Done.


Processed input in HSD format written to 'dftb_pin.hsd'

Starting initialization...
--------------------------------------------------------------------------------
OpenMP threads:              1
Chosen random seed:          497725895
Mode:                        Static calculation
Self consistent charges:     Yes
SCC-tolerance:                 0.100000E-05
Max. scc iterations:                   1000
Shell resolved Hubbard:      No
Spin polarisation:           No
Nr. of up electrons:            16.000000
Nr. of down electrons:          16.000000
Periodic boundaries:         No
Electronic solver:           Relatively robust
Maximal SCC-cycles:                    1000
Initial charges:             Set automatically (system chrg:   0.100E+01)
Included shells:             C:  s, p
                             H:  s
                             N:  s, p
Spin coupling constants:     C   1(s)-1(s):  -0.455900E-01
                             C   1(s)-2(p):  -0.293000E-01
                             C   2(p)-1(s):  -0.293000E-01
                             C   2(p)-2(p):  -0.275500E-01
                             H   1(s)-1(s):  -0.792500E-01
                             N   1(s)-1(s):  -0.468700E-01
                             N   1(s)-2(p):  -0.317000E-01
                             N   2(p)-1(s):  -0.317000E-01
                             N   2(p)-2(p):  -0.307200E-01
Range separated hybrid:      Yes
  Screening parameter omega:   0.300000E+00
  Range separated algorithm:   MatrixBased
Extra options:
                             Mulliken analysis
                             Force calculation
Force type                   original
                             Eigenvector printing


REKS Calcuation:             Yes
SSR(2,2) Calcuation:         Yes
Energy Functional:           (PPS+OSS)/2
Number of Core Orbitals:                 15
Number of Active Orbitals:                2
Number of Basis:                         32
Number of States:                         2
State-Averaging Weight:          0.500000
                                 0.500000
State of Interest:                        1
Initial Guess:               Diagonalize H0 matrix
Newton-Raphson for FON opt:  Yes
NR max. Iterations:                      50
Level Shifting:              Yes
Shift Value:                     0.300000
W Scale Factor:              C  =    3.200000
                             H  =    3.200000
                             N  =    3.200000
Transition Dipole:           No
Gradient of Microstate:      No
CP-REKS Solver:              Preconditioned Conjugate-Gradient
CG max. Iterations:                     100
CG Tolerance:                  0.100000E-07
Memory for A and Hxc:        Direct Updating Without Saving
Non-Adiabatic Coupling:      Yes

--------------------------------------------------------------------------------

***  Geometry step: 0

  iSCC       reks energy        Diff energy         x_a       SCC error   
    1      -16.4177895094       0.0000000000     0.997144    1.21773070
    2      -16.4379786805      -0.0201891710     0.999696    0.05906178
    3      -16.4422350271      -0.0042563466     0.999896    0.02065621
    4      -16.4435966205      -0.0013615934     0.999942    0.01214376
    5      -16.4441557723      -0.0005591518     0.999959    0.00746487
    6      -16.4444202719      -0.0002644996     0.999967    0.00478800
    7      -16.4445583854      -0.0001381134     0.999972    0.00315637
    8      -16.4446366864      -0.0000783010     0.999974    0.00211788
    9      -16.4446845321      -0.0000478457     0.999976    0.00163117
   10      -16.4447158602      -0.0000313281     0.999977    0.00130272
   11      -16.4447376854      -0.0000218252     0.999978    0.00105294
   12      -16.4447537315      -0.0000160461     0.999979    0.00085888
   13      -16.4447660818      -0.0000123503     0.999979    0.00070569
   14      -16.4447759639      -0.0000098821     0.999979    0.00060391
   15      -16.4447841375      -0.0000081736     0.999980    0.00057378
   16      -16.4447910932      -0.0000069558     0.999980    0.00054551
   17      -16.4447971600      -0.0000060668     0.999980    0.00051940
   18      -16.4448025646      -0.0000054046     0.999980    0.00049551
   19      -16.4448074668      -0.0000049022     0.999980    0.00047382
   20      -16.4448119814      -0.0000045146     0.999980    0.00045420
   21      -16.4448161915      -0.0000042102     0.999981    0.00043652
   22      -16.4448201585      -0.0000039669     0.999981    0.00042059
   23      -16.4448239273      -0.0000037688     0.999981    0.00040626
   24      -16.4448275317      -0.0000036044     0.999981    0.00039335
   25      -16.4448309969      -0.0000034652     0.999981    0.00038172
   26      -16.4448343420      -0.0000033451     0.999981    0.00037121
   27      -16.4448375814      -0.0000032394     0.999981    0.00036170
   28      -16.4448407263      -0.0000031448     0.999981    0.00035307
   29      -16.4448437851      -0.0000030589     0.999981    0.00034521
   30      -16.4448467647      -0.0000029796     0.999981    0.00033804
   31      -16.4448496704      -0.0000029056     0.999981    0.00033146
   32      -16.4448525063      -0.0000028359     0.999982    0.00032540
   33      -16.4448552761      -0.0000027698     0.999982    0.00031980
   34      -16.4448579825      -0.0000027065     0.999982    0.00031461
   35      -16.4448606281      -0.0000026456     0.999982    0.00030977
   36      -16.4448632151      -0.0000025869     0.999982    0.00030525
   37      -16.4448657451      -0.0000025301     0.999982    0.00030099
   38      -16.4448682200      -0.0000024749     0.999982    0.00029698
   39      -16.4448706413      -0.0000024213     0.999982    0.00029318
   40      -16.4448730103      -0.0000023690     0.999982    0.00028956
   41      -16.4448753284      -0.0000023181     0.999982    0.00028611
   42      -16.4448775969      -0.0000022684     0.999982    0.00028280
   43      -16.4448798168      -0.0000022199     0.999982    0.00027963
   44      -16.4448819894      -0.0000021726     0.999982    0.00027657
   45      -16.4448841158      -0.0000021264     0.999983    0.00027361
   46      -16.4448861969      -0.0000020812     0.999983    0.00027074
   47      -16.4448882339      -0.0000020370     0.999983    0.00026795
   48      -16.4448902278      -0.0000019939     0.999983    0.00026524
   49      -16.4448921795      -0.0000019517     0.999983    0.00026259
   50      -16.4448940899      -0.0000019105     0.999983    0.00026001
   51      -16.4448959601      -0.0000018702     0.999983    0.00025747
   52      -16.4448977910      -0.0000018308     0.999983    0.00025499
   53      -16.4448995833      -0.0000017924     0.999983    0.00025256
   54      -16.4449013381      -0.0000017548     0.999983    0.00025017
   55      -16.4449030561      -0.0000017180     0.999983    0.00024781
   56      -16.4449047383      -0.0000016821     0.999983    0.00024550
   57      -16.4449063854      -0.0000016471     0.999983    0.00024321
   58      -16.4449079982      -0.0000016128     0.999983    0.00024096
   59      -16.4449095775      -0.0000015793     0.999983    0.00023875
   60      -16.4449111241      -0.0000015466     0.999984    0.00023656
   61      -16.4449126387      -0.0000015147     0.999984    0.00023440
   62      -16.4449141222      -0.0000014834     0.999984    0.00023226
   63      -16.4449155751      -0.0000014529     0.999984    0.00023015
   64      -16.4449169983      -0.0000014231     0.999984    0.00022807
   65      -16.4449183923      -0.0000013940     0.999984    0.00022601
   66      -16.4449197579      -0.0000013656     0.999984    0.00022398
   67      -16.4449210957      -0.0000013378     0.999984    0.00022196
   68      -16.4449224064      -0.0000013107     0.999984    0.00021997
   69      -16.4449236906      -0.0000012842     0.999984    0.00021800
   70      -16.4449249489      -0.0000012583     0.999984    0.00021606
   71      -16.4449261819      -0.0000012330     0.999984    0.00021413
   72      -16.4449273903      -0.0000012083     0.999984    0.00021223
   73      -16.4449285745      -0.0000011842     0.999984    0.00021034
   74      -16.4449297351      -0.0000011606     0.999984    0.00020848
   75      -16.4449308727      -0.0000011376     0.999985    0.00020664
   76      -16.4449319878      -0.0000011151     0.999985    0.00020481
   77      -16.4449330809      -0.0000010931     0.999985    0.00020301
   78      -16.4449341526      -0.0000010717     0.999985    0.00020123
   79      -16.4449352033      -0.0000010507     0.999985    0.00019946
   80      -16.4449362335      -0.0000010302     0.999985    0.00019772
   81      -16.4449372438      -0.0000010102     0.999985    0.00019599
   82      -16.4449382344      -0.0000009907     0.999985    0.00019428
   83      -16.4449392060      -0.0000009716     0.999985    0.00019259
   84      -16.4449401589      -0.0000009529     0.999985    0.00019092
   85      -16.4449410936      -0.0000009347     0.999985    0.00018927
   86      -16.4449420104      -0.0000009169     0.999985    0.00018763
   87      -16.4449429099      -0.0000008994     0.999985    0.00018602
   88      -16.4449437923      -0.0000008824     0.999985    0.00018442
   89      -16.4449446581      -0.0000008658     0.999985    0.00018284
   90      -16.4449455076      -0.0000008496     0.999985    0.00018128
   91      -16.4449463413      -0.0000008337     0.999986    0.00017973
   92      -16.4449471595      -0.0000008182     0.999986    0.00017820
   93      -16.4449479625      -0.0000008030     0.999986    0.00017669
   94      -16.4449487507      -0.0000007882     0.999986    0.00017520
   95      -16.4449495244      -0.0000007737     0.999986    0.00017372
   96      -16.4449502839      -0.0000007595     0.999986    0.00017226
   97      -16.4449510296      -0.0000007457     0.999986    0.00017081
   98      -16.4449517617      -0.0000007321     0.999986    0.00016939
   99      -16.4449524806      -0.0000007189     0.999986    0.00016798
  100      -16.4449531866      -0.0000007060     0.999986    0.00016658
  101      -16.4449538800      -0.0000006933     0.999986    0.00016520
  102      -16.4449545609      -0.0000006810     0.999986    0.00016384
  103      -16.4449552298      -0.0000006689     0.999986    0.00016249
  104      -16.4449558868      -0.0000006570     0.999986    0.00016116
  105      -16.4449565323      -0.0000006455     0.999986    0.00015984
  106      -16.4449571665      -0.0000006342     0.999986    0.00015854
  107      -16.4449577896      -0.0000006231     0.999986    0.00015725
  108      -16.4449584019      -0.0000006123     0.999986    0.00015598
  109      -16.4449590036      -0.0000006017     0.999986    0.00015472
  110      -16.4449595949      -0.0000005913     0.999987    0.00015348
  111      -16.4449601761      -0.0000005812     0.999987    0.00015225
  112      -16.4449607475      -0.0000005713     0.999987    0.00015104
  113      -16.4449613091      -0.0000005616     0.999987    0.00014984
  114      -16.4449618612      -0.0000005521     0.999987    0.00014865
  115      -16.4449624040      -0.0000005428     0.999987    0.00014748
  116      -16.4449629378      -0.0000005338     0.999987    0.00014632
  117      -16.4449634627      -0.0000005249     0.999987    0.00014518
  118      -16.4449639788      -0.0000005162     0.999987    0.00014405
  119      -16.4449644865      -0.0000005077     0.999987    0.00014293
  120      -16.4449649858      -0.0000004993     0.999987    0.00014182
  121      -16.4449654769      -0.0000004912     0.999987    0.00014073
  122      -16.4449659601      -0.0000004832     0.999987    0.00013965
  123      -16.4449664355      -0.0000004753     0.999987    0.00013858
  124      -16.4449669032      -0.0000004677     0.999987    0.00013753
  125      -16.4449673634      -0.0000004602     0.999987    0.00013649
  126      -16.4449678162      -0.0000004529     0.999987    0.00013546
  127      -16.4449682619      -0.0000004457     0.999987    0.00013444
  128      -16.4449687005      -0.0000004386     0.999987    0.00013343
  129      -16.4449691323      -0.0000004317     0.999987    0.00013244
  130      -16.4449695572      -0.0000004250     0.999987    0.00013145
  131      -16.4449699756      -0.0000004184     0.999988    0.00013048
  132      -16.4449703875      -0.0000004119     0.999988    0.00012952
  133      -16.4449707931      -0.0000004056     0.999988    0.00012857
  134      -16.4449711924      -0.0000003993     0.999988    0.00012763
  135      -16.4449715856      -0.0000003932     0.999988    0.00012671
  136      -16.4449719729      -0.0000003873     0.999988    0.00012579
  137      -16.4449723543      -0.0000003814     0.999988    0.00012489
  138      -16.4449727300      -0.0000003757     0.999988    0.00012399
  139      -16.4449731001      -0.0000003701     0.999988    0.00012311
  140      -16.4449734647      -0.0000003646     0.999988    0.00012223
  141      -16.4449738239      -0.0000003592     0.999988    0.00012137
  142      -16.4449741778      -0.0000003539     0.999988    0.00012051
  143      -16.4449745265      -0.0000003487     0.999988    0.00011967
  144      -16.4449748702      -0.0000003436     0.999988    0.00011883
  145      -16.4449752088      -0.0000003387     0.999988    0.00011801
  146      -16.4449755426      -0.0000003338     0.999988    0.00011719
  147      -16.4449758716      -0.0000003290     0.999988    0.00011639
  148      -16.4449761959      -0.0000003243     0.999988    0.00011559
  149      -16.4449765156      -0.0000003197     0.999988    0.00011480
  150      -16.4449768308      -0.0000003152     0.999988    0.00011402
  151      -16.4449771415      -0.0000003108     0.999988    0.00011325
  152      -16.4449774479      -0.0000003064     0.999988    0.00011249
  153      -16.4449777501      -0.0000003022     0.999988    0.00011174
  154      -16.4449780480      -0.0000002980     0.999988    0.00011100
  155      -16.4449783419      -0.0000002939     0.999988    0.00011026
  156      -16.4449786318      -0.0000002899     0.999989    0.00010953
  157      -16.4449789177      -0.0000002859     0.999989    0.00010882
  158      -16.4449791998      -0.0000002820     0.999989    0.00010811
  159      -16.4449794780      -0.0000002783     0.999989    0.00010740
  160      -16.4449797525      -0.0000002745     0.999989    0.00010671
  161      -16.4449800234      -0.0000002709     0.999989    0.00010602
  162      -16.4449802907      -0.0000002673     0.999989    0.00010534
  163      -16.4449805544      -0.0000002638     0.999989    0.00010467
  164      -16.4449808147      -0.0000002603     0.999989    0.00010401
  165      -16.4449810717      -0.0000002569     0.999989    0.00010335
  166      -16.4449813252      -0.0000002536     0.999989    0.00010271
  167      -16.4449815756      -0.0000002503     0.999989    0.00010207
  168      -16.4449818227      -0.0000002471     0.999989    0.00010143
  169      -16.4449820666      -0.0000002440     0.999989    0.00010081
  170      -16.4449823075      -0.0000002409     0.999989    0.00010019
  171      -16.4449825453      -0.0000002378     0.999989    0.00009957
  172      -16.4449827802      -0.0000002348     0.999989    0.00009897
  173      -16.4449830121      -0.0000002319     0.999989    0.00009837
  174      -16.4449832411      -0.0000002290     0.999989    0.00009778
  175      -16.4449834674      -0.0000002262     0.999989    0.00009719
  176      -16.4449836908      -0.0000002234     0.999989    0.00009661
  177      -16.4449839115      -0.0000002207     0.999989    0.00009604
  178      -16.4449841296      -0.0000002180     0.999989    0.00009547
  179      -16.4449843450      -0.0000002154     0.999989    0.00009491
  180      -16.4449845578      -0.0000002128     0.999989    0.00009436
  181      -16.4449847681      -0.0000002103     0.999989    0.00009381
  182      -16.4449849759      -0.0000002078     0.999989    0.00009327
  183      -16.4449851813      -0.0000002054     0.999989    0.00009273
  184      -16.4449853842      -0.0000002029     0.999989    0.00009221
  185      -16.4449855848      -0.0000002006     0.999989    0.00009168
  186      -16.4449857831      -0.0000001983     0.999990    0.00009116
  187      -16.4449859790      -0.0000001960     0.999990    0.00009065
  188      -16.4449861728      -0.0000001937     0.999990    0.00009015
  189      -16.4449863643      -0.0000001915     0.999990    0.00008964
  190      -16.4449865537      -0.0000001894     0.999990    0.00008915
  191      -16.4449867409      -0.0000001872     0.999990    0.00008866
  192      -16.4449869260      -0.0000001851     0.999990    0.00008817
  193      -16.4449871091      -0.0000001831     0.999990    0.00008769
  194      -16.4449872902      -0.0000001811     0.999990    0.00008722
  195      -16.4449874692      -0.0000001791     0.999990    0.00008675
  196      -16.4449876463      -0.0000001771     0.999990    0.00008629
  197      -16.4449878215      -0.0000001752     0.999990    0.00008583
  198      -16.4449879948      -0.0000001733     0.999990    0.00008538
  199      -16.4449881662      -0.0000001714     0.999990    0.00008493
  200      -16.4449883358      -0.0000001696     0.999990    0.00008448
  201      -16.4449885036      -0.0000001678     0.999990    0.00008404
  202      -16.4449886696      -0.0000001660     0.999990    0.00008361
  203      -16.4449888339      -0.0000001643     0.999990    0.00008318
  204      -16.4449889965      -0.0000001626     0.999990    0.00008276
  205      -16.4449891574      -0.0000001609     0.999990    0.00008234
  206      -16.4449893166      -0.0000001592     0.999990    0.00008192
  207      -16.4449894743      -0.0000001576     0.999990    0.00008151
  208      -16.4449896303      -0.0000001560     0.999990    0.00008110
  209      -16.4449897847      -0.0000001544     0.999990    0.00008070
  210      -16.4449899376      -0.0000001529     0.999990    0.00008030
  211      -16.4449900889      -0.0000001514     0.999990    0.00007991
  212      -16.4449902388      -0.0000001499     0.999990    0.00007952
  213      -16.4449903872      -0.0000001484     0.999990    0.00007913
  214      -16.4449905341      -0.0000001469     0.999990    0.00007875
  215      -16.4449906796      -0.0000001455     0.999990    0.00007838
  216      -16.4449908237      -0.0000001441     0.999990    0.00007800
  217      -16.4449909664      -0.0000001427     0.999990    0.00007763
  218      -16.4449911077      -0.0000001413     0.999990    0.00007727
  219      -16.4449912477      -0.0000001400     0.999990    0.00007691
  220      -16.4449913864      -0.0000001387     0.999990    0.00007655
  221      -16.4449915238      -0.0000001374     0.999990    0.00007620
  222      -16.4449916599      -0.0000001361     0.999990    0.00007585
  223      -16.4449917947      -0.0000001348     0.999991    0.00007550
  224      -16.4449919283      -0.0000001336     0.999991    0.00007516
  225      -16.4449920607      -0.0000001324     0.999991    0.00007482
  226      -16.4449921919      -0.0000001312     0.999991    0.00007449
  227      -16.4449923219      -0.0000001300     0.999991    0.00007416
  228      -16.4449924507      -0.0000001288     0.999991    0.00007383
  229      -16.4449925784      -0.0000001277     0.999991    0.00007351
  230      -16.4449927050      -0.0000001266     0.999991    0.00007319
  231      -16.4449928304      -0.0000001254     0.999991    0.00007287
  232      -16.4449929548      -0.0000001244     0.999991    0.00007255
  233      -16.4449930780      -0.0000001233     0.999991    0.00007224
  234      -16.4449932003      -0.0000001222     0.999991    0.00007194
  235      -16.4449933214      -0.0000001212     0.999991    0.00007163
  236      -16.4449934416      -0.0000001201     0.999991    0.00007133
  237      -16.4449935607      -0.0000001191     0.999991    0.00007104
  238      -16.4449936789      -0.0000001181     0.999991    0.00007074
  239      -16.4449937960      -0.0000001172     0.999991    0.00007045
  240      -16.4449939122      -0.0000001162     0.999991    0.00007016
  241      -16.4449940274      -0.0000001152     0.999991    0.00006988
  242      -16.4449941417      -0.0000001143     0.999991    0.00006960
  243      -16.4449942551      -0.0000001134     0.999991    0.00006932
  244      -16.4449943676      -0.0000001125     0.999991    0.00006904
  245      -16.4449944791      -0.0000001116     0.999991    0.00006877
  246      -16.4449945898      -0.0000001107     0.999991    0.00006850
  247      -16.4449946996      -0.0000001098     0.999991    0.00006823
  248      -16.4449948086      -0.0000001090     0.999991    0.00006797
  249      -16.4449949167      -0.0000001081     0.999991    0.00006771
  250      -16.4449950239      -0.0000001073     0.999991    0.00006745
  251      -16.4449951304      -0.0000001065     0.999991    0.00006719
  252      -16.4449952361      -0.0000001056     0.999991    0.00006694
  253      -16.4449953409      -0.0000001049     0.999991    0.00006669
  254      -16.4449954450      -0.0000001041     0.999991    0.00006644
  255      -16.4449955483      -0.0000001033     0.999991    0.00006620
  256      -16.4449956508      -0.0000001025     0.999991    0.00006596
  257      -16.4449957526      -0.0000001018     0.999991    0.00006572
  258      -16.4449958537      -0.0000001011     0.999991    0.00006548
  259      -16.4449959540      -0.0000001003     0.999991    0.00006525
  260      -16.4449960536      -0.0000000996     0.999991    0.00006502
  261      -16.4449961525      -0.0000000989     0.999991    0.00006479
  262      -16.4449962507      -0.0000000982     0.999991    0.00006456
  263      -16.4449963482      -0.0000000975     0.999991    0.00006434
  264      -16.4449964451      -0.0000000968     0.999991    0.00006411
  265      -16.4449965412      -0.0000000962     0.999991    0.00006389
  266      -16.4449966368      -0.0000000955     0.999991    0.00006368
  267      -16.4449967316      -0.0000000949     0.999991    0.00006346
  268      -16.4449968259      -0.0000000942     0.999991    0.00006325
  269      -16.4449969195      -0.0000000936     0.999992    0.00006304
  270      -16.4449970125      -0.0000000930     0.999992    0.00006283
  271      -16.4449971049      -0.0000000924     0.999992    0.00006263
  272      -16.4449971967      -0.0000000918     0.999992    0.00006243
  273      -16.4449972878      -0.0000000912     0.999992    0.00006222
  274      -16.4449973785      -0.0000000906     0.999992    0.00006203
  275      -16.4449974685      -0.0000000900     0.999992    0.00006183
  276      -16.4449975580      -0.0000000895     0.999992    0.00006164
  277      -16.4449976469      -0.0000000889     0.999992    0.00006144
  278      -16.4449977352      -0.0000000884     0.999992    0.00006125
  279      -16.4449978231      -0.0000000878     0.999992    0.00006107
  280      -16.4449979103      -0.0000000873     0.999992    0.00006088
  281      -16.4449979971      -0.0000000868     0.999992    0.00006070
  282      -16.4449980833      -0.0000000862     0.999992    0.00006052
  283      -16.4449981691      -0.0000000857     0.999992    0.00006034
  284      -16.4449982543      -0.0000000852     0.999992    0.00006016
  285      -16.4449983390      -0.0000000847     0.999992    0.00005999
  286      -16.4449984233      -0.0000000842     0.999992    0.00005981
  287      -16.4449985070      -0.0000000838     0.999992    0.00005964
  288      -16.4449985903      -0.0000000833     0.999992    0.00005947
  289      -16.4449986731      -0.0000000828     0.999992    0.00005931
  290      -16.4449987555      -0.0000000824     0.999992    0.00005914
  291      -16.4449988374      -0.0000000819     0.999992    0.00005898
  292      -16.4449989189      -0.0000000815     0.999992    0.00005882
  293      -16.4449989999      -0.0000000810     0.999992    0.00005866
  294      -16.4449990805      -0.0000000806     0.999992    0.00005850
  295      -16.4449991606      -0.0000000802     0.999992    0.00005834
  296      -16.4449992404      -0.0000000797     0.999992    0.00005819
  297      -16.4449993197      -0.0000000793     0.999992    0.00005804
  298      -16.4449993986      -0.0000000789     0.999992    0.00005789
  299      -16.4449994771      -0.0000000785     0.999992    0.00005774
  300      -16.4449995552      -0.0000000781     0.999992    0.00005759
  301      -16.4449996329      -0.0000000777     0.999992    0.00005745
  302      -16.4449997103      -0.0000000773     0.999992    0.00005730
  303      -16.4449997872      -0.0000000770     0.999992    0.00005716
  304      -16.4449998638      -0.0000000766     0.999992    0.00005702
  305      -16.4449999400      -0.0000000762     0.999992    0.00005689
  306      -16.4450000159      -0.0000000759     0.999992    0.00005675
  307      -16.4450000914      -0.0000000755     0.999992    0.00005662
  308      -16.4450001665      -0.0000000751     0.999992    0.00005648
  309      -16.4450002413      -0.0000000748     0.999992    0.00005635
  310      -16.4450003158      -0.0000000745     0.999992    0.00005622
  311      -16.4450003899      -0.0000000741     0.999992    0.00005609
  312      -16.4450004637      -0.0000000738     0.999992    0.00005597
  313      -16.4450005372      -0.0000000735     0.999992    0.00005584
  314      -16.4450006103      -0.0000000731     0.999992    0.00005572
  315      -16.4450006831      -0.0000000728     0.999992    0.00005560
  316      -16.4450007557      -0.0000000725     0.999992    0.00005548
  317      -16.4450008279      -0.0000000722     0.999992    0.00005536
  318      -16.4450008998      -0.0000000719     0.999992    0.00005525
  319      -16.4450009714      -0.0000000716     0.999992    0.00005513
  320      -16.4450010428      -0.0000000713     0.999992    0.00005502
  321      -16.4450011138      -0.0000000710     0.999992    0.00005491
  322      -16.4450011846      -0.0000000708     0.999992    0.00005480
  323      -16.4450012551      -0.0000000705     0.999992    0.00005469
  324      -16.4450013253      -0.0000000702     0.999992    0.00005458
  325      -16.4450013952      -0.0000000699     0.999992    0.00005447
  326      -16.4450014649      -0.0000000697     0.999993    0.00005437
  327      -16.4450015343      -0.0000000694     0.999993    0.00005427
  328      -16.4450016035      -0.0000000692     0.999993    0.00005417
  329      -16.4450016724      -0.0000000689     0.999993    0.00005407
  330      -16.4450017411      -0.0000000687     0.999993    0.00005397
  331      -16.4450018095      -0.0000000684     0.999993    0.00005387
  332      -16.4450018777      -0.0000000682     0.999993    0.00005378
  333      -16.4450019457      -0.0000000680     0.999993    0.00005368
  334      -16.4450020134      -0.0000000677     0.999993    0.00005359
  335      -16.4450020809      -0.0000000675     0.999993    0.00005350
  336      -16.4450021482      -0.0000000673     0.999993    0.00005341
  337      -16.4450022153      -0.0000000671     0.999993    0.00005332
  338      -16.4450022821      -0.0000000669     0.999993    0.00005323
  339      -16.4450023488      -0.0000000666     0.999993    0.00005315
  340      -16.4450024152      -0.0000000664     0.999993    0.00005306
  341      -16.4450024815      -0.0000000662     0.999993    0.00005298
  342      -16.4450025475      -0.0000000660     0.999993    0.00005290
  343      -16.4450026133      -0.0000000658     0.999993    0.00005282
  344      -16.4450026790      -0.0000000657     0.999993    0.00005274
  345      -16.4450027445      -0.0000000655     0.999993    0.00005266
  346      -16.4450028097      -0.0000000653     0.999993    0.00005259
  347      -16.4450028748      -0.0000000651     0.999993    0.00005251
  348      -16.4450029398      -0.0000000649     0.999993    0.00005244
  349      -16.4450030045      -0.0000000648     0.999993    0.00005237
  350      -16.4450030691      -0.0000000646     0.999993    0.00005230
  351      -16.4450031335      -0.0000000644     0.999993    0.00005223
  352      -16.4450031978      -0.0000000643     0.999993    0.00005216
  353      -16.4450032619      -0.0000000641     0.999993    0.00005209
  354      -16.4450033258      -0.0000000639     0.999993    0.00005203
  355      -16.4450033896      -0.0000000638     0.999993    0.00005196
  356      -16.4450034533      -0.0000000636     0.999993    0.00005190
  357      -16.4450035168      -0.0000000635     0.999993    0.00005184
  358      -16.4450035801      -0.0000000634     0.999993    0.00005178
  359      -16.4450036433      -0.0000000632     0.999993    0.00005172
  360      -16.4450037064      -0.0000000631     0.999993    0.00005166
  361      -16.4450037694      -0.0000000630     0.999993    0.00005161
  362      -16.4450038322      -0.0000000628     0.999993    0.00005155
  363      -16.4450038949      -0.0000000627     0.999993    0.00005150
  364      -16.4450039575      -0.0000000626     0.999993    0.00005144
  365      -16.4450040199      -0.0000000625     0.999993    0.00005139
  366      -16.4450040823      -0.0000000623     0.999993    0.00005134
  367      -16.4450041445      -0.0000000622     0.999993    0.00005129
  368      -16.4450042066      -0.0000000621     0.999993    0.00005125
  369      -16.4450042686      -0.0000000620     0.999993    0.00005120
  370      -16.4450043306      -0.0000000619     0.999993    0.00005115
  371      -16.4450043924      -0.0000000618     0.999993    0.00005111
  372      -16.4450044541      -0.0000000617     0.999993    0.00005107
  373      -16.4450045157      -0.0000000616     0.999993    0.00005103
  374      -16.4450045773      -0.0000000615     0.999993    0.00005099
  375      -16.4450046387      -0.0000000614     0.999993    0.00005095
  376      -16.4450047001      -0.0000000614     0.999993    0.00005091
  377      -16.4450047613      -0.0000000613     0.999993    0.00005087
  378      -16.4450048225      -0.0000000612     0.999993    0.00005084
  379      -16.4450048837      -0.0000000611     0.999993    0.00005080
  380      -16.4450049447      -0.0000000611     0.999993    0.00005077
  381      -16.4450050057      -0.0000000610     0.999993    0.00005074
  382      -16.4450050666      -0.0000000609     0.999993    0.00005071
  383      -16.4450051275      -0.0000000609     0.999993    0.00005068
  384      -16.4450051883      -0.0000000608     0.999993    0.00005065
  385      -16.4450052490      -0.0000000607     0.999993    0.00005062
  386      -16.4450053097      -0.0000000607     0.999993    0.00005059
  387      -16.4450053703      -0.0000000606     0.999993    0.00005057
  388      -16.4450054309      -0.0000000606     0.999993    0.00005055
  389      -16.4450054914      -0.0000000605     0.999993    0.00005052
  390      -16.4450055519      -0.0000000605     0.999993    0.00005050
  391      -16.4450056124      -0.0000000605     0.999993    0.00005048
  392      -16.4450056728      -0.0000000604     0.999994    0.00005046
  393      -16.4450057332      -0.0000000604     0.999994    0.00005044
  394      -16.4450057935      -0.0000000603     0.999994    0.00005043
  395      -16.4450058538      -0.0000000603     0.999994    0.00005041
  396      -16.4450059141      -0.0000000603     0.999994    0.00005040
  397      -16.4450059744      -0.0000000603     0.999994    0.00005038
  398      -16.4450060346      -0.0000000602     0.999994    0.00005037
  399      -16.4450060949      -0.0000000602     0.999994    0.00005036
  400      -16.4450061551      -0.0000000602     0.999994    0.00005035
  401      -16.4450062153      -0.0000000602     0.999994    0.00005034
  402      -16.4450062755      -0.0000000602     0.999994    0.00005034
  403      -16.4450063357      -0.0000000602     0.999994    0.00005033
  404      -16.4450063959      -0.0000000602     0.999994    0.00005032
  405      -16.4450064561      -0.0000000602     0.999994    0.00005032
  406      -16.4450065163      -0.0000000602     0.999994    0.00005032
  407      -16.4450065765      -0.0000000602     0.999994    0.00005032
  408      -16.4450066367      -0.0000000602     0.999994    0.00005032
  409      -16.4450066969      -0.0000000602     0.999994    0.00005032
  410      -16.4450067571      -0.0000000602     0.999994    0.00005032
  411      -16.4450068174      -0.0000000602     0.999994    0.00005032
  412      -16.4450068776      -0.0000000603     0.999994    0.00005033
  413      -16.4450069379      -0.0000000603     0.999994    0.00005033
  414      -16.4450069982      -0.0000000603     0.999994    0.00005034
  415      -16.4450070586      -0.0000000603     0.999994    0.00005035
  416      -16.4450071190      -0.0000000604     0.999994    0.00005036
  417      -16.4450071794      -0.0000000604     0.999994    0.00005037
  418      -16.4450072398      -0.0000000605     0.999994    0.00005038
  419      -16.4450073003      -0.0000000605     0.999994    0.00005039
  420      -16.4450073609      -0.0000000605     0.999994    0.00005040
  421      -16.4450074214      -0.0000000606     0.999994    0.00005042
  422      -16.4450074821      -0.0000000606     0.999994    0.00005043
  423      -16.4450075428      -0.0000000607     0.999994    0.00005045
  424      -16.4450076035      -0.0000000607     0.999994    0.00005047
  425      -16.4450076643      -0.0000000608     0.999994    0.00005049
  426      -16.4450077252      -0.0000000609     0.999994    0.00005051
  427      -16.4450077861      -0.0000000609     0.999994    0.00005053
  428      -16.4450078471      -0.0000000610     0.999994    0.00005056
  429      -16.4450079081      -0.0000000611     0.999994    0.00005058
  430      -16.4450079693      -0.0000000611     0.999994    0.00005061
  431      -16.4450080305      -0.0000000612     0.999994    0.00005063
  432      -16.4450080918      -0.0000000613     0.999994    0.00005066
  433      -16.4450081531      -0.0000000614     0.999994    0.00005069
  434      -16.4450082146      -0.0000000615     0.999994    0.00005072
  435      -16.4450082761      -0.0000000615     0.999994    0.00005075
  436      -16.4450083378      -0.0000000616     0.999994    0.00005079
  437      -16.4450083995      -0.0000000617     0.999994    0.00005082
  438      -16.4450084613      -0.0000000618     0.999994    0.00005085
  439      -16.4450085233      -0.0000000619     0.999994    0.00005089
  440      -16.4450085853      -0.0000000620     0.999994    0.00005093
  441      -16.4450086474      -0.0000000621     0.999994    0.00005097
  442      -16.4450087097      -0.0000000623     0.999994    0.00005101
  443      -16.4450087721      -0.0000000624     0.999994    0.00005105
  444      -16.4450088346      -0.0000000625     0.999994    0.00005109
  445      -16.4450088972      -0.0000000626     0.999994    0.00005114
  446      -16.4450089599      -0.0000000627     0.999994    0.00005118
  447      -16.4450090228      -0.0000000629     0.999994    0.00005123
  448      -16.4450090857      -0.0000000630     0.999994    0.00005128
  449      -16.4450091489      -0.0000000631     0.999994    0.00005133
  450      -16.4450092121      -0.0000000633     0.999994    0.00005138
  451      -16.4450092755      -0.0000000634     0.999994    0.00005143
  452      -16.4450093391      -0.0000000635     0.999994    0.00005148
  453      -16.4450094028      -0.0000000637     0.999994    0.00005154
  454      -16.4450094666      -0.0000000638     0.999994    0.00005159
  455      -16.4450095306      -0.0000000640     0.999994    0.00005165
  456      -16.4450095948      -0.0000000642     0.999994    0.00005171
  457      -16.4450096591      -0.0000000643     0.999994    0.00005177
  458      -16.4450097236      -0.0000000645     0.999994    0.00005183
  459      -16.4450097883      -0.0000000647     0.999994    0.00005189
  460      -16.4450098531      -0.0000000648     0.999994    0.00005195
  461      -16.4450099181      -0.0000000650     0.999994    0.00005202
  462      -16.4450099833      -0.0000000652     0.999994    0.00005208
  463      -16.4450100487      -0.0000000654     0.999994    0.00005215
  464      -16.4450101143      -0.0000000656     0.999994    0.00005222
  465      -16.4450101800      -0.0000000658     0.999995    0.00005229
  466      -16.4450102460      -0.0000000660     0.999995    0.00005236
  467      -16.4450103121      -0.0000000662     0.999995    0.00005243
  468      -16.4450103785      -0.0000000664     0.999995    0.00005251
  469      -16.4450104451      -0.0000000666     0.999995    0.00005259
  470      -16.4450105118      -0.0000000668     0.999995    0.00005266
  471      -16.4450105788      -0.0000000670     0.999995    0.00005274
  472      -16.4450106461      -0.0000000672     0.999995    0.00005282
  473      -16.4450107135      -0.0000000674     0.999995    0.00005290
  474      -16.4450107812      -0.0000000677     0.999995    0.00005299
  475      -16.4450108491      -0.0000000679     0.999995    0.00005307
  476      -16.4450109172      -0.0000000681     0.999995    0.00005316
  477      -16.4450109856      -0.0000000684     0.999995    0.00005324
  478      -16.4450110543      -0.0000000686     0.999995    0.00005333
  479      -16.4450111231      -0.0000000689     0.999995    0.00005342
  480      -16.4450111923      -0.0000000691     0.999995    0.00005352
  481      -16.4450112617      -0.0000000694     0.999995    0.00005361
  482      -16.4450113314      -0.0000000697     0.999995    0.00005370
  483      -16.4450114013      -0.0000000699     0.999995    0.00005380
  484      -16.4450114715      -0.0000000702     0.999995    0.00005390
  485      -16.4450115420      -0.0000000705     0.999995    0.00005400
  486      -16.4450116128      -0.0000000708     0.999995    0.00005410
  487      -16.4450116838      -0.0000000711     0.999995    0.00005420
  488      -16.4450117552      -0.0000000714     0.999995    0.00005431
  489      -16.4450118268      -0.0000000717     0.999995    0.00005441
  490      -16.4450118988      -0.0000000720     0.999995    0.00005452
  491      -16.4450119711      -0.0000000723     0.999995    0.00005463
  492      -16.4450120437      -0.0000000726     0.999995    0.00005474
  493      -16.4450121166      -0.0000000729     0.999995    0.00005485
  494      -16.4450121898      -0.0000000732     0.999995    0.00005496
  495      -16.4450122634      -0.0000000736     0.999995    0.00005508
  496      -16.4450123373      -0.0000000739     0.999995    0.00005520
  497      -16.4450124115      -0.0000000742     0.999995    0.00005532
  498      -16.4450124861      -0.0000000746     0.999995    0.00005544
  499      -16.4450125610      -0.0000000749     0.999995    0.00005556
  500      -16.4450126363      -0.0000000753     0.999995    0.00005568
  501      -16.4450127120      -0.0000000757     0.999995    0.00005581
  502      -16.4450127880      -0.0000000760     0.999995    0.00005594
  503      -16.4450128644      -0.0000000764     0.999995    0.00005607
  504      -16.4450129412      -0.0000000768     0.999995    0.00005620
  505      -16.4450130184      -0.0000000772     0.999995    0.00005633
  506      -16.4450130960      -0.0000000776     0.999995    0.00005647
  507      -16.4450131740      -0.0000000780     0.999995    0.00005660
  508      -16.4450132523      -0.0000000784     0.999995    0.00005674
  509      -16.4450133311      -0.0000000788     0.999995    0.00005688
  510      -16.4450134104      -0.0000000792     0.999995    0.00005702
  511      -16.4450134900      -0.0000000797     0.999995    0.00005717
  512      -16.4450135701      -0.0000000801     0.999995    0.00005731
  513      -16.4450136506      -0.0000000805     0.999995    0.00005746
  514      -16.4450137316      -0.0000000810     0.999995    0.00005761
  515      -16.4450138130      -0.0000000814     0.999995    0.00005776
  516      -16.4450138949      -0.0000000819     0.999995    0.00005792
  517      -16.4450139773      -0.0000000824     0.999995    0.00005807
  518      -16.4450140601      -0.0000000828     0.999995    0.00005823
  519      -16.4450141435      -0.0000000833     0.999995    0.00005839
  520      -16.4450142273      -0.0000000838     0.999995    0.00005855
  521      -16.4450143116      -0.0000000843     0.999995    0.00005872
  522      -16.4450143965      -0.0000000848     0.999995    0.00005888
  523      -16.4450144818      -0.0000000854     0.999995    0.00005905
  524      -16.4450145677      -0.0000000859     0.999995    0.00005922
  525      -16.4450146541      -0.0000000864     0.999995    0.00005939
  526      -16.4450147410      -0.0000000870     0.999995    0.00005957
  527      -16.4450148285      -0.0000000875     0.999995    0.00005974
  528      -16.4450149166      -0.0000000881     0.999995    0.00005992
  529      -16.4450150052      -0.0000000886     0.999995    0.00006010
  530      -16.4450150945      -0.0000000892     0.999995    0.00006029
  531      -16.4450151842      -0.0000000898     0.999995    0.00006047
  532      -16.4450152746      -0.0000000904     0.999995    0.00006066
  533      -16.4450153656      -0.0000000910     0.999995    0.00006085
  534      -16.4450154572      -0.0000000916     0.999995    0.00006104
  535      -16.4450155495      -0.0000000922     0.999995    0.00006124
  536      -16.4450156423      -0.0000000929     0.999995    0.00006144
  537      -16.4450157359      -0.0000000935     0.999995    0.00006164
  538      -16.4450158300      -0.0000000942     0.999996    0.00006184
  539      -16.4450159249      -0.0000000948     0.999996    0.00006204
  540      -16.4450160204      -0.0000000955     0.999996    0.00006225
  541      -16.4450161166      -0.0000000962     0.999996    0.00006246
  542      -16.4450162135      -0.0000000969     0.999996    0.00006267
  543      -16.4450163111      -0.0000000976     0.999996    0.00006289
  544      -16.4450164094      -0.0000000983     0.999996    0.00006310
  545      -16.4450165085      -0.0000000991     0.999996    0.00006332
  546      -16.4450166082      -0.0000000998     0.999996    0.00006355
  547      -16.4450167088      -0.0000001006     0.999996    0.00006377
  548      -16.4450168101      -0.0000001013     0.999996    0.00006400
  549      -16.4450169122      -0.0000001021     0.999996    0.00006423
  550      -16.4450170151      -0.0000001029     0.999996    0.00006447
  551      -16.4450171188      -0.0000001037     0.999996    0.00006470
  552      -16.4450172233      -0.0000001045     0.999996    0.00006494
  553      -16.4450173287      -0.0000001053     0.999996    0.00006518
  554      -16.4450174349      -0.0000001062     0.999996    0.00006543
  555      -16.4450175419      -0.0000001071     0.999996    0.00006568
  556      -16.4450176499      -0.0000001079     0.999996    0.00006593
  557      -16.4450177587      -0.0000001088     0.999996    0.00006618
  558      -16.4450178684      -0.0000001097     0.999996    0.00006644
  559      -16.4450179790      -0.0000001106     0.999996    0.00006670
  560      -16.4450180906      -0.0000001116     0.999996    0.00006696
  561      -16.4450182031      -0.0000001125     0.999996    0.00006723
  562      -16.4450183166      -0.0000001135     0.999996    0.00006750
  563      -16.4450184310      -0.0000001145     0.999996    0.00006777
  564      -16.4450185465      -0.0000001154     0.999996    0.00006804
  565      -16.4450186629      -0.0000001165     0.999996    0.00006832
  566      -16.4450187804      -0.0000001175     0.999996    0.00006861
  567      -16.4450188990      -0.0000001185     0.999996    0.00006889
  568      -16.4450190186      -0.0000001196     0.999996    0.00006918
  569      -16.4450191392      -0.0000001207     0.999996    0.00006947
  570      -16.4450192610      -0.0000001218     0.999996    0.00006977
  571      -16.4450193839      -0.0000001229     0.999996    0.00007007
  572      -16.4450195080      -0.0000001240     0.999996    0.00007037
  573      -16.4450196331      -0.0000001252     0.999996    0.00007068
  574      -16.4450197595      -0.0000001264     0.999996    0.00007099
  575      -16.4450198871      -0.0000001276     0.999996    0.00007130
  576      -16.4450200159      -0.0000001288     0.999996    0.00007162
  577      -16.4450201459      -0.0000001300     0.999996    0.00007194
  578      -16.4450202772      -0.0000001313     0.999996    0.00007227
  579      -16.4450204097      -0.0000001326     0.999996    0.00007260
  580      -16.4450205436      -0.0000001339     0.999996    0.00007293
  581      -16.4450206788      -0.0000001352     0.999996    0.00007327
  582      -16.4450208153      -0.0000001365     0.999996    0.00007361
  583      -16.4450209532      -0.0000001379     0.999996    0.00007395
  584      -16.4450210925      -0.0000001393     0.999996    0.00007430
  585      -16.4450212333      -0.0000001407     0.999996    0.00007466
  586      -16.4450213754      -0.0000001422     0.999996    0.00007502
  587      -16.4450215191      -0.0000001436     0.999996    0.00007538
  588      -16.4450216642      -0.0000001451     0.999996    0.00007574
  589      -16.4450218109      -0.0000001467     0.999996    0.00007612
  590      -16.4450219591      -0.0000001482     0.999996    0.00007649
  591      -16.4450221089      -0.0000001498     0.999996    0.00007687
  592      -16.4450222603      -0.0000001514     0.999996    0.00007726
  593      -16.4450224134      -0.0000001531     0.999996    0.00007764
  594      -16.4450225681      -0.0000001547     0.999996    0.00007804
  595      -16.4450227245      -0.0000001564     0.999996    0.00007844
  596      -16.4450228827      -0.0000001582     0.999996    0.00007884
  597      -16.4450230426      -0.0000001599     0.999996    0.00007925
  598      -16.4450232043      -0.0000001617     0.999996    0.00007966
  599      -16.4450233679      -0.0000001635     0.999996    0.00008008
  600      -16.4450235332      -0.0000001654     0.999996    0.00008050
  601      -16.4450237005      -0.0000001673     0.999996    0.00008093
  602      -16.4450238698      -0.0000001692     0.999996    0.00008137
  603      -16.4450240409      -0.0000001712     0.999996    0.00008181
  604      -16.4450242141      -0.0000001732     0.999997    0.00008225
  605      -16.4450243894      -0.0000001752     0.999997    0.00008270
  606      -16.4450245667      -0.0000001773     0.999997    0.00008316
  607      -16.4450247461      -0.0000001794     0.999997    0.00008362
  608      -16.4450249277      -0.0000001816     0.999997    0.00008409
  609      -16.4450251115      -0.0000001838     0.999997    0.00008456
  610      -16.4450252976      -0.0000001861     0.999997    0.00008504
  611      -16.4450254859      -0.0000001883     0.999997    0.00008552
  612      -16.4450256766      -0.0000001907     0.999997    0.00008601
  613      -16.4450258697      -0.0000001931     0.999997    0.00008651
  614      -16.4450260651      -0.0000001955     0.999997    0.00008701
  615      -16.4450262631      -0.0000001980     0.999997    0.00008752
  616      -16.4450264636      -0.0000002005     0.999997    0.00008804
  617      -16.4450266666      -0.0000002030     0.999997    0.00008856
  618      -16.4450268723      -0.0000002057     0.999997    0.00008909
  619      -16.4450270806      -0.0000002083     0.999997    0.00008962
  620      -16.4450272917      -0.0000002111     0.999997    0.00009016
  621      -16.4450275056      -0.0000002139     0.999997    0.00009071
  622      -16.4450277223      -0.0000002167     0.999997    0.00009127
  623      -16.4450279419      -0.0000002196     0.999997    0.00009183
  624      -16.4450281645      -0.0000002226     0.999997    0.00009240
  625      -16.4450283900      -0.0000002256     0.999997    0.00009298
  626      -16.4450286187      -0.0000002287     0.999997    0.00009356
  627      -16.4450288505      -0.0000002318     0.999997    0.00009416
  628      -16.4450290855      -0.0000002350     0.999997    0.00009476
  629      -16.4450293238      -0.0000002383     0.999997    0.00009536
  630      -16.4450295655      -0.0000002416     0.999997    0.00009598
  631      -16.4450298105      -0.0000002451     0.999997    0.00009660
  632      -16.4450300591      -0.0000002485     0.999997    0.00009723
  633      -16.4450303112      -0.0000002521     0.999997    0.00009787
  634      -16.4450305669      -0.0000002558     0.999997    0.00009852
  635      -16.4450308264      -0.0000002595     0.999997    0.00009918
  636      -16.4450310897      -0.0000002633     0.999997    0.00009984
  637      -16.4450313568      -0.0000002671     0.999997    0.00010051
  638      -16.4450316279      -0.0000002711     0.999997    0.00010120
  639      -16.4450319031      -0.0000002752     0.999997    0.00010189
  640      -16.4450321824      -0.0000002793     0.999997    0.00010259
  641      -16.4450324659      -0.0000002835     0.999997    0.00010330
  642      -16.4450327538      -0.0000002879     0.999997    0.00010402
  643      -16.4450330460      -0.0000002923     0.999997    0.00010474
  644      -16.4450333428      -0.0000002968     0.999997    0.00010548
  645      -16.4450336442      -0.0000003014     0.999997    0.00010623
  646      -16.4450339504      -0.0000003061     0.999997    0.00010699
  647      -16.4450342613      -0.0000003110     0.999997    0.00010776
  648      -16.4450345772      -0.0000003159     0.999997    0.00010853
  649      -16.4450348982      -0.0000003210     0.999997    0.00010932
  650      -16.4450352243      -0.0000003261     0.999997    0.00011012
  651      -16.4450355557      -0.0000003314     0.999997    0.00011093
  652      -16.4450358926      -0.0000003368     0.999997    0.00011175
  653      -16.4450362349      -0.0000003424     0.999997    0.00011259
  654      -16.4450365830      -0.0000003480     0.999997    0.00011343
  655      -16.4450369368      -0.0000003538     0.999997    0.00011429
  656      -16.4450372966      -0.0000003598     0.999997    0.00011515
  657      -16.4450376624      -0.0000003658     0.999997    0.00011603
  658      -16.4450380345      -0.0000003721     0.999997    0.00011692
  659      -16.4450384129      -0.0000003784     0.999997    0.00011782
  660      -16.4450387979      -0.0000003850     0.999998    0.00011874
  661      -16.4450391896      -0.0000003917     0.999998    0.00011967
  662      -16.4450395881      -0.0000003985     0.999998    0.00012061
  663      -16.4450399936      -0.0000004055     0.999998    0.00012156
  664      -16.4450404063      -0.0000004127     0.999998    0.00012253
  665      -16.4450408264      -0.0000004201     0.999998    0.00012351
  666      -16.4450412540      -0.0000004276     0.999998    0.00012450
  667      -16.4450416894      -0.0000004354     0.999998    0.00012551
  668      -16.4450421326      -0.0000004433     0.999998    0.00012653
  669      -16.4450425841      -0.0000004514     0.999998    0.00012757
  670      -16.4450430438      -0.0000004598     0.999998    0.00012862
  671      -16.4450435121      -0.0000004683     0.999998    0.00012969
  672      -16.4450439892      -0.0000004771     0.999998    0.00013077
  673      -16.4450444753      -0.0000004861     0.999998    0.00013187
  674      -16.4450449705      -0.0000004953     0.999998    0.00013298
  675      -16.4450454753      -0.0000005048     0.999998    0.00013410
  676      -16.4450459898      -0.0000005145     0.999998    0.00013525
  677      -16.4450465142      -0.0000005244     0.999998    0.00013641
  678      -16.4450470489      -0.0000005347     0.999998    0.00013759
  679      -16.4450475940      -0.0000005452     0.999998    0.00013878
  680      -16.4450481500      -0.0000005559     0.999998    0.00013999
  681      -16.4450487170      -0.0000005670     0.999998    0.00014122
  682      -16.4450492954      -0.0000005784     0.999998    0.00014246
  683      -16.4450498854      -0.0000005901     0.999998    0.00014373
  684      -16.4450504875      -0.0000006021     0.999998    0.00014501
  685      -16.4450511018      -0.0000006144     0.999998    0.00014631
  686      -16.4450517289      -0.0000006270     0.999998    0.00014763
  687      -16.4450523689      -0.0000006400     0.999998    0.00014896
  688      -16.4450530223      -0.0000006534     0.999998    0.00015032
  689      -16.4450536895      -0.0000006672     0.999998    0.00015170
  690      -16.4450543708      -0.0000006813     0.999998    0.00015310
  691      -16.4450550666      -0.0000006958     0.999998    0.00015451
  692      -16.4450557774      -0.0000007108     0.999998    0.00015595
  693      -16.4450565035      -0.0000007261     0.999998    0.00015741
  694      -16.4450572455      -0.0000007419     0.999998    0.00015889
  695      -16.4450580037      -0.0000007582     0.999998    0.00016039
  696      -16.4450587786      -0.0000007749     0.999998    0.00016192
  697      -16.4450595708      -0.0000007922     0.999998    0.00016346
  698      -16.4450603807      -0.0000008099     0.999998    0.00016503
  699      -16.4450612089      -0.0000008281     0.999998    0.00016662
  700      -16.4450620558      -0.0000008469     0.999998    0.00016823
  701      -16.4450629221      -0.0000008663     0.999998    0.00016987
  702      -16.4450638083      -0.0000008862     0.999998    0.00017153
  703      -16.4450647150      -0.0000009067     0.999998    0.00017322
  704      -16.4450656429      -0.0000009279     0.999998    0.00017493
  705      -16.4450665926      -0.0000009497     0.999998    0.00017666
  706      -16.4450675647      -0.0000009721     0.999998    0.00017842
  707      -16.4450685600      -0.0000009953     0.999998    0.00018021
  708      -16.4450695791      -0.0000010191     0.999998    0.00018202
  709      -16.4450706228      -0.0000010437     0.999999    0.00018386
  710      -16.4450716919      -0.0000010691     0.999999    0.00018572
  711      -16.4450727871      -0.0000010952     0.999999    0.00018761
  712      -16.4450739093      -0.0000011222     0.999999    0.00018953
  713      -16.4450750593      -0.0000011500     0.999999    0.00019147
  714      -16.4450762381      -0.0000011787     0.999999    0.00019345
  715      -16.4450774465      -0.0000012084     0.999999    0.00019545
  716      -16.4450786854      -0.0000012390     0.999999    0.00019748
  717      -16.4450799560      -0.0000012705     0.999999    0.00019953
  718      -16.4450812591      -0.0000013031     0.999999    0.00020162
  719      -16.4450825959      -0.0000013368     0.999999    0.00020373
  720      -16.4450839674      -0.0000013715     0.999999    0.00020588
  721      -16.4450853749      -0.0000014074     0.999999    0.00020805
  722      -16.4450868194      -0.0000014445     0.999999    0.00021025
  723      -16.4450883023      -0.0000014829     0.999999    0.00021248
  724      -16.4450898248      -0.0000015225     0.999999    0.00021474
  725      -16.4450913881      -0.0000015634     0.999999    0.00021704
  726      -16.4450929939      -0.0000016057     0.999999    0.00021936
  727      -16.4450946433      -0.0000016494     0.999999    0.00022171
  728      -16.4450963380      -0.0000016947     0.999999    0.00022409
  729      -16.4450980794      -0.0000017414     0.999999    0.00022650
  730      -16.4450998693      -0.0000017898     0.999999    0.00022894
  731      -16.4451017091      -0.0000018399     0.999999    0.00023142
  732      -16.4451036008      -0.0000018916     0.999999    0.00023392
  733      -16.4451055460      -0.0000019452     0.999999    0.00023645
  734      -16.4451075467      -0.0000020007     0.999999    0.00023901
  735      -16.4451096047      -0.0000020580     0.999999    0.00024195
  736      -16.4451117222      -0.0000021175     0.999999    0.00024558
  737      -16.4451139011      -0.0000021789     0.999999    0.00024928
  738      -16.4451161437      -0.0000022426     0.999999    0.00025307
  739      -16.4451184523      -0.0000023086     0.999999    0.00025692
  740      -16.4451208292      -0.0000023769     0.999999    0.00026086
  741      -16.4451232767      -0.0000024476     0.999999    0.00026488
  742      -16.4451257976      -0.0000025209     0.999999    0.00026897
  743      -16.4451283944      -0.0000025968     0.999999    0.00027315
  744      -16.4451310698      -0.0000026754     0.999999    0.00027742
  745      -16.4451338268      -0.0000027569     0.999999    0.00028177
  746      -16.4451366682      -0.0000028414     0.999999    0.00028621
  747      -16.4451395971      -0.0000029289     0.999999    0.00029073
  748      -16.4451426167      -0.0000030197     0.999999    0.00029535
  749      -16.4451457304      -0.0000031137     0.999999    0.00030005
  750      -16.4451489416      -0.0000032112     0.999999    0.00030486
  751      -16.4451522539      -0.0000033122     0.999999    0.00030975
  752      -16.4451556709      -0.0000034170     0.999999    0.00031474
  753      -16.4451591965      -0.0000035256     0.999999    0.00031983
  754      -16.4451628347      -0.0000036382     0.999999    0.00032501
  755      -16.4451665897      -0.0000037550     0.999999    0.00033029
  756      -16.4451704657      -0.0000038760     0.999999    0.00033567
  757      -16.4451744672      -0.0000040015     0.999999    0.00034115
  758      -16.4451785988      -0.0000041316     0.999999    0.00034674
  759      -16.4451828653      -0.0000042665     1.000000    0.00035242
  760      -16.4451872716      -0.0000044063     1.000000    0.00035821
  761      -16.4451918228      -0.0000045512     1.000000    0.00036409
  762      -16.4451965243      -0.0000047015     1.000000    0.00037008
  763      -16.4452013815      -0.0000048572     1.000000    0.00037617
  764      -16.4452064000      -0.0000050185     1.000000    0.00038237
  765      -16.4452115857      -0.0000051857     1.000000    0.00038866
  766      -16.4452169445      -0.0000053589     1.000000    0.00039505
  767      -16.4452224828      -0.0000055382     1.000000    0.00040154
  768      -16.4452282067      -0.0000057240     1.000000    0.00040813
  769      -16.4452341230      -0.0000059163     1.000000    0.00041481
  770      -16.4452402383      -0.0000061153     1.000000    0.00042158
  771      -16.4452465596      -0.0000063213     1.000000    0.00042845
  772      -16.4452530939      -0.0000065343     1.000000    0.00043540
  773      -16.4452598484      -0.0000067546     1.000000    0.00044243
  774      -16.4452668307      -0.0000069822     1.000000    0.00044954
  775      -16.4452740481      -0.0000072174     1.000000    0.00045672
  776      -16.4452815084      -0.0000074603     1.000000    0.00046397
  777      -16.4452892195      -0.0000077110     1.000000    0.00047128
  778      -16.4452971891      -0.0000079696     1.000000    0.00047864
  779      -16.4453054253      -0.0000082362     1.000000    0.00048605
  780      -16.4453139362      -0.0000085109     1.000000    0.00049350
  781      -16.4453227297      -0.0000087936     1.000000    0.00050097
  782      -16.4453318142      -0.0000090844     1.000000    0.00050847
  783      -16.4453411975      -0.0000093833     1.000000    0.00051597
  784      -16.4453508877      -0.0000096902     1.000000    0.00052346
  785      -16.4453608928      -0.0000100051     1.000000    0.00053094
  786      -16.4453712204      -0.0000103277     1.000000    0.00053838
  787      -16.4453818783      -0.0000106579     1.000000    0.00054577
  788      -16.4453928737      -0.0000109954     1.000000    0.00055554
  789      -16.4454042137      -0.0000113400     1.000000    0.00056844
  790      -16.4454159048      -0.0000116912     1.000000    0.00058151
  791      -16.4454279535      -0.0000120486     1.000000    0.00059473
  792      -16.4454403652      -0.0000124118     1.000000    0.00060809
  793      -16.4454531453      -0.0000127801     1.000000    0.00062156
  794      -16.4454662981      -0.0000131528     1.000000    0.00063513
  795      -16.4454798273      -0.0000135292     1.000000    0.00064876
  796      -16.4454937359      -0.0000139085     1.000000    0.00066245
  797      -16.4455080256      -0.0000142897     1.000000    0.00067615
  798      -16.4455226974      -0.0000146718     1.000000    0.00068984
  799      -16.4455377509      -0.0000150536     1.000000    0.00070349
  800      -16.4455531847      -0.0000154338     1.000000    0.00071705
  801      -16.4455689959      -0.0000158112     1.000000    0.00073051
  802      -16.4455851802      -0.0000161843     1.000000    0.00074380
  803      -16.4456017318      -0.0000165516     1.000000    0.00075690
  804      -16.4456186432      -0.0000169114     1.000000    0.00076976
  805      -16.4456359052      -0.0000172620     1.000000    0.00078234
  806      -16.4456535069      -0.0000176017     1.000000    0.00079458
  807      -16.4456714354      -0.0000179286     1.000000    0.00080643
  808      -16.4456896762      -0.0000182407     1.000000    0.00081785
  809      -16.4457082124      -0.0000185363     1.000000    0.00082878
  810      -16.4457270256      -0.0000188132     1.000000    0.00083918
  811      -16.4457460952      -0.0000190696     1.000000    0.00084898
  812      -16.4457653987      -0.0000193035     1.000000    0.00085814
  813      -16.4457849117      -0.0000195130     1.000000    0.00086661
  814      -16.4458046080      -0.0000196963     1.000000    0.00087433
  815      -16.4458244596      -0.0000198516     1.000000    0.00088125
  816      -16.4458444371      -0.0000199774     1.000000    0.00088734
  817      -16.4458645092      -0.0000200722     1.000000    0.00089254
  818      -16.4458846438      -0.0000201346     1.000000    0.00089681
  819      -16.4459048073      -0.0000201635     1.000000    0.00090012
  820      -16.4459249654      -0.0000201581     1.000000    0.00090243
  821      -16.4459450831      -0.0000201177     1.000000    0.00090373
  822      -16.4459651249      -0.0000200418     1.000000    0.00090398
  823      -16.4459850552      -0.0000199303     1.000000    0.00090317
  824      -16.4460048385      -0.0000197833     1.000000    0.00090129
  825      -16.4460244398      -0.0000196013     1.000000    0.00089833
  826      -16.4460438246      -0.0000193848     1.000000    0.00089431
  827      -16.4460629596      -0.0000191349     1.000000    0.00088922
  828      -16.4460818123      -0.0000188528     1.000000    0.00088309
  829      -16.4461003521      -0.0000185398     1.000000    0.00087593
  830      -16.4461185498      -0.0000181977     1.000000    0.00086778
  831      -16.4461363783      -0.0000178285     1.000000    0.00085867
  832      -16.4461538124      -0.0000174341     1.000000    0.00084864
  833      -16.4461708292      -0.0000170168     1.000000    0.00083773
  834      -16.4461874082      -0.0000165790     1.000000    0.00082599
  835      -16.4462035314      -0.0000161232     1.000000    0.00081348
  836      -16.4462191832      -0.0000156518     1.000000    0.00080025
  837      -16.4462343505      -0.0000151674     1.000000    0.00078636
  838      -16.4462490230      -0.0000146725     1.000000    0.00077187
  839      -16.4462631927      -0.0000141697     1.000000    0.00075685
  840      -16.4462768541      -0.0000136614     1.000000    0.00074136
  841      -16.4462900041      -0.0000131499     1.000000    0.00072545
  842      -16.4463026417      -0.0000126377     1.000000    0.00070921
  843      -16.4463147684      -0.0000121267     1.000000    0.00069267
  844      -16.4463263873      -0.0000116190     1.000000    0.00067592
  845      -16.4463375037      -0.0000111164     1.000000    0.00065899
  846      -16.4463481244      -0.0000106207     1.000000    0.00064196
  847      -16.4463582577      -0.0000101333     1.000000    0.00062487
  848      -16.4463679134      -0.0000096557     1.000000    0.00060777
  849      -16.4463771025      -0.0000091890     1.000000    0.00059071
  850      -16.4463858368      -0.0000087343     1.000000    0.00057373
  851      -16.4463941292      -0.0000082925     1.000000    0.00055688
  852      -16.4464019934      -0.0000078642     1.000000    0.00054018
  853      -16.4464094434      -0.0000074500     1.000000    0.00052368
  854      -16.4464164939      -0.0000070504     1.000000    0.00050740
  855      -16.4464231596      -0.0000066658     1.000000    0.00049137
  856      -16.4464294558      -0.0000062962     1.000000    0.00047561
  857      -16.4464353975      -0.0000059417     1.000000    0.00046014
  858      -16.4464410000      -0.0000056025     1.000000    0.00044499
  859      -16.4464462783      -0.0000052783     1.000000    0.00043016
  860      -16.4464512474      -0.0000049691     1.000000    0.00041567
  861      -16.4464559218      -0.0000046745     1.000000    0.00040153
  862      -16.4464603161      -0.0000043943     1.000000    0.00038774
  863      -16.4464644442      -0.0000041281     1.000000    0.00037431
  864      -16.4464683198      -0.0000038756     1.000000    0.00036124
  865      -16.4464719562      -0.0000036364     1.000000    0.00034854
  866      -16.4464753661      -0.0000034099     1.000000    0.00033621
  867      -16.4464785620      -0.0000031959     1.000000    0.00032424
  868      -16.4464815557      -0.0000029937     1.000000    0.00031263
  869      -16.4464843588      -0.0000028030     1.000000    0.00030138
  870      -16.4464869820      -0.0000026232     1.000000    0.00029049
  871      -16.4464894359      -0.0000024539     1.000000    0.00027995
  872      -16.4464917304      -0.0000022945     1.000000    0.00026975
  873      -16.4464938751      -0.0000021447     1.000000    0.00025989
  874      -16.4464958790      -0.0000020039     1.000000    0.00025036
  875      -16.4464977507      -0.0000018717     1.000000    0.00024115
  876      -16.4464994983      -0.0000017476     1.000000    0.00023227
  877      -16.4465011295      -0.0000016312     1.000000    0.00022368
  878      -16.4465026516      -0.0000015221     1.000000    0.00021540
  879      -16.4465040716      -0.0000014200     1.000000    0.00020741
  880      -16.4465053958      -0.0000013243     1.000000    0.00019971
  881      -16.4465066306      -0.0000012347     1.000000    0.00019228
  882      -16.4465077815      -0.0000011510     1.000000    0.00018512
  883      -16.4465088542      -0.0000010726     1.000000    0.00017822
  884      -16.4465098536      -0.0000009994     1.000000    0.00017157
  885      -16.4465107846      -0.0000009310     1.000000    0.00016516
  886      -16.4465116517      -0.0000008671     1.000000    0.00015899
  887      -16.4465124591      -0.0000008074     1.000000    0.00015304
  888      -16.4465132109      -0.0000007518     1.000000    0.00014732
  889      -16.4465139107      -0.0000006998     1.000000    0.00014180
  890      -16.4465145620      -0.0000006513     1.000000    0.00013649
  891      -16.4465151682      -0.0000006061     1.000000    0.00013138
  892      -16.4465157321      -0.0000005640     1.000000    0.00012646
  893      -16.4465162569      -0.0000005247     1.000000    0.00012173
  894      -16.4465167449      -0.0000004881     1.000000    0.00011717
  895      -16.4465171989      -0.0000004540     1.000000    0.00011278
  896      -16.4465176211      -0.0000004222     1.000000    0.00010855
  897      -16.4465180137      -0.0000003926     1.000000    0.00010458
  898      -16.4465183788      -0.0000003651     1.000000    0.00010085
  899      -16.4465187182      -0.0000003394     1.000000    0.00009724
  900      -16.4465190337      -0.0000003155     1.000000    0.00009376
  901      -16.4465193270      -0.0000002933     1.000000    0.00009040
  902      -16.4465195996      -0.0000002726     1.000000    0.00008715
  903      -16.4465198530      -0.0000002534     1.000000    0.00008402
  904      -16.4465200884      -0.0000002355     1.000000    0.00008100
  905      -16.4465203073      -0.0000002188     1.000000    0.00007808
  906      -16.4465205106      -0.0000002033     1.000000    0.00007527
  907      -16.4465206995      -0.0000001889     1.000000    0.00007255
  908      -16.4465208750      -0.0000001755     1.000000    0.00006993
  909      -16.4465210380      -0.0000001631     1.000000    0.00006740
  910      -16.4465211895      -0.0000001515     1.000000    0.00006503
  911      -16.4465213302      -0.0000001407     1.000000    0.00006278
  912      -16.4465214609      -0.0000001307     1.000000    0.00006061
  913      -16.4465215823      -0.0000001214     1.000000    0.00005851
  914      -16.4465216950      -0.0000001128     1.000000    0.00005647
  915      -16.4465217998      -0.0000001047     1.000000    0.00005450
  916      -16.4465218970      -0.0000000973     1.000000    0.00005260
  917      -16.4465219873      -0.0000000903     1.000000    0.00005076
  918      -16.4465220712      -0.0000000839     1.000000    0.00004898
  919      -16.4465221491      -0.0000000779     1.000000    0.00004725
  920      -16.4465222214      -0.0000000723     1.000000    0.00004559
  921      -16.4465222885      -0.0000000671     1.000000    0.00004398
  922      -16.4465223509      -0.0000000623     1.000000    0.00004243
  923      -16.4465224088      -0.0000000579     1.000000    0.00004093
  924      -16.4465224625      -0.0000000537     1.000000    0.00003948
  925      -16.4465225124      -0.0000000499     1.000000    0.00003807
  926      -16.4465225587      -0.0000000463     1.000000    0.00003672
  927      -16.4465226018      -0.0000000430     1.000000    0.00003541
  928      -16.4465226417      -0.0000000399     1.000000    0.00003415
  929      -16.4465226787      -0.0000000371     1.000000    0.00003293
  930      -16.4465227132      -0.0000000344     1.000000    0.00003176
  931      -16.4465227451      -0.0000000319     1.000000    0.00003062
  932      -16.4465227747      -0.0000000296     1.000000    0.00002952
  933      -16.4465228023      -0.0000000275     1.000000    0.00002847
  934      -16.4465228278      -0.0000000255     1.000000    0.00002744
  935      -16.4465228515      -0.0000000237     1.000000    0.00002646
  936      -16.4465228735      -0.0000000220     1.000000    0.00002551
  937      -16.4465228940      -0.0000000204     1.000000    0.00002459
  938      -16.4465229129      -0.0000000190     1.000000    0.00002370
  939      -16.4465229305      -0.0000000176     1.000000    0.00002285
  940      -16.4465229469      -0.0000000163     1.000000    0.00002203
  941      -16.4465229620      -0.0000000152     1.000000    0.00002123
  942      -16.4465229761      -0.0000000141     1.000000    0.00002046
  943      -16.4465229892      -0.0000000131     1.000000    0.00001972
  944      -16.4465230013      -0.0000000121     1.000000    0.00001901
  945      -16.4465230125      -0.0000000112     1.000000    0.00001832
  946      -16.4465230230      -0.0000000104     1.000000    0.00001766
  947      -16.4465230327      -0.0000000097     1.000000    0.00001702
  948      -16.4465230417      -0.0000000090     1.000000    0.00001640
  949      -16.4465230500      -0.0000000083     1.000000    0.00001581
  950      -16.4465230577      -0.0000000077     1.000000    0.00001523
  951      -16.4465230649      -0.0000000072     1.000000    0.00001468
  952      -16.4465230716      -0.0000000067     1.000000    0.00001415
  953      -16.4465230778      -0.0000000062     1.000000    0.00001363
  954      -16.4465230835      -0.0000000057     1.000000    0.00001314
  955      -16.4465230889      -0.0000000053     1.000000    0.00001266
  956      -16.4465230938      -0.0000000049     1.000000    0.00001220
  957      -16.4465230984      -0.0000000046     1.000000    0.00001175
  958      -16.4465231027      -0.0000000043     1.000000    0.00001133
  959      -16.4465231066      -0.0000000040     1.000000    0.00001091
  960      -16.4465231103      -0.0000000037     1.000000    0.00001052
  961      -16.4465231137      -0.0000000034     1.000000    0.00001013
  962      -16.4465231168      -0.0000000032     1.000000    0.00000976
  963      -16.4465231198      -0.0000000029     1.000000    0.00000941
  964      -16.4465231225      -0.0000000027     1.000000    0.00000906
  965      -16.4465231250      -0.0000000025     1.000000    0.00000873
  966      -16.4465231274      -0.0000000023     1.000000    0.00000841
  967      -16.4465231295      -0.0000000022     1.000000    0.00000811
  968      -16.4465231316      -0.0000000020     1.000000    0.00000781
  969      -16.4465231334      -0.0000000019     1.000000    0.00000753
  970      -16.4465231352      -0.0000000017     1.000000    0.00000725
  971      -16.4465231368      -0.0000000016     1.000000    0.00000699
  972      -16.4465231383      -0.0000000015     1.000000    0.00000673
  973      -16.4465231397      -0.0000000014     1.000000    0.00000648
  974      -16.4465231409      -0.0000000013     1.000000    0.00000625
  975      -16.4465231421      -0.0000000012     1.000000    0.00000602
  976      -16.4465231432      -0.0000000011     1.000000    0.00000580
  977      -16.4465231443      -0.0000000010     1.000000    0.00000559
  978      -16.4465231452      -0.0000000010     1.000000    0.00000538
  979      -16.4465231461      -0.0000000009     1.000000    0.00000518
  980      -16.4465231469      -0.0000000008     1.000000    0.00000499
  981      -16.4465231477      -0.0000000008     1.000000    0.00000481
  982      -16.4465231484      -0.0000000007     1.000000    0.00000464
  983      -16.4465231491      -0.0000000007     1.000000    0.00000447
  984      -16.4465231497      -0.0000000006     1.000000    0.00000430
  985      -16.4465231502      -0.0000000006     1.000000    0.00000414
  986      -16.4465231508      -0.0000000005     1.000000    0.00000399
  987      -16.4465231512      -0.0000000005     1.000000    0.00000385
  988      -16.4465231517      -0.0000000005     1.000000    0.00000370
  989      -16.4465231521      -0.0000000004     1.000000    0.00000357
  990      -16.4465231525      -0.0000000004     1.000000    0.00000344
  991      -16.4465231529      -0.0000000004     1.000000    0.00000331
  992      -16.4465231532      -0.0000000003     1.000000    0.00000319
  993      -16.4465231535      -0.0000000003     1.000000    0.00000307
  994      -16.4465231538      -0.0000000003     1.000000    0.00000296
  995      -16.4465231541      -0.0000000003     1.000000    0.00000285
  996      -16.4465231543      -0.0000000002     1.000000    0.00000275
  997      -16.4465231545      -0.0000000002     1.000000    0.00000265
  998      -16.4465231548      -0.0000000002     1.000000    0.00000255
  999      -16.4465231550      -0.0000000002     1.000000    0.00000246
 1000      -16.4465231551      -0.0000000002     1.000000    0.00000237

Total Energy:                      -16.4465231551 H         -447.5327 eV
Extrapolated to 0:                 -16.3908287743 H         -446.0171 eV

----------------------------------------------------------------------------------
 Solving CP-REKS equation for  1 state vector...
----------------------------------------------------------------------------------
  CG solver: Constructing Y initial guess
  CG solver: Iteration    1    eps =    0.029623162437
  CG solver: Iteration    2    eps =    0.005282286617
  CG solver: Iteration    3    eps =    0.003492570575
  CG solver: Iteration    4    eps =    0.002647555308
  CG solver: Iteration    5    eps =    0.002148022979
  CG solver: Iteration    6    eps =    0.000402494200
  CG solver: Iteration    7    eps =    0.000161242003
  CG solver: Iteration    8    eps =    0.000061489095
  CG solver: Iteration    9    eps =    0.000008260948
  CG solver: Iteration   10    eps =    0.000000776146
  CG solver: Iteration   11    eps =    0.000000158915
  CG solver: Iteration   12    eps =    0.000000017762
  CG solver: Iteration   13    eps =    0.000000001221
  Convergence reached in CG solver after   13 iterations
  CG solver: Calculating converged R, Z, Q2 matrix
----------------------------------------------------------------------------------

----------------------------------------------------------------------------------
 Solving CP-REKS equation for SI between  1 and  2 state vectors...
----------------------------------------------------------------------------------
  CG solver: Constructing Y initial guess
  CG solver: Iteration    1    eps =    0.001047710044
  CG solver: Iteration    2    eps =    0.000800533178
  CG solver: Iteration    3    eps =    0.000058483173
  CG solver: Iteration    4    eps =    0.000024674293
  CG solver: Iteration    5    eps =    0.000071728905
  CG solver: Iteration    6    eps =    0.000012037589
  CG solver: Iteration    7    eps =    0.000004786755
  CG solver: Iteration    8    eps =    0.000004474372
  CG solver: Iteration    9    eps =    0.000000650838
  CG solver: Iteration   10    eps =    0.000000097865
  CG solver: Iteration   11    eps =    0.000000010814
  CG solver: Iteration   12    eps =    0.000000001420
  Convergence reached in CG solver after   12 iterations
  CG solver: Calculating converged R, Z, Q2 matrix
----------------------------------------------------------------------------------

--------------------------------------------------
 Gradient Information
--------------------------------------------------
           1 st state (SSR)
     0.00000000     0.00000000     0.00000000
     0.00000000     0.00000000     0.00000000
     0.00000000     0.00000000     0.00000000
     0.00000000     0.00000000     0.00000000
     0.00000000     0.00000000     0.00000000
     0.00000000     0.00000000     0.00000000
     0.00000000     0.00000000     0.00000000
     0.00000000     0.00000000     0.00000000
     0.00000000     0.00000000     0.00000000
     0.00000000     0.00000000     0.00000000
     0.00000000     0.00000000     0.00000000
     0.00000000     0.00000000     0.00000000
     0.00000000     0.00000000     0.00000000
     0.00000000     0.00000000     0.00000000

           2 st state (SSR)
     0.00000000     0.00000000     0.00000000
     0.00000000     0.00000000     0.00000000
     0.00000000     0.00000000     0.00000000
     0.00000000     0.00000000     0.00000000
     0.00000000     0.00000000     0.00000000
     0.00000000     0.00000000     0.00000000
     0.00000000     0.00000000     0.00000000
     0.00000000     0.00000000     0.00000000
     0.00000000     0.00000000     0.00000000
     0.00000000     0.00000000     0.00000000
     0.00000000     0.00000000     0.00000000
     0.00000000     0.00000000     0.00000000
     0.00000000     0.00000000     0.00000000
     0.00000000     0.00000000     0.00000000
--------------------------------------------------
 Coupling Information
--------------------------------------------------
 between  1 and  2 states
--------------------------------------------------
 g vector - difference gradient
    -0.23945128     0.07139504    -0.23319079
     0.19479981     0.26976828     0.11809370
    -0.01301489     0.03044048    -0.07980175
     0.11633772    -0.02794849     0.18068078
     0.19933124    -0.14688990     0.15184947
    -0.32077323    -0.32809255    -0.01700404
     0.07803894     0.02962368    -0.08116375
    -0.12359173     0.13914027     0.02233307
    -0.00397642    -0.03600691     0.08243226
     0.05249156    -0.01536326    -0.07361242
    -0.03041769    -0.04676343    -0.13548341
     0.07228018     0.08017141     0.08465075
     0.03554930    -0.01684381    -0.10017694
    -0.01760352    -0.00263082     0.08039307

 h vector - derivative coupling
    -0.00696110     0.00170936    -0.00009031
     0.00591217     0.00238091    -0.00559295
     0.00029931    -0.00077523     0.00142094
     0.00023576    -0.00023587     0.00019432
     0.00293363    -0.00353640     0.00305733
    -0.00390785     0.00545597     0.00238407
     0.00145622    -0.00762829     0.00162555
    -0.00022707    -0.00046356     0.00041333
     0.00106531    -0.00049130    -0.00225679
     0.00130311     0.00422586    -0.00089047
     0.00033714    -0.00026670    -0.00103726
    -0.00243158    -0.00027614     0.00071521
     0.00000434    -0.00004169    -0.00015863
    -0.00001938    -0.00005692     0.00021567

 G vector - GDV
     0.00000000     0.00000000     0.00000000
     0.00000000     0.00000000     0.00000000
     0.00000000     0.00000000     0.00000000
     0.00000000     0.00000000     0.00000000
     0.00000000     0.00000000     0.00000000
     0.00000000     0.00000000     0.00000000
     0.00000000     0.00000000     0.00000000
     0.00000000     0.00000000     0.00000000
     0.00000000     0.00000000     0.00000000
     0.00000000     0.00000000     0.00000000
     0.00000000     0.00000000     0.00000000
     0.00000000     0.00000000     0.00000000
     0.00000000     0.00000000     0.00000000
     0.00000000     0.00000000     0.00000000

 H vector - DCV - non-adiabatic coupling
     0.00000000     0.00000000     0.00000000
     0.00000000     0.00000000     0.00000000
     0.00000000     0.00000000     0.00000000
     0.00000000     0.00000000     0.00000000
     0.00000000     0.00000000     0.00000000
     0.00000000     0.00000000     0.00000000
     0.00000000     0.00000000     0.00000000
     0.00000000     0.00000000     0.00000000
     0.00000000     0.00000000     0.00000000
     0.00000000     0.00000000     0.00000000
     0.00000000     0.00000000     0.00000000
     0.00000000     0.00000000     0.00000000
     0.00000000     0.00000000     0.00000000
     0.00000000     0.00000000     0.00000000
--------------------------------------------------

WARNING!
-> SCC is NOT converged, maximal SCC iterations exceeded

--------------------------------------------------------------------------------
DFTB+ running times                          cpu [s]             wall clock [s]
--------------------------------------------------------------------------------
SCC                                    +     1.39  ( 80.8%)      1.40  ( 80.7%)
      Sparse to dense                        0.07  (  4.0%)      0.07  (  4.2%)
      Dense to sparse                        0.24  ( 13.9%)      0.25  ( 14.2%)
      Range separated Hamiltonian            0.13  (  7.3%)      0.13  (  7.4%)
  Density matrix creation                    0.15  (  8.8%)      0.15  (  8.6%)
  Force calculation                          0.33  ( 19.1%)      0.33  ( 19.0%)
--------------------------------------------------------------------------------
Missing                                +     0.33  ( 19.2%)      0.33  ( 19.3%)
Total                                  =     1.72  (100.0%)      1.73  (100.0%)
--------------------------------------------------------------------------------
