     6
  Step:     0            Position(A)                                  Velocity(au)
C        -0.04122018     0.01528280     0.00577464    -0.00001319    -0.00012059    -0.00007799
N        -0.03608131    -0.05058179     1.30694458    -0.00013448     0.00012779     0.00003220
H         0.93832011    -0.03689243    -0.51322748     0.00002570     0.00026022     0.00036672
H         0.81919215    -0.18215307     1.87376271     0.00135958    -0.00054061     0.00070048
H        -0.95543874    -0.02289479     1.86632244     0.00073718    -0.00057656    -0.00025608
H        -1.02243089     0.09295377    -0.56538914    -0.00009646     0.00051808    -0.00032918
     6
  Step:     1            Position(A)                                  Velocity(au)
C        -0.04142383     0.01398355     0.00455673    -0.00002395    -0.00011733    -0.00014308
N        -0.03767174    -0.04919110     1.30772280    -0.00014964     0.00012602     0.00011018
H         0.93869839    -0.03398279    -0.51004561     0.00004608     0.00027233     0.00021182
H         0.83391633    -0.18813192     1.88153455     0.00126878    -0.00054303     0.00067604
H        -0.94574419    -0.02925978     1.86278260     0.00100001    -0.00058686    -0.00036755
H        -1.02269952     0.09854427    -0.56910405     0.00004994     0.00050443    -0.00034639
     6
  Step:     2            Position(A)                                  Velocity(au)
C        -0.04174402     0.01271594     0.00264439    -0.00003408    -0.00011489    -0.00020356
N        -0.03935496    -0.04782481     1.30935508    -0.00015137     0.00012351     0.00018585
H         0.93932829    -0.03093471    -0.50859358     0.00007004     0.00028554     0.00005240
H         0.84694923    -0.19403288     1.88855237     0.00106413    -0.00052787     0.00057217
H        -0.93356162    -0.03573351     1.85828147     0.00117794    -0.00059684    -0.00042301
H        -1.02133825     0.10398915    -0.57296712     0.00019753     0.00049181    -0.00035844
     6
  Step:     3            Position(A)                                  Velocity(au)
C        -0.04216937     0.01147018     0.00010349    -0.00004282    -0.00011340    -0.00025681
N        -0.04098328    -0.04648909     1.31178852    -0.00013973     0.00012065     0.00025437
H         0.94023065    -0.02773598    -0.50889928     0.00009420     0.00029984    -0.00010752
H         0.85719618    -0.19968003     1.89405179     0.00077448    -0.00049858     0.00040891
H        -0.91997440    -0.04231682     1.85352838     0.00124482    -0.00060768    -0.00040634
H        -1.01837810     0.10930359    -0.57694554     0.00033855     0.00048098    -0.00036959
     6
  Step:     4            Position(A)                                  Velocity(au)
C        -0.04268090     0.01023519    -0.00297380    -0.00004957    -0.00011295    -0.00030072
N        -0.04241175    -0.04518526     1.31491982    -0.00011529     0.00011792     0.00031165
H         0.94138902    -0.02437513    -0.51094582     0.00011526     0.00031511    -0.00026389
H         0.86389240    -0.20494019     1.89749812     0.00042973    -0.00045927     0.00020708
H        -0.90632887    -0.04902771     1.84939195     0.00118197    -0.00062129    -0.00030663
H        -1.01393186     0.11451152    -0.58105270     0.00046591     0.00047276    -0.00038395
     6
  Step:     5            Position(A)                                  Velocity(au)
C        -0.04325385     0.00899913    -0.00647528    -0.00005388    -0.00011360    -0.00033378
N        -0.04350550    -0.04390943     1.31860647    -0.00007956     0.00011578     0.00035486
H         0.94275210    -0.02084238    -0.51467227     0.00013029     0.00033116    -0.00041279
H         0.86659742    -0.20972734     1.89858208     0.00005879    -0.00041436    -0.00001333
H        -0.89411652    -0.05590862     1.84682035     0.00098515    -0.00063999    -0.00012254
H        -1.00818535     0.11964616    -0.58534519     0.00057349     0.00046800    -0.00040521
     6
  Step:     6            Position(A)                                  Velocity(au)
C        -0.04385972     0.00774990    -0.01027594    -0.00005368    -0.00010882    -0.00047848
N        -0.04415227    -0.04265240     1.32268315    -0.00003474     0.00011042     0.00048312
H         0.94423933    -0.01713036    -0.51997649     0.00005954     0.00038925    -0.00046595
H         0.86517855    -0.21400508     1.89720642    -0.00036553    -0.00041551    -0.00028327
H        -0.88477672    -0.06302882     1.84671113     0.00071429    -0.00061071     0.00008587
H        -1.00138575     0.12474990    -0.58991745     0.00071412     0.00039923    -0.00034868
     6
  Step:     7            Position(A)                                  Velocity(au)
C        -0.04442815     0.00661842    -0.01694288    -0.00004877    -0.00009851    -0.00073032
N        -0.04426548    -0.04149371     1.32917571     0.00001520     0.00010251     0.00069318
H         0.94405455    -0.01232682    -0.52486592    -0.00009380     0.00045913    -0.00042687
H         0.85860083    -0.21881748     1.89238507    -0.00080879    -0.00043813    -0.00057807
H        -0.87849013    -0.06926913     1.84869888     0.00039531    -0.00056460     0.00029404
H        -0.99256269     0.12838004    -0.59297315     0.00087723     0.00029292    -0.00021925
     6
  Step:     8            Position(A)                                  Velocity(au)
C        -0.04492659     0.00559481    -0.02625298    -0.00004056    -0.00008934    -0.00095544
N        -0.04381979    -0.04040982     1.33784780     0.00006422     0.00009710     0.00087670
H         0.94218732    -0.00708596    -0.52931498    -0.00023807     0.00048864    -0.00039034
H         0.84748479    -0.22358998     1.88456007    -0.00117217    -0.00043457    -0.00081710
H        -0.87612854    -0.07538052     1.85314379     0.00001734    -0.00056498     0.00052756
H        -0.98219458     0.13115819    -0.59471401     0.00098380     0.00022620    -0.00011793
     6
  Step:     9            Position(A)                                  Velocity(au)
C        -0.04531539     0.00466393    -0.03784495    -0.00002851    -0.00008165    -0.00114485
N        -0.04286056    -0.03936954     1.34835520     0.00010543     0.00009487     0.00102721
H         0.93884621    -0.00163686    -0.53340531    -0.00035526     0.00050213    -0.00036580
H         0.83295732    -0.22832458     1.87450951    -0.00140720    -0.00044297    -0.00096973
H        -0.87811077    -0.08162909     1.86024035    -0.00037369    -0.00058307     0.00076497
H        -0.97104016     0.13332852    -0.59555314     0.00101077     0.00017843    -0.00006168
     6
  Step:    10            Position(A)                                  Velocity(au)
C        -0.04555034     0.00380867    -0.05129882    -0.00001236    -0.00007553    -0.00129511
N        -0.04151320    -0.03833434     1.36031990     0.00013165     0.00009650     0.00114318
H         0.93441540     0.00389914    -0.53731765    -0.00043035     0.00050648    -0.00036169
H         0.81669962    -0.23328090     1.86334536    -0.00146427    -0.00048447    -0.00100749
H        -0.88430371    -0.08813618     1.86987905    -0.00072788    -0.00060865     0.00097862
H        -0.96008214     0.13506161    -0.59606342     0.00094044     0.00014568    -0.00006293
     6
  Step:    11            Position(A)                                  Velocity(au)
C        -0.04558583     0.00301148    -0.06617786     0.00000774    -0.00007100    -0.00140618
N        -0.03998057    -0.03725837     1.37336453     0.00013680     0.00010259     0.00122588
H         0.92943158     0.00944329    -0.54131803    -0.00045098     0.00050471    -0.00038474
H         0.80092363    -0.23892328     1.85246881    -0.00130350    -0.00057593    -0.00091046
H        -0.89403450    -0.09494455     1.88164960    -0.00100152    -0.00063562     0.00114470
H        -0.95046628     0.13651549    -0.59692981     0.00076275     0.00012718    -0.00012854
     6
  Step:    12            Position(A)                                  Velocity(au)
C        -0.04538098     0.00225547    -0.08206169     0.00003092    -0.00006790    -0.00148076
N        -0.03852041    -0.03608994     1.38713829     0.00011791     0.00011344     0.00127876
H         0.92454928     0.01494056    -0.54573450    -0.00040873     0.00049875    -0.00043916
H         0.78818303    -0.24588043     1.84342724    -0.00091275    -0.00072826    -0.00067718
H        -0.90621390    -0.10204158     1.89492153    -0.00116537    -0.00065974     0.00124846
H        -0.94339541     0.13784382    -0.59887542     0.00047994     0.00012185    -0.00025725
     6
  Step:    13            Position(A)                                  Velocity(au)
C        -0.04490940     0.00152612    -0.09857241     0.00005536    -0.00006591    -0.00152357
N        -0.03740110    -0.03477660     1.40133979     0.00007663     0.00012867     0.00130725
H         0.92048987     0.02035449    -0.55092540    -0.00030074     0.00049017    -0.00052592
H         0.78095554    -0.25485536     1.83765413    -0.00032586    -0.00094102    -0.00033292
H        -0.91952923    -0.10937769     1.90896196    -0.00120848    -0.00067840     0.00128580
H        -0.93996660     0.13918113    -0.60255773     0.00011050     0.00012665    -0.00043798
     6
  Step:    14            Position(A)                                  Velocity(au)
C        -0.04416985     0.00081353    -0.11539264     0.00007844    -0.00006453    -0.00154056
N        -0.03684390    -0.03327512     1.41573684     0.00001968     0.00014688     0.00131819
H         0.91797003     0.02566389    -0.55724004    -0.00013159     0.00048008    -0.00064217
H         0.78105424    -0.26646699     1.83614401     0.00037099    -0.00119789     0.00007031
H        -0.93265178    -0.11688279     1.92305092    -0.00113706    -0.00069054     0.00126177
H        -0.94097812     0.14061454    -0.60845704    -0.00031041     0.00013614    -0.00065043
     6
  Step:    15            Position(A)                                  Velocity(au)
C        -0.04319342     0.00011450    -0.13227510     0.00009722    -0.00006308    -0.00153813
N        -0.03697063    -0.03156332     1.43017761    -0.00004276     0.00016578     0.00131868
H         0.91761108     0.03085709    -0.56497408     0.00008578     0.00046915    -0.00078110
H         0.78907170    -0.28106152     1.83919227     0.00105562    -0.00146777     0.00046617
H        -0.94440456    -0.12448455     1.93656551    -0.00096981    -0.00069666     0.00118733
H        -0.94675746     0.14215937    -0.61678710    -0.00073583     0.00014309    -0.00086874
     6
  Step:    16            Position(A)                                  Velocity(au)
C        -0.04204307    -0.00056636    -0.14904227     0.00010921    -0.00006087    -0.00152223
N        -0.03777925    -0.02964829     1.44458556    -0.00009993     0.00018272     0.00131461
H         0.91984671     0.03592754    -0.57432806     0.00033077     0.00045747    -0.00093269
H         0.80414797    -0.29857730     1.84634232     0.00160558    -0.00171295     0.00079416
H        -0.95386833    -0.13212366     1.94902594    -0.00073261    -0.00069847     0.00107634
H        -0.95707591     0.14374489    -0.62746237    -0.00111648     0.00014001    -0.00106716
     6
  Step:    17            Position(A)                                  Velocity(au)
C        -0.04080415    -0.00121707    -0.16557671     0.00011309    -0.00005730    -0.00149762
N        -0.03915673    -0.02756587     1.45893729    -0.00014352     0.00019550     0.00130943
H         0.92484736     0.04086514    -0.58537838     0.00057748     0.00044453    -0.00108496
H         0.82419677    -0.31853557     1.85656613     0.00193435    -0.00190061     0.00101653
H        -0.96043182    -0.13976484     1.96011243    -0.00045407    -0.00069853     0.00094337
H        -0.97118251     0.14522239    -0.64013321    -0.00141098     0.00012065    -0.00122541
     6
  Step:    18            Position(A)                                  Velocity(au)
C        -0.03956891    -0.00181985    -0.18180567     0.00010895    -0.00005196    -0.00146772
N        -0.04091897    -0.02537143     1.47323181    -0.00016906     0.00020292     0.00130405
H         0.93248009     0.04565257    -0.59806365     0.00079863     0.00042937    -0.00122583
H         0.84646553    -0.34015683     1.86858094     0.00200853    -0.00201130     0.00112318
H        -0.96380202    -0.14740523     1.96966406    -0.00016282    -0.00070005     0.00080256
H        -0.98794390     0.14638441    -0.65427051    -0.00159321     0.00008126    -0.00133188
     6
  Step:    19            Position(A)                                  Velocity(au)
C        -0.03842071    -0.00235375    -0.19768597     0.00009807    -0.00004467    -0.00143472
N        -0.04285523    -0.02312662     1.48746580    -0.00017561     0.00020494     0.00129765
H         0.94231896     0.05025833    -0.61219584     0.00097004     0.00041059    -0.00134503
H         0.86813716    -0.36253658     1.88113794     0.00184183    -0.00204065     0.00112537
H        -0.96399389    -0.15507980     1.97766994     0.00011393    -0.00070669     0.00066703
H        -1.00603710     0.14700011    -0.66927054    -0.00165408     0.00002111    -0.00138379
     6
  Step:    20            Position(A)                                  Velocity(au)
C        -0.03742336    -0.00279709    -0.21319286     0.00008245    -0.00003546    -0.00139987
N        -0.04476076    -0.02088800     1.50162046    -0.00016447     0.00020234     0.00128865
H         0.95370149     0.05463511    -0.62748876     0.00107405     0.00038687    -0.00143535
H         0.88675916    -0.38479992     1.89320048     0.00147663    -0.00199569     0.00104527
H        -0.96130965    -0.16286539     1.98425654     0.00035126    -0.00072237     0.00054856
H        -1.02412999     0.14684620    -0.68454356    -0.00159880    -0.00005808    -0.00138512
     6
  Step:    21            Position(A)                                  Velocity(au)
C        -0.03661693    -0.00312957    -0.22831076     0.00006418    -0.00002453    -0.00136371
N        -0.04645341    -0.01869999     1.51565757    -0.00013796     0.00019635     0.00127537
H         0.96581580     0.05872196    -0.64359690     0.00110148     0.00035719    -0.00149325
H         0.90044131    -0.40619609     1.90400518     0.00096551    -0.00188950     0.00090725
H        -0.95630930    -0.17088294     1.98967081     0.00052769    -0.00075105     0.00045704
H        -1.04101393     0.14572948    -0.69957267    -0.00144221    -0.00015300    -0.00134386
     6
  Step:    22            Position(A)                                  Velocity(au)
C        -0.03601939    -0.00333367    -0.24302666     0.00004506    -0.00001215    -0.00132630
N        -0.04777892    -0.01659238     1.52952152    -0.00009867     0.00018830     0.00125644
H         0.97779849     0.06244938    -0.66015644     0.00105145     0.00032105    -0.00151856
H         0.90788163    -0.42613624     1.91304837     0.00035970    -0.00173707     0.00073310
H        -0.94976532    -0.17929604     1.99425522     0.00062700    -0.00079630     0.00039948
H        -1.05568106     0.14349895    -0.71394314    -0.00120393    -0.00025966    -0.00126962
     6
  Step:    23            Position(A)                                  Velocity(au)
C        -0.03563106    -0.00339538    -0.25732608     0.00002651     0.00000133    -0.00128739
N        -0.04861203    -0.01458048     1.54314454    -0.00004937     0.00017945     0.00123103
H         0.98881821     0.06574563    -0.67681835     0.00092981     0.00027853    -0.00151375
H         0.90831050    -0.44419789     1.92004324    -0.00029508    -0.00155349     0.00054079
H        -0.94259239    -0.18830353     1.99841013     0.00064070    -0.00086060     0.00037882
H        -1.06735228     0.14004894    -0.72734797    -0.00090514    -0.00037395    -0.00117206
     6
  Step:    24            Position(A)                                  Velocity(au)
C        -0.03543947    -0.00330465    -0.27119079     0.00000949     0.00001554    -0.00124659
N        -0.04885907    -0.01266659     1.55645271     0.00000675     0.00017091     0.00119886
H         0.99813979     0.06854277    -0.69327267     0.00074718     0.00023019    -0.00148302
H         0.90142625    -0.46012172     1.92487929    -0.00095777    -0.00135391     0.00034525
H        -0.93574885    -0.19812342     2.00254265     0.00057054    -0.00094445     0.00039283
H        -1.07548282     0.13531805    -0.73958419    -0.00056681    -0.00049208    -0.00106028
     6
  Step:    25            Position(A)                                  Velocity(au)
C        -0.03542351    -0.00305547    -0.28459772    -0.00000532     0.00003012    -0.00120345
N        -0.04846426    -0.01084141     1.56937185     0.00006579     0.00016371     0.00116010
H         1.00516412     0.07078140    -0.70926225     0.00051699     0.00017697    -0.00143153
H         0.88735738    -0.47381716     1.92759616    -0.00158889    -0.00115490     0.00015990
H        -0.93011084    -0.20896507     2.00700407     0.00043019    -0.00104545     0.00043344
H        -1.07975235     0.12928382    -0.75054357    -0.00020906    -0.00061059    -0.00094256
     6
  Step:    26            Position(A)                                  Velocity(au)
C        -0.03555589    -0.00264569    -0.29751849    -0.00001741     0.00004473    -0.00115744
N        -0.04741982    -0.00908504     1.58183207     0.00012286     0.00015886     0.00111524
H         1.00945001     0.07241440    -0.72459009     0.00025414     0.00012013    -0.00136487
H         0.86666620    -0.48538731     1.92837750    -0.00214689    -0.00097645    -0.00000165
H        -0.92633768    -0.22099456     2.01202492     0.00024437    -0.00115782     0.00048746
H        -1.08005646     0.12196013    -0.76020440     0.00014859    -0.00072646    -0.00082658
     6
  Step:    27            Position(A)                                  Velocity(au)
C        -0.03580439    -0.00207683    -0.30991891    -0.00002635     0.00005906    -0.00110803
N        -0.04577649    -0.00736611     1.59376992     0.00017229     0.00015750     0.00106487
H         1.01072388     0.07340940    -0.73912141    -0.00002594     0.00006106    -0.00128873
H         0.84038995    -0.49517890     1.92756008    -0.00258617    -0.00084378    -0.00012477
H        -0.92476478    -0.23429455     2.01766809     0.00004501    -0.00127246     0.00053878
H        -1.07650174     0.11339106    -0.76862667     0.00048685    -0.00083717    -0.00071973
     6
  Step:    28            Position(A)                                  Velocity(au)
C        -0.03613226    -0.00135372    -0.32175867    -0.00003171     0.00007281    -0.00105462
N        -0.04365062    -0.00563952     1.60512812     0.00020816     0.00016101     0.00100945
H         1.00888250     0.07375023    -0.75278353    -0.00030767     0.00000130    -0.00120874
H         0.81008871    -0.50384652     1.92564784    -0.00285874    -0.00078752    -0.00019414
H        -0.92535297    -0.24883209     2.02381186    -0.00013475    -0.00137809     0.00057148
H        -1.06940558     0.10364533    -0.77594995     0.00078638    -0.00094076    -0.00062926
     6
  Step:    29            Position(A)                                  Velocity(au)
C        -0.03649820    -0.00048406    -0.33299079    -0.00003310     0.00008575    -0.00099660
N        -0.04122251    -0.00384364     1.61585352     0.00022533     0.00017092     0.00094930
H         1.00399296     0.07343777    -0.76556497    -0.00057550    -0.00005760    -0.00113048
H         0.77784960    -0.51240735     1.92331300    -0.00292177    -0.00084054    -0.00019616
H        -0.92771271    -0.26444298     2.03017029    -0.00026710    -0.00146299     0.00057287
H        -1.05929809     0.09281010    -0.78239298     0.00102764    -0.00103588    -0.00056243
     6
  Step:    30            Position(A)                                  Velocity(au)
C        -0.03685648     0.00052232    -0.34356124    -0.00003018     0.00009775    -0.00093333
N        -0.03872114    -0.00190037     1.62589588     0.00022080     0.00018835     0.00088481
H         0.99629224     0.07249004    -0.77751493    -0.00081397    -0.00011410    -0.00105947
H         0.74616931    -0.52223489     1.92135646    -0.00275195    -0.00102921    -0.00012392
H        -0.93119622    -0.28083776     2.03634451    -0.00033444    -0.00151686     0.00053569
H        -1.04692393     0.08098353    -0.78825416     0.00119171    -0.00112198    -0.00052625
     6
  Step:    31            Position(A)                                  Velocity(au)
C        -0.03715848     0.00165437    -0.35340911    -0.00002282     0.00010874    -0.00086422
N        -0.03639208     0.00027682     1.63521036     0.00019514     0.00021317     0.00081680
H         0.98618585     0.07094170    -0.78874294    -0.00100794    -0.00016673    -0.00100116
H         0.71764545    -0.53492330     1.92060209    -0.00236256    -0.00135958     0.00001683
H        -0.93502920    -0.29762710     2.04188946    -0.00033145    -0.00153229     0.00045869
H        -1.03322711     0.06826473    -0.79390562     0.00126208    -0.00119952    -0.00052678
     6
  Step:    32            Position(A)                                  Velocity(au)
C        -0.03735564     0.00290120    -0.36246772    -0.00001129     0.00011881    -0.00078889
N        -0.03445200     0.00276322     1.64376499     0.00015312     0.00024307     0.00074691
H         0.97424166     0.06884255    -0.79941716    -0.00114325    -0.00021423    -0.00096069
H         0.69448373    -0.55197829     1.92172472    -0.00181358    -0.00180381     0.00020388
H        -0.93844727    -0.31435944     2.04637932    -0.00026406    -0.00150543     0.00034596
H        -1.01931351     0.05474178    -0.79977859     0.00122771    -0.00127014    -0.00056791
     6
  Step:    33            Position(A)                                  Velocity(au)
C        -0.03740553     0.00425359    -0.37066759     0.00000346     0.00012818    -0.00070730
N        -0.03304236     0.00559451     1.65155036     0.00010286     0.00027328     0.00067744
H         0.96117514     0.06625510    -0.80975996    -0.00120768    -0.00025561    -0.00094261
H         0.67797000    -0.57438519     1.92506243    -0.00120349    -0.00229683     0.00040121
H        -0.94080593    -0.33056135     2.04945805    -0.00014636    -0.00143596     0.00020530
H        -1.00636855     0.04047808    -0.80632975     0.00108697    -0.00133659    -0.00064957
     6
  Step:    34            Position(A)                                  Velocity(au)
C        -0.03727994     0.00570541    -0.37794128     0.00001974     0.00013718    -0.00061997
N        -0.03220174     0.00874168     1.65858531     0.00005361     0.00029756     0.00061083
H         0.94782132     0.06325068    -0.82003858    -0.00119282    -0.00029030    -0.00095008
H         0.66815500    -0.60222591     1.93050203    -0.00064149    -0.00275038     0.00056891
H        -0.94164924    -0.34577380     2.05087054     0.00000300    -0.00132653     0.00004657
H        -0.99553406     0.02550123    -0.81398914     0.00085114    -0.00140235    -0.00076610
     6
  Step:    35            Position(A)                                  Velocity(au)
C        -0.03697372     0.00725457    -0.38423053     0.00003515     0.00014616    -0.00052809
N        -0.03186951     0.01210411     1.66491341     0.00001303     0.00031012     0.00054878
H         0.93507998     0.05990422    -0.83054469    -0.00109623    -0.00031826    -0.00098391
H         0.66393614    -0.63455510     1.93750846    -0.00021344    -0.00308013     0.00067573
H        -0.94074037    -0.35958171     2.05047683     0.00016396    -0.00118213    -0.00011963
H        -0.98774817     0.00979898    -0.82308958     0.00054582    -0.00147069    -0.00090537
     6
  Step:    36            Position(A)                                  Velocity(au)
C        -0.03651093     0.00890287    -0.38949423     0.00004703     0.00015542    -0.00043358
N        -0.03191671     0.01552619     1.67059083    -0.00001446     0.00030736     0.00049176
H         0.92383922     0.05628819    -0.84156352    -0.00092359    -0.00033998    -0.00104151
H         0.66348557    -0.66960959     1.94528496     0.00003874    -0.00323027     0.00070706
H        -0.93806228    -0.37163507     2.04825332     0.00031715    -0.00100931    -0.00028298
H        -0.98359323    -0.00667303    -0.83379592     0.00020825    -0.00154364    -0.00104962
     6
  Step:    37            Position(A)                                  Velocity(au)
C        -0.03594479     0.01065476    -0.39371589     0.00005308     0.00016513    -0.00033891
N        -0.03218587     0.01882812     1.67567159    -0.00002769     0.00028844     0.00043907
H         0.91487470     0.05246658    -0.85332982    -0.00068999    -0.00035642    -0.00111597
H         0.66478356    -0.70522344     1.95297666     0.00011639    -0.00318297     0.00066490
H        -0.93380205    -0.38166237     2.04428616     0.00044494    -0.00081559    -0.00043395
H        -0.98319235    -0.02397109    -0.84605208    -0.00011897    -0.00162102    -0.00117798
     6
  Step:    38            Position(A)                                  Velocity(au)
C        -0.03534971     0.01251532    -0.39690849     0.00005199     0.00017521    -0.00024680
N        -0.03252255     0.02183645     1.68019638    -0.00002771     0.00025488     0.00038926
H         0.90874442     0.04849086    -0.86597759    -0.00041912    -0.00036874    -0.00119606
H         0.66603190    -0.73924314     1.95983102     0.00004914    -0.00295200     0.00056229
H        -0.92832828    -0.38947762     2.03875986     0.00053195    -0.00060882    -0.00056426
H        -0.98619601    -0.04213597    -0.85956659    -0.00039636    -0.00170025    -0.00127033
     6
  Step:    39            Position(A)                                  Velocity(au)
C        -0.03480732     0.01448791    -0.39911501     0.00004382     0.00018545    -0.00015982
N        -0.03279217     0.02440415     1.68418732    -0.00001656     0.00020947     0.00034062
H         0.90570572     0.04439959    -0.87949585    -0.00014019    -0.00037796    -0.00126734
H         0.66585848    -0.76980416     1.96527786    -0.00012257    -0.00256915     0.00041644
H        -0.92216465    -0.39498152     2.03194191     0.00056549    -0.00039670    -0.00066725
H        -0.99186358    -0.06116730    -0.87384307    -0.00059470    -0.00177687    -0.00131086
     6
  Step:    40            Position(A)                                  Velocity(au)
C        -0.03439116     0.01657236    -0.40040476     0.00002981     0.00019545    -0.00008004
N        -0.03288479     0.02641897     1.68764819     0.00000357     0.00015538     0.00029165
H         0.90567742     0.04022216    -0.89370303     0.00011681    -0.00038458    -0.00131439
H         0.66335041    -0.79544816     1.96894139    -0.00035938    -0.00207195     0.00024397
H        -0.91595709    -0.39815627     2.02416254     0.00053641    -0.00018608    -0.00073837
H        -0.99920617    -0.08100849    -0.88824412    -0.00069856    -0.00184565    -0.00129025
     6
  Step:    41            Position(A)                                  Velocity(au)
C        -0.03415519     0.01876371    -0.40086614     0.00001200     0.00020476    -0.00000882
N        -0.03271415     0.02780349     1.69056779     0.00003057     0.00009564     0.00024119
H         0.90826121     0.03598612    -0.90825072     0.00032623    -0.00038839    -0.00132348
H         0.65799632    -0.81513210     1.97061510    -0.00062826    -0.00149677     0.00005876
H        -0.91042975    -0.39905247     2.01578865     0.00044022     0.00001780    -0.00077570
H        -1.00714596    -0.10154454    -0.90206970    -0.00070590    -0.00190170    -0.00120607
     6
  Step:    42            Position(A)                                  Velocity(au)
C        -0.03412873     0.02105188    -0.40059764    -0.00000743     0.00021293     0.00005336
N        -0.03221601     0.02851136     1.69292460     0.00006242     0.00003290     0.00018849
H         0.91281423     0.03172545    -0.92265672     0.00047041    -0.00038852    -0.00128487
H         0.64960600    -0.82819286     1.97022687    -0.00090279    -0.00087684    -0.00012820
H        -0.90632651    -0.39776690     2.00719254     0.00027841     0.00021210    -0.00078031
H        -1.01464918    -0.12261173    -0.91462929    -0.00062485    -0.00194126    -0.00106171
     6
  Step:    43            Position(A)                                  Velocity(au)
C        -0.03431778     0.02342190    -0.39969875    -0.00002658     0.00021953     0.00010676
N        -0.03134859     0.02852333     1.69469130     0.00009691    -0.00003046     0.00013319
H         0.91855241     0.02748660    -0.93635962     0.00054131    -0.00038371    -0.00119412
H         0.63824609    -0.83431471     1.96781057    -0.00116099    -0.00024379    -0.00030793
H        -0.90433894    -0.39441238     1.99871797     0.00005950     0.00039689    -0.00075631
H        -1.02081586    -0.14401322    -0.92529674    -0.00046967    -0.00196204    -0.00086458
     6
  Step:    44            Position(A)                                  Velocity(au)
C        -0.03471028     0.02585453    -0.39826209    -0.00004407     0.00022421     0.00015225
N        -0.03009600     0.02784496     1.69583837     0.00013139    -0.00009217     0.00007519
H         0.92465649     0.02333108    -0.94878032     0.00053945    -0.00037244    -0.00105199
H         0.62420705    -0.83352630     1.96349037    -0.00138224     0.00036937    -0.00047210
H        -0.90502485    -0.38908410     1.99064685    -0.00020058     0.00057542    -0.00071053
H        -1.02492408    -0.16553504    -0.93354354    -0.00025728    -0.00196325    -0.00062439
     6