|===============================================================================
|
|  DFTB+ release 20.1
|
|  Copyright (C) 2006 - 2020  DFTB+ developers group
|
|===============================================================================
|
|  When publishing results obtained with DFTB+, please cite the following
|  reference:
|
|  * DFTB+, a software package for efficient approximate density functional
|    theory based atomistic simulations, J. Chem. Phys. 152, 124101 (2020).
|    [doi: 10.1063/1.5143190]
|
|  You should also cite additional publications crediting the parametrization
|  data you use. Please consult the documentation of the SK-files for the
|  references.
|
|===============================================================================

Reading input file 'dftb_in.hsd'
Parser version: 8

--------------------------------------------------------------------------------
Reading SK-files:
Done.


Processed input in HSD format written to 'dftb_pin.hsd'

Starting initialization...
--------------------------------------------------------------------------------
OpenMP threads:              1
Chosen random seed:          502906180
Mode:                        Static calculation
Self consistent charges:     Yes
SCC-tolerance:                 0.100000E-05
Max. scc iterations:                   1000
Shell resolved Hubbard:      No
Spin polarisation:           No
Nr. of up electrons:            16.000000
Nr. of down electrons:          16.000000
Periodic boundaries:         No
Electronic solver:           Relatively robust
Maximal SCC-cycles:                    1000
Initial charges:             Set automatically (system chrg:   0.100E+01)
Included shells:             C:  s, p
                             H:  s
                             N:  s, p
Spin coupling constants:     C   1(s)-1(s):  -0.455900E-01
                             C   1(s)-2(p):  -0.293000E-01
                             C   2(p)-1(s):  -0.293000E-01
                             C   2(p)-2(p):  -0.275500E-01
                             H   1(s)-1(s):  -0.792500E-01
                             N   1(s)-1(s):  -0.468700E-01
                             N   1(s)-2(p):  -0.317000E-01
                             N   2(p)-1(s):  -0.317000E-01
                             N   2(p)-2(p):  -0.307200E-01
Range separated hybrid:      Yes
  Screening parameter omega:   0.300000E+00
  Range separated algorithm:   MatrixBased
Extra options:
                             Mulliken analysis
                             Force calculation
Force type                   original
                             Eigenvector printing


REKS Calcuation:             Yes
SSR(2,2) Calcuation:         Yes
Energy Functional:           (PPS+OSS)/2
Number of Core Orbitals:                 15
Number of Active Orbitals:                2
Number of Basis:                         32
Number of States:                         2
State-Averaging Weight:          0.500000
                                 0.500000
State of Interest:                        1
Initial Guess:               Diagonalize H0 matrix
Newton-Raphson for FON opt:  Yes
NR max. Iterations:                      50
Level Shifting:              Yes
Shift Value:                     0.300000
W Scale Factor:              C  =    3.200000
                             H  =    3.200000
                             N  =    3.200000
Transition Dipole:           No
Gradient of Microstate:      No
CP-REKS Solver:              Preconditioned Conjugate-Gradient
CG max. Iterations:                     100
CG Tolerance:                  0.100000E-07
Memory for A and Hxc:        Direct Updating Without Saving
Non-Adiabatic Coupling:      Yes

--------------------------------------------------------------------------------

***  Geometry step: 0

  iSCC       reks energy        Diff energy         x_a       SCC error   
    1      -16.4005879484       0.0000000000     0.967532    1.21940809
    2      -16.4151112828      -0.0145233344     0.992745    0.04520902
    3      -16.4187204266      -0.0036091438     0.997103    0.02301667
    4      -16.4201954772      -0.0014750506     0.998351    0.01455198
    5      -16.4209167004      -0.0007212231     0.998871    0.01019736
    6      -16.4213011189      -0.0003844185     0.999132    0.00749802
    7      -16.4215172193      -0.0002161004     0.999278    0.00566441
    8      -16.4216434048      -0.0001261855     0.999367    0.00435804
    9      -16.4217194313      -0.0000760264     0.999423    0.00339917
   10      -16.4217665776      -0.0000471463     0.999460    0.00268058
   11      -16.4217966509      -0.0000300734     0.999485    0.00213381
   12      -16.4218163808      -0.0000197299     0.999501    0.00171302
   13      -16.4218296905      -0.0000133097     0.999513    0.00138626
   14      -16.4218389160      -0.0000092255     0.999521    0.00113064
   15      -16.4218454777      -0.0000065617     0.999526    0.00092935
   16      -16.4218502580      -0.0000047802     0.999529    0.00076988
   17      -16.4218538170      -0.0000035590     0.999531    0.00064277
   18      -16.4218565186      -0.0000027017     0.999533    0.00054084
   19      -16.4218586047      -0.0000020860     0.999533    0.00046126
   20      -16.4218602394      -0.0000016347     0.999533    0.00041487
   21      -16.4218615367      -0.0000012974     0.999533    0.00037436
   22      -16.4218625777      -0.0000010410     0.999533    0.00033882
   23      -16.4218634208      -0.0000008431     0.999532    0.00030749
   24      -16.4218641091      -0.0000006883     0.999532    0.00027974
   25      -16.4218646749      -0.0000005658     0.999531    0.00025504
   26      -16.4218651427      -0.0000004678     0.999530    0.00023298
   27      -16.4218655313      -0.0000003887     0.999530    0.00021318
   28      -16.4218658557      -0.0000003244     0.999529    0.00019535
   29      -16.4218661274      -0.0000002717     0.999528    0.00017924
   30      -16.4218663556      -0.0000002283     0.999528    0.00016465
   31      -16.4218665479      -0.0000001923     0.999527    0.00015139
   32      -16.4218667103      -0.0000001624     0.999526    0.00013931
   33      -16.4218668477      -0.0000001374     0.999526    0.00012830
   34      -16.4218669641      -0.0000001164     0.999525    0.00011822
   35      -16.4218670629      -0.0000000988     0.999525    0.00010900
   36      -16.4218671469      -0.0000000840     0.999524    0.00010054
   37      -16.4218672183      -0.0000000714     0.999524    0.00009278
   38      -16.4218672792      -0.0000000608     0.999524    0.00008564
   39      -16.4218673310      -0.0000000518     0.999523    0.00007908
   40      -16.4218673752      -0.0000000442     0.999523    0.00007304
   41      -16.4218674129      -0.0000000377     0.999523    0.00006747
   42      -16.4218674451      -0.0000000322     0.999522    0.00006234
   43      -16.4218674726      -0.0000000275     0.999522    0.00005761
   44      -16.4218674961      -0.0000000235     0.999522    0.00005325
   45      -16.4218675161      -0.0000000201     0.999521    0.00004922
   46      -16.4218675333      -0.0000000172     0.999521    0.00004550
   47      -16.4218675479      -0.0000000147     0.999521    0.00004207
   48      -16.4218675605      -0.0000000125     0.999521    0.00003890
   49      -16.4218675712      -0.0000000107     0.999521    0.00003597
   50      -16.4218675804      -0.0000000092     0.999521    0.00003326
   51      -16.4218675882      -0.0000000078     0.999520    0.00003076
   52      -16.4218675949      -0.0000000067     0.999520    0.00002845
   53      -16.4218676007      -0.0000000057     0.999520    0.00002631
   54      -16.4218676056      -0.0000000049     0.999520    0.00002434
   55      -16.4218676098      -0.0000000042     0.999520    0.00002251
   56      -16.4218676134      -0.0000000036     0.999520    0.00002082
   57      -16.4218676165      -0.0000000031     0.999520    0.00001926
   58      -16.4218676191      -0.0000000026     0.999520    0.00001782
   59      -16.4218676214      -0.0000000023     0.999520    0.00001648
   60      -16.4218676233      -0.0000000019     0.999519    0.00001524
   61      -16.4218676250      -0.0000000017     0.999519    0.00001410
   62      -16.4218676264      -0.0000000014     0.999519    0.00001305
   63      -16.4218676276      -0.0000000012     0.999519    0.00001207
   64      -16.4218676286      -0.0000000010     0.999519    0.00001116
   65      -16.4218676295      -0.0000000009     0.999519    0.00001033
   66      -16.4218676303      -0.0000000008     0.999519    0.00000955
   67      -16.4218676309      -0.0000000007     0.999519    0.00000884
   68      -16.4218676315      -0.0000000006     0.999519    0.00000818
   69      -16.4218676320      -0.0000000005     0.999519    0.00000757
   70      -16.4218676324      -0.0000000004     0.999519    0.00000700
   71      -16.4218676327      -0.0000000003     0.999519    0.00000647
   72      -16.4218676330      -0.0000000003     0.999519    0.00000599
   73      -16.4218676333      -0.0000000003     0.999519    0.00000554
   74      -16.4218676335      -0.0000000002     0.999519    0.00000513
   75      -16.4218676337      -0.0000000002     0.999519    0.00000474
   76      -16.4218676338      -0.0000000002     0.999519    0.00000439
   77      -16.4218676340      -0.0000000001     0.999519    0.00000406
   78      -16.4218676341      -0.0000000001     0.999519    0.00000376
   79      -16.4218676342      -0.0000000001     0.999519    0.00000348
   80      -16.4218676343      -0.0000000001     0.999519    0.00000322
   81      -16.4218676344      -0.0000000001     0.999519    0.00000297
   82      -16.4218676344      -0.0000000001     0.999519    0.00000275
   83      -16.4218676345      -0.0000000001     0.999519    0.00000255
   84      -16.4218676345      -0.0000000000     0.999519    0.00000236
   85      -16.4218676346      -0.0000000000     0.999519    0.00000218
   86      -16.4218676346      -0.0000000000     0.999519    0.00000202
   87      -16.4218676346      -0.0000000000     0.999519    0.00000187
   88      -16.4218676346      -0.0000000000     0.999519    0.00000173
   89      -16.4218676347      -0.0000000000     0.999519    0.00000160
   90      -16.4218676347      -0.0000000000     0.999519    0.00000148
   91      -16.4218676347      -0.0000000000     0.999519    0.00000137
   92      -16.4218676347      -0.0000000000     0.999519    0.00000126
   93      -16.4218676347      -0.0000000000     0.999519    0.00000117
   94      -16.4218676347      -0.0000000000     0.999519    0.00000108
   95      -16.4218676347      -0.0000000000     0.999519    0.00000100
   96      -16.4218676348      -0.0000000000     0.999519    0.00000093
  
--------------------------------------------------
 Final SA-REKS(2,2) energy:     -16.42186763
  
 State     Energy      FON(1)    FON(2)   Spin
  PPS  -16.47709800   1.999037  0.000963  0.00
  OSS  -16.36663727   1.000000  1.000000  0.00
 Trip  -16.41662708   1.000000  1.000000  1.00
--------------------------------------------------

 Lagrangian Wab:   0.00903439  0.00903510

--------------------------------------------------
 SSR: 2SI-2SA-REKS(2,2) Hamiltonian matrix
               PPS           OSS
   PPS   -16.47709800    0.01249314
   OSS     0.01249314  -16.36663727
--------------------------------------------------

----------------------------------------------------------------
 SSR: 2SI-2SA-REKS(2,2) states
                    E_n       C_{PPS}    C_{OSS}
 SSR state  1  -16.47849335  -0.993820   0.110999
 SSR state  2  -16.36524192  -0.110999  -0.993820
----------------------------------------------------------------

 unrelaxed SSR FONs for S0:  1.986728  0.013272

Total Energy:                      -16.4784933513 H         -448.4026 eV
Extrapolated to 0:                 -16.4784933513 H         -448.4026 eV

----------------------------------------------------------------------------------
 Solving CP-REKS equation for  1 state vector...
----------------------------------------------------------------------------------
  CG solver: Constructing Y initial guess
  CG solver: Iteration    1    eps =    0.001264583351
  CG solver: Iteration    2    eps =    0.001233013215
  CG solver: Iteration    3    eps =    0.000152403348
  CG solver: Iteration    4    eps =    0.000043170361
  CG solver: Iteration    5    eps =    0.000004281603
  CG solver: Iteration    6    eps =    0.000001816001
  CG solver: Iteration    7    eps =    0.000000170533
  CG solver: Iteration    8    eps =    0.000000036371
  CG solver: Iteration    9    eps =    0.000000006011
  Convergence reached in CG solver after    9 iterations
  CG solver: Calculating converged R, Z, Q2 matrix
----------------------------------------------------------------------------------

----------------------------------------------------------------------------------
 Solving CP-REKS equation for SI between  1 and  2 state vectors...
----------------------------------------------------------------------------------
  CG solver: Constructing Y initial guess
  CG solver: Iteration    1    eps =    0.035240592584
  CG solver: Iteration    2    eps =    0.009320669238
  CG solver: Iteration    3    eps =    0.007298649027
  CG solver: Iteration    4    eps =    0.000449888968
  CG solver: Iteration    5    eps =    0.000184693941
  CG solver: Iteration    6    eps =    0.000053876041
  CG solver: Iteration    7    eps =    0.000004833164
  CG solver: Iteration    8    eps =    0.000000182972
  CG solver: Iteration    9    eps =    0.000000082731
  CG solver: Iteration   10    eps =    0.000000017397
  CG solver: Iteration   11    eps =    0.000000001275
  Convergence reached in CG solver after   11 iterations
  CG solver: Calculating converged R, Z, Q2 matrix
----------------------------------------------------------------------------------

--------------------------------------------------
 Gradient Information
--------------------------------------------------
           1 st state (SSR)
    -0.05552973    -0.00657455     0.01974210
    -0.00034106     0.05133643    -0.00903340
     0.02877201    -0.00273735     0.00013545
     0.00617721     0.00139788    -0.01076972
     0.03473280    -0.01057024     0.01161418
    -0.03479818    -0.06852145    -0.02739388
     0.00020812     0.04594862    -0.00754395
     0.01649428     0.00993442     0.00848977
    -0.01055159    -0.01205710     0.00240094
    -0.08262303    -0.04964305     0.00954467
     0.04005797    -0.01770987    -0.01569172
    -0.00872677     0.06935160     0.01558761
     0.02689396     0.00551078     0.02054652
     0.03923401    -0.01566611    -0.01762859

           2 st state (SSR)
    -0.02212503    -0.00586781     0.02130442
    -0.04886944     0.01435776    -0.01642769
     0.02900839    -0.00324081     0.00045720
     0.00585570     0.00522398    -0.00806005
     0.03424965    -0.00832325     0.01245689
     0.06536061    -0.04114259    -0.00548816
    -0.09708391     0.03889525    -0.03680505
     0.01722824     0.01169143     0.01234543
    -0.01590710    -0.00668354     0.01684498
    -0.03047757    -0.02694172    -0.00932941
     0.04072558    -0.02320520    -0.00913893
    -0.04724608     0.05345933     0.01975383
     0.02847245     0.00780754     0.02003983
     0.04080851    -0.01603038    -0.01795329
--------------------------------------------------
 Coupling Information
--------------------------------------------------
 between  1 and  2 states
--------------------------------------------------
 g vector - difference gradient
    -0.01755661    -0.00146706    -0.00157542
     0.02720184     0.02538411     0.00330587
    -0.00019693     0.00034931    -0.00002183
     0.00019360    -0.00199852    -0.00163922
     0.00046064    -0.00099723    -0.00043112
    -0.07635954    -0.02005822    -0.00697081
     0.07894823     0.01405893     0.02048777
     0.00012423    -0.00214086    -0.00485972
     0.00496289    -0.00250709    -0.01304758
    -0.03124151    -0.01903055     0.01022052
    -0.00019833     0.00490074    -0.00572918
     0.01456814     0.00357448     0.00040872
    -0.00055890     0.00012206    -0.00032436
    -0.00034776    -0.00019010     0.00017635

 h vector - derivative coupling
    -0.00191109    -0.00488399    -0.00342406
     0.01027687     0.02841575    -0.00214272
    -0.00033489     0.00040325     0.00063267
     0.00012724    -0.00016416    -0.00110592
     0.00094147     0.00068367     0.00000389
    -0.11058735    -0.02662650     0.01882738
     0.12852844     0.04616762     0.02425984
     0.00221255    -0.00548255    -0.01274611
     0.00980319     0.00109447    -0.02494732
    -0.01993839    -0.03268390     0.00240963
     0.00063621     0.00921156    -0.01047747
    -0.02289161    -0.02021396     0.01124868
     0.00110649     0.00574469    -0.00258227
     0.00203087    -0.00166595     0.00004377

 G vector - GDV
    -0.01670235    -0.00035337    -0.00078116
     0.02426419     0.01848934     0.00369715
    -0.00011819     0.00025173    -0.00016088
     0.00016076    -0.00191305    -0.00135483
     0.00024158    -0.00112350    -0.00042135
    -0.05007939    -0.01368943    -0.01095286
     0.04864601     0.00352669     0.01463055
    -0.00036698    -0.00087850    -0.00192783
     0.00267775    -0.00268678    -0.00722202
    -0.02607273    -0.01135066     0.00943704
    -0.00033381     0.00274766    -0.00327639
     0.01925965     0.00794613    -0.00208311
    -0.00078925    -0.00114838     0.00025335
    -0.00078725     0.00018213     0.00016235

 H vector - DCV - non-adiabatic coupling
    -0.05066125    -0.04492054    -0.03255819
     0.14150004     0.29417688    -0.01201357
    -0.00326784     0.00415338     0.00540622
     0.00147298    -0.00530713    -0.01271793
     0.00900559     0.00394530    -0.00080633
    -1.10117141    -0.26839180     0.14856758
     1.26072903     0.42499897     0.24884618
     0.01929726    -0.05138815    -0.11924094
     0.09409658     0.00454181    -0.24027265
    -0.23257791    -0.31855811     0.04066326
     0.00509290     0.08888017    -0.10139648
    -0.16876964    -0.16712571     0.09767358
     0.00844064     0.04971296    -0.02287123
     0.01681303    -0.01471801     0.00072050
--------------------------------------------------


--------------------------------------------------------------------------------
DFTB+ running times                          cpu [s]             wall clock [s]
--------------------------------------------------------------------------------
SCC                                    +     0.15  ( 34.5%)      0.15  ( 34.4%)
      Dense to sparse                        0.02  (  5.7%)      0.02  (  5.5%)
      Range separated Hamiltonian            0.01  (  2.8%)      0.01  (  2.3%)
  Density matrix creation                    0.01  (  3.4%)      0.01  (  3.2%)
Post-SCC processing                    +     0.28  ( 64.9%)      0.28  ( 64.2%)
  Force calculation                          0.28  ( 64.8%)      0.28  ( 64.0%)
--------------------------------------------------------------------------------
Missing                                +     0.00  (  0.6%)      0.01  (  1.4%)
Total                                  =     0.43  (100.0%)      0.44  (100.0%)
--------------------------------------------------------------------------------
