|===============================================================================
|
|  DFTB+ release 20.1
|
|  Copyright (C) 2006 - 2020  DFTB+ developers group
|
|===============================================================================
|
|  When publishing results obtained with DFTB+, please cite the following
|  reference:
|
|  * DFTB+, a software package for efficient approximate density functional
|    theory based atomistic simulations, J. Chem. Phys. 152, 124101 (2020).
|    [doi: 10.1063/1.5143190]
|
|  You should also cite additional publications crediting the parametrization
|  data you use. Please consult the documentation of the SK-files for the
|  references.
|
|===============================================================================

Reading input file 'dftb_in.hsd'
Parser version: 8

--------------------------------------------------------------------------------
Reading SK-files:
Done.


Processed input in HSD format written to 'dftb_pin.hsd'

Starting initialization...
--------------------------------------------------------------------------------
OpenMP threads:              1
Chosen random seed:          510243684
Mode:                        Static calculation
Self consistent charges:     Yes
SCC-tolerance:                 0.100000E-05
Max. scc iterations:                   1000
Shell resolved Hubbard:      No
Spin polarisation:           No
Nr. of up electrons:             6.000000
Nr. of down electrons:           6.000000
Periodic boundaries:         No
Electronic solver:           Relatively robust
Maximal SCC-cycles:                    1000
Initial charges:             Set automatically (system chrg:   0.100E+01)
Included shells:             C:  s, p
                             N:  s, p
                             H:  s
Spin coupling constants:     C   1(s)-1(s):  -0.455900E-01
                             C   1(s)-2(p):  -0.293000E-01
                             C   2(p)-1(s):  -0.293000E-01
                             C   2(p)-2(p):  -0.275500E-01
                             N   1(s)-1(s):  -0.468700E-01
                             N   1(s)-2(p):  -0.317000E-01
                             N   2(p)-1(s):  -0.317000E-01
                             N   2(p)-2(p):  -0.307200E-01
                             H   1(s)-1(s):  -0.792500E-01
Range separated hybrid:      Yes
  Screening parameter omega:   0.300000E+00
  Range separated algorithm:   MatrixBased
Extra options:
                             Mulliken analysis
                             Force calculation
Force type                   original
                             Eigenvector printing


REKS Calcuation:             Yes
SSR(2,2) Calcuation:         Yes
Energy Functional:           (PPS+OSS)/2
Number of Core Orbitals:                  5
Number of Active Orbitals:                2
Number of Basis:                         12
Number of States:                         2
State-Averaging Weight:          0.500000
                                 0.500000
State of Interest:                        1
Initial Guess:               Diagonalize H0 matrix
Newton-Raphson for FON opt:  Yes
NR max. Iterations:                      50
Level Shifting:              Yes
Shift Value:                     0.300000
W Scale Factor:              C  =    3.000000
                             N  =    3.000000
                             H  =    3.000000
Transition Dipole:           No
Gradient of Microstate:      No
CP-REKS Solver:              Preconditioned Conjugate-Gradient
CG max. Iterations:                     100
CG Tolerance:                  0.100000E-07
Memory for A and Hxc:        Direct Updating Without Saving
Non-Adiabatic Coupling:      Yes

--------------------------------------------------------------------------------

***  Geometry step: 0

  iSCC       reks energy        Diff energy         x_a       SCC error   
    1       -6.2638059441       0.0000000000     0.998741    1.18465426
    2       -6.2769702390      -0.0131642949     0.999525    0.10384879
    3       -6.2805731841      -0.0036029451     0.999746    0.04773237
    4       -6.2820577176      -0.0014845335     0.999833    0.02407609
    5       -6.2827931916      -0.0007354740     0.999872    0.01291176
    6       -6.2832249608      -0.0004317691     0.999893    0.00704854
    7       -6.2835131446      -0.0002881838     0.999904    0.00500798
    8       -6.2837206979      -0.0002075533     0.999911    0.00460213
    9       -6.2838761566      -0.0001554587     0.999915    0.00415585
   10       -6.2839947531      -0.0001185965     0.999918    0.00375453
   11       -6.2840858931      -0.0000911400     0.999920    0.00352095
   12       -6.2841560415      -0.0000701484     0.999921    0.00325371
   13       -6.2842099552      -0.0000539137     0.999922    0.00297189
   14       -6.2842512707      -0.0000413155     0.999923    0.00268896
   15       -6.2842828196      -0.0000315489     0.999923    0.00241412
   16       -6.2843068214      -0.0000240018     0.999924    0.00215341
   17       -6.2843250158      -0.0000181943     0.999924    0.00191046
   18       -6.2843387612      -0.0000137454     0.999924    0.00168716
   19       -6.2843491136      -0.0000103524     0.999924    0.00148416
   20       -6.2843568888      -0.0000077753     0.999924    0.00130126
   21       -6.2843627141      -0.0000058253     0.999924    0.00113764
   22       -6.2843670690      -0.0000043548     0.999924    0.00099216
   23       -6.2843703183      -0.0000032493     0.999924    0.00086346
   24       -6.2843727386      -0.0000024204     0.999924    0.00075008
   25       -6.2843745389      -0.0000018003     0.999924    0.00065056
   26       -6.2843758762      -0.0000013373     0.999924    0.00056348
   27       -6.2843768686      -0.0000009923     0.999924    0.00048747
   28       -6.2843776042      -0.0000007356     0.999924    0.00042128
   29       -6.2843781490      -0.0000005448     0.999924    0.00036375
   30       -6.2843785523      -0.0000004033     0.999924    0.00031383
   31       -6.2843788506      -0.0000002983     0.999924    0.00027059
   32       -6.2843790711      -0.0000002205     0.999924    0.00023316
   33       -6.2843792340      -0.0000001629     0.999924    0.00020081
   34       -6.2843793544      -0.0000001204     0.999924    0.00017287
   35       -6.2843794432      -0.0000000889     0.999924    0.00014876
   36       -6.2843795088      -0.0000000656     0.999924    0.00012797
   37       -6.2843795572      -0.0000000484     0.999924    0.00011005
   38       -6.2843795929      -0.0000000357     0.999924    0.00009462
   39       -6.2843796193      -0.0000000263     0.999924    0.00008133
   40       -6.2843796387      -0.0000000194     0.999924    0.00006990
   41       -6.2843796530      -0.0000000143     0.999924    0.00006006
   42       -6.2843796636      -0.0000000106     0.999924    0.00005160
   43       -6.2843796714      -0.0000000078     0.999924    0.00004433
   44       -6.2843796771      -0.0000000057     0.999924    0.00003807
   45       -6.2843796813      -0.0000000042     0.999924    0.00003270
   46       -6.2843796844      -0.0000000031     0.999924    0.00002808
   47       -6.2843796867      -0.0000000023     0.999924    0.00002411
   48       -6.2843796884      -0.0000000017     0.999924    0.00002071
   49       -6.2843796897      -0.0000000012     0.999924    0.00001778
   50       -6.2843796906      -0.0000000009     0.999924    0.00001526
   51       -6.2843796913      -0.0000000007     0.999924    0.00001311
   52       -6.2843796918      -0.0000000005     0.999924    0.00001125
   53       -6.2843796921      -0.0000000004     0.999924    0.00000966
   54       -6.2843796924      -0.0000000003     0.999924    0.00000829
   55       -6.2843796926      -0.0000000002     0.999924    0.00000712
   56       -6.2843796928      -0.0000000001     0.999924    0.00000611
   57       -6.2843796929      -0.0000000001     0.999924    0.00000525
   58       -6.2843796930      -0.0000000001     0.999924    0.00000450
   59       -6.2843796930      -0.0000000001     0.999924    0.00000387
   60       -6.2843796931      -0.0000000000     0.999924    0.00000332
   61       -6.2843796931      -0.0000000000     0.999924    0.00000285
   62       -6.2843796931      -0.0000000000     0.999924    0.00000244
   63       -6.2843796931      -0.0000000000     0.999924    0.00000210
   64       -6.2843796931      -0.0000000000     0.999924    0.00000180
   65       -6.2843796932      -0.0000000000     0.999924    0.00000155
   66       -6.2843796932      -0.0000000000     0.999924    0.00000133
   67       -6.2843796932      -0.0000000000     0.999924    0.00000114
   68       -6.2843796932      -0.0000000000     0.999924    0.00000098
  
--------------------------------------------------
 Final SA-REKS(2,2) energy:      -6.28437969
  
 State     Energy      FON(1)    FON(2)   Spin
  PPS   -6.40590889   1.999848  0.000152  0.00
  OSS   -6.16285050   1.000000  1.000000  0.00
 Trip   -6.24501147   1.000000  1.000000  1.00
--------------------------------------------------

 Lagrangian Wab:   0.00939101  0.00939071

--------------------------------------------------
 SSR: 2SI-2SA-REKS(2,2) Hamiltonian matrix
               PPS           OSS
   PPS    -6.40590889    0.01316463
   OSS     0.01316463   -6.16285050
--------------------------------------------------

----------------------------------------------------------------
 SSR: 2SI-2SA-REKS(2,2) states
                    E_n       C_{PPS}    C_{OSS}
 SSR state  1   -6.40661984  -0.998545   0.053926
 SSR state  2   -6.16213955  -0.053926  -0.998545
----------------------------------------------------------------

 unrelaxed SSR FONs for S0:  1.996940  0.003060

Total Energy:                       -6.4066198360 H         -174.3330 eV
Extrapolated to 0:                  -6.4066198360 H         -174.3330 eV

----------------------------------------------------------------------------------
 Solving CP-REKS equation for  1 state vector...
----------------------------------------------------------------------------------
  CG solver: Constructing Y initial guess
  CG solver: Iteration    1    eps =    0.000264022848
  CG solver: Iteration    2    eps =    0.000040860807
  CG solver: Iteration    3    eps =    0.000010394914
  CG solver: Iteration    4    eps =    0.000000244953
  CG solver: Iteration    5    eps =    0.000000020875
  CG solver: Iteration    6    eps =    0.000000007542
  Convergence reached in CG solver after    6 iterations
  CG solver: Calculating converged R, Z, Q2 matrix
----------------------------------------------------------------------------------

----------------------------------------------------------------------------------
 Solving CP-REKS equation for SI between  1 and  2 state vectors...
----------------------------------------------------------------------------------
  CG solver: Constructing Y initial guess
  CG solver: Iteration    1    eps =    0.005369942352
  CG solver: Iteration    2    eps =    0.008809837121
  CG solver: Iteration    3    eps =    0.000847652964
  CG solver: Iteration    4    eps =    0.000012541386
  CG solver: Iteration    5    eps =    0.000001860196
  CG solver: Iteration    6    eps =    0.000000044682
  CG solver: Iteration    7    eps =    0.000000004392
  Convergence reached in CG solver after    7 iterations
  CG solver: Calculating converged R, Z, Q2 matrix
----------------------------------------------------------------------------------

--------------------------------------------------
 Gradient Information
--------------------------------------------------
           1 st state (SSR)
    -0.00227052     0.00820212    -0.00696216
    -0.00117902    -0.01815319     0.00594014
    -0.00329986     0.01339755     0.00763976
     0.00381628    -0.01092514    -0.00520072
    -0.00075150     0.02301930    -0.00614852
     0.00368462    -0.01554063     0.00473151

           2 st state (SSR)
    -0.00066826    -0.01379177     0.10330228
     0.01015345     0.02324739    -0.11778573
    -0.01398342    -0.01582749     0.02031099
    -0.00265542     0.00940362    -0.01349222
    -0.00414561    -0.01748368    -0.01382480
     0.01129926     0.01445194     0.02148947
--------------------------------------------------
 Coupling Information
--------------------------------------------------
 between  1 and  2 states
--------------------------------------------------
 g vector - difference gradient
    -0.00064720     0.01133617    -0.06011494
    -0.00620777    -0.02192796     0.06597415
     0.00483472     0.01688718    -0.00586113
     0.00293052    -0.01211518     0.00427645
     0.00251298     0.02284463     0.00390433
    -0.00342325    -0.01702485    -0.00817886

 h vector - derivative coupling
     0.00146431     0.00253768    -0.04302055
    -0.00469314    -0.01021532     0.03461182
    -0.00496939     0.02020937     0.00472240
    -0.00299343    -0.01745984     0.00098263
     0.00744050     0.02284492     0.00040380
     0.00375115    -0.01791681     0.00229990

 G vector - GDV
    -0.00080113     0.01099695    -0.05513222
    -0.00566624    -0.02070029     0.06186293
     0.00534178     0.01461252    -0.00633562
     0.00323585    -0.01016438     0.00414575
     0.00169706     0.02025149     0.00383814
    -0.00380732    -0.01499629    -0.00837898

 H vector - DCV - non-adiabatic coupling
     0.00566954     0.01531316    -0.20142487
    -0.02181928    -0.05120017     0.16981163
    -0.01807840     0.08962070     0.01662187
    -0.01088195    -0.07633757     0.00587968
     0.03136392     0.10296249     0.00336194
     0.01374617    -0.08035862     0.00574974
--------------------------------------------------


--------------------------------------------------------------------------------
DFTB+ running times                          cpu [s]             wall clock [s]
--------------------------------------------------------------------------------
SCC                                    +     0.02  ( 71.8%)      0.02  ( 67.6%)
--------------------------------------------------------------------------------
Missing                                +     0.01  ( 28.2%)      0.01  ( 32.4%)
Total                                  =     0.03  (100.0%)      0.03  (100.0%)
--------------------------------------------------------------------------------
