 Fermi distribution function

Calculation with static geometry


********************************************************************************
 iSCC Total electronic   Diff electronic      SCC error    
    9   -0.54450421E+01   -0.15747403E-11    0.52160343E-06
********************************************************************************

 Total charge:     1.00000000

 Atomic gross charges (e)
 Atom           Charge
    1       0.18761767
    2      -0.06246337
    3       0.17328248
    4       0.28506099
    5       0.26742428
    6       0.14907794

Nr. of electrons (up):     12.00000000
Atom populations (up)
 Atom       Population
    1       3.81238233
    2       5.06246337
    3       0.82671752
    4       0.71493901
    5       0.73257572
    6       0.85092206

l-shell populations (up)
 Atom Sh.   l       Population
    1   1   0       1.29447786
    1   2   1       2.51790447
    2   1   0       1.41712968
    2   2   1       3.64533368
    3   1   0       0.82671752
    4   1   0       0.71493901
    5   1   0       0.73257572
    6   1   0       0.85092206

Orbital populations (up)
 Atom Sh.   l   m       Population  Label
    1   1   0   0       1.29447786  s
    1   2   1  -1       0.60850076  p_y
    1   2   1   0       0.88951073  p_z
    1   2   1   1       1.01989298  p_x
    2   1   0   0       1.41712968  s
    2   2   1  -1       1.36161187  p_y
    2   2   1   0       1.09533027  p_z
    2   2   1   1       1.18839154  p_x
    3   1   0   0       0.82671752  s
    4   1   0   0       0.71493901  s
    5   1   0   0       0.73257572  s
    6   1   0   0       0.85092206  s

Fermi level:                        -0.4852879042 H          -13.2054 eV
Band energy:                        -8.9763827433 H         -244.2598 eV
TS:                                  0.0000000000 H            0.0000 eV
Band free energy (E-TS):            -8.9763827433 H         -244.2598 eV
Extrapolated E(0K):                 -8.9763827433 H         -244.2598 eV
Input / Output electrons (q):     12.0000000000     12.0000000000

Energy H0:                          -5.5788411415 H         -151.8080 eV
Energy SCC:                          0.1337990171 H            3.6409 eV
Total Electronic energy:            -5.4450421244 H         -148.1671 eV
Repulsive energy:                    0.2087926067 H            5.6815 eV
Total energy:                       -5.2362495177 H         -142.4856 eV
Extrapolated to 0:                  -5.2362495177 H         -142.4856 eV
Total Mermin free energy:           -5.2362495177 H         -142.4856 eV
Force related energy:               -5.2362495177 H         -142.4856 eV

SCC converged

Excitation Energy:                   0.1526393334 H            4.1535 eV

Total Forces
    1      0.010053549740      0.002754239355     -0.024489527641
    2     -0.006630228545      0.000163286730      0.006094982812
    3     -0.009423605186     -0.008871700330      0.005241077876
    4     -0.002160719985      0.009214398775      0.009944582345
    5      0.008213381009     -0.010519392702      0.000579528395
    6     -0.000052377033      0.007259168173      0.002629356213

Maximal derivative component:        0.244895E-01 au


