     6
  Step:     0            Position(A)                                  Velocity(au)
C        -0.04106883    -0.00240641     0.03670403    -0.00002482    -0.00001380     0.00021267
N        -0.04358794    -0.04448905     1.28372432    -0.00019969    -0.00002096    -0.00021423
H         0.93368981     0.07345102    -0.53471198    -0.00001454     0.00004927    -0.00011772
H         0.82775767    -0.14162416     1.87446666     0.00149783     0.00015172     0.00044327
H        -0.89142375    -0.05487514     1.80188077     0.00074619     0.00015402    -0.00023338
H        -0.98786934     0.10018064    -0.52604610     0.00084116     0.00010073     0.00035061
     6
  Step:     1            Position(A)                                  Velocity(au)
C        -0.04118022    -0.00249025     0.03744901    -0.00001535    -0.00001694     0.00005895
N        -0.04463779    -0.04462403     1.28289148    -0.00018244    -0.00002858    -0.00008918
H         0.93366670     0.07381214    -0.53518568     0.00000537     0.00008300    -0.00005515
H         0.83588641    -0.14070071     1.87666514     0.00145986     0.00018765     0.00035204
H        -0.88794597    -0.05395413     1.80086604     0.00051601     0.00018306    -0.00013161
H        -0.98353686     0.10084990    -0.52406022     0.00073688     0.00014522     0.00037159
     6
  Step:     2            Position(A)                                  Velocity(au)
C        -0.04123669    -0.00259163     0.03734870    -0.00000480    -0.00002036    -0.00009579
N        -0.04558328    -0.04480158     1.28274896    -0.00016200    -0.00003663     0.00003762
H         0.93374855     0.07435876    -0.53531517     0.00002355     0.00011780     0.00000782
H         0.84372374    -0.13957185     1.87831683     0.00139436     0.00022744     0.00024538
H        -0.88578030    -0.05287301     1.80044135     0.00026944     0.00021345    -0.00001900
H        -0.97981027     0.10176892    -0.52198217     0.00062093     0.00019289     0.00038448
     6
  Step:     3            Position(A)                                  Velocity(au)
C        -0.04123271    -0.00271279     0.03640172     0.00000670    -0.00002430    -0.00025030
N        -0.04640885    -0.04502446     1.28330275    -0.00013904    -0.00004527     0.00016510
H         0.93392415     0.07510001    -0.53510014     0.00003926     0.00015491     0.00007059
H         0.85113061    -0.13821418     1.87934784     0.00130534     0.00027201     0.00012694
H        -0.88500028    -0.05162056     1.80065833     0.00001238     0.00024665     0.00010163
H        -0.97674838     0.10295873    -0.51985682     0.00049527     0.00024514     0.00038919
     6
  Step:     4            Position(A)                                  Velocity(au)
C        -0.04116345    -0.00285723     0.03461322     0.00001901    -0.00002900    -0.00040341
N        -0.04710282    -0.04529631     1.28455323    -0.00011426    -0.00005465     0.00029227
H         0.93417756     0.07605171    -0.53454375     0.00005130     0.00019549     0.00013241
H         0.85798933    -0.13659910     1.87970413     0.00119599     0.00032226     0.00000029
H        -0.88564504    -0.05017748     1.80155198    -0.00024853     0.00028406     0.00022713
H        -0.97439765     0.10444795    -0.51772882     0.00036250     0.00030321     0.00038570
     6
  Step:     5            Position(A)                                  Velocity(au)
C        -0.04102505    -0.00302960     0.03199400     0.00003191    -0.00003457    -0.00055396
N        -0.04765729    -0.04562161     1.28649612    -0.00008832    -0.00006489     0.00041820
H         0.93448466     0.07723593    -0.53365339     0.00005770     0.00024037     0.00019229
H         0.86419822    -0.13469314     1.87935097     0.00106868     0.00037872    -0.00013085
H        -0.88771577    -0.04851687     1.80313998    -0.00050574     0.00032674     0.00035423
H        -0.97278759     0.10627168    -0.51564255     0.00022639     0.00036785     0.00037391
     6
  Step:     6            Position(A)                                  Velocity(au)
C        -0.04081482    -0.00323495     0.02855988     0.00004512    -0.00004094    -0.00070070
N        -0.04806791    -0.04600540     1.28912301    -0.00006188    -0.00007596     0.00054187
H         0.93480810     0.07867827    -0.53244253     0.00005579     0.00028941     0.00024872
H         0.86966719    -0.13246068     1.87827431     0.00092520     0.00044088    -0.00026231
H        -0.89117145    -0.04660706     1.80542282    -0.00075073     0.00037470     0.00047957
H        -0.97192376     0.10846754    -0.51364300     0.00009199     0.00043843     0.00035352
     6
  Step:     7            Position(A)                                  Velocity(au)
C        -0.04053173    -0.00347727     0.02433263     0.00005827    -0.00004772    -0.00084172
N        -0.04833393    -0.04645210     1.29242087    -0.00003566    -0.00008750     0.00066179
H         0.93509465     0.08040036    -0.53093394     0.00004341     0.00034066     0.00029956
H         0.87431428    -0.12987255     1.87648290     0.00076718     0.00050609    -0.00038963
H        -0.89592417    -0.04441991     1.80838352    -0.00097420     0.00042589     0.00059933
H        -0.97178176     0.11106548    -0.51177723    -0.00003535     0.00051199     0.00032417
     6
  Step:     8            Position(A)                                  Velocity(au)
C        -0.04017689    -0.00375735     0.01934496     0.00007089    -0.00005422    -0.00097375
N        -0.04845826    -0.04696338     1.29636813    -0.00001038    -0.00009884     0.00077536
H         0.93528339     0.08240772    -0.52916305     0.00002113     0.00039038     0.00034229
H         0.87806614    -0.12692006     1.87400875     0.00059730     0.00056960    -0.00050843
H        -0.90183679    -0.04194456     1.81198413    -0.00116696     0.00047617     0.00070873
H        -0.97231074     0.11407272    -0.51009403    -0.00015198     0.00058342     0.00028599
     6
  Step:     9            Position(A)                                  Velocity(au)
C        -0.03975405    -0.00407204     0.01365010     0.00008244    -0.00005983    -0.00109200
N        -0.04844783    -0.04753642     1.30092692     0.00001311    -0.00010914     0.00087867
H         0.93532644     0.08468302    -0.52717890    -0.00000706     0.00043475     0.00037450
H         0.88086689    -0.12362374     1.87090523     0.00042018     0.00062632    -0.00061459
H        -0.90872628    -0.03919612     1.81615862    -0.00132077     0.00052105     0.00080204
H        -0.97344909     0.11746587    -0.50863980    -0.00025686     0.00064753     0.00024002
     6
  Step:    10            Position(A)                                  Velocity(au)
C        -0.03926985    -0.00441571     0.00732950     0.00009234    -0.00006427    -0.00119105
N        -0.04831406    -0.04816424     1.30603628     0.00003394    -0.00011774     0.00096720
H         0.93520572     0.08719134    -0.52504240    -0.00003544     0.00047130     0.00039425
H         0.88268940    -0.12002854     1.86724631     0.00024238     0.00067259    -0.00070407
H        -0.91636944    -0.03621139     1.82080903    -0.00142895     0.00055734     0.00087367
H        -0.97513706     0.12119752    -0.50745306    -0.00035012     0.00070078     0.00018815
     6
  Step:    11            Position(A)                                  Velocity(au)
C        -0.03873399    -0.00478196     0.00049356     0.00010008    -0.00006746    -0.00126622
N        -0.04807292    -0.04883697     1.31161079     0.00005131    -0.00012422     0.00103688
H         0.93493499     0.08988907    -0.52282392    -0.00005875     0.00049901     0.00040024
H         0.88354419    -0.11619419     1.86312794     0.00007158     0.00070641    -0.00077290
H        -0.92451062    -0.03303972     1.82580927    -0.00148705     0.00058337     0.00091952
H        -0.97731654     0.12520674    -0.50656152    -0.00043144     0.00074135     0.00013259
     6
  Step:    12            Position(A)                                  Velocity(au)
C        -0.03815908    -0.00516444    -0.00672375     0.00010523    -0.00006948    -0.00131466
N        -0.04774462    -0.04954293     1.31754417     0.00006457    -0.00012840     0.00108503
H         0.93455369     0.09272962    -0.52060027    -0.00007316     0.00051784     0.00039199
H         0.88348387    -0.11218839     1.85866817    -0.00008434     0.00072710    -0.00081784
H        -0.93287358    -0.02973682     1.83101438    -0.00149389     0.00059864     0.00093782
H        -0.97992540     0.12942550    -0.50598144    -0.00049989     0.00076866     0.00007560
     6
  Step:    13            Position(A)                                  Velocity(au)
C        -0.03755988    -0.00555717    -0.01417480     0.00010759    -0.00007047    -0.00133623
N        -0.04735252    -0.05026961     1.32371701     0.00007337    -0.00013033     0.00111114
H         0.93411876     0.09566687    -0.51845026    -0.00007642     0.00052858     0.00037011
H         0.88260321    -0.10808155     1.85400290    -0.00021835     0.00073526    -0.00083724
H        -0.94117870    -0.02636036     1.83627303    -0.00145237     0.00060367     0.00092961
H        -0.98289403     0.13378312    -0.50571795    -0.00055463     0.00078328     0.00001921
     6
  Step:    14            Position(A)                                  Velocity(au)
C        -0.03695215    -0.00595487    -0.02171271     0.00010727    -0.00007066    -0.00133403
N        -0.04692160    -0.05100486     1.33000826     0.00007774    -0.00013033     0.00111742
H         0.93369651     0.09865884    -0.51644857    -0.00006777     0.00053287     0.00033638
H         0.88103451    -0.10394073     1.84927653    -0.00032534     0.00073290    -0.00083178
H        -0.94916531    -0.02296519     1.84144214    -0.00136972     0.00060012     0.00089876
H        -0.98614689     0.13821182    -0.50576601    -0.00059579     0.00078715    -0.00003500
     6
  Step:    15            Position(A)                                  Velocity(au)
C        -0.03635095    -0.00635345    -0.02920893     0.00010465    -0.00007037    -0.00131410
N        -0.04647643    -0.05173834     1.33630992     0.00007805    -0.00012896     0.00110854
H         0.93335497     0.10167218    -0.51465935    -0.00004764     0.00053319     0.00029338
H         0.87893673    -0.09982204     1.84462905    -0.00040288     0.00072332    -0.00080438
H        -0.95661503    -0.01959726     1.84640174    -0.00125632     0.00059063     0.00085128
H        -0.98960840     0.14265408    -0.50611239    -0.00062485     0.00078355    -0.00008605
     6
  Step:    16            Position(A)                                  Velocity(au)
C        -0.03576907    -0.00675041    -0.03656856     0.00010028    -0.00006996    -0.00128379
N        -0.04603927    -0.05246279     1.34254021     0.00007490    -0.00012693     0.00109043
H         0.93315794     0.10468658    -0.51313193    -0.00001708     0.00053236     0.00024380
H         0.87647998    -0.09576360     1.84018307    -0.00045121     0.00071043    -0.00075927
H        -0.96336797    -0.01628810     1.85106584    -0.00112316     0.00057834     0.00079384
H        -0.99321083     0.14706978    -0.50673879    -0.00064431     0.00077634    -0.00013367
     6
  Step:    17            Position(A)                                  Velocity(au)
C        -0.03521616    -0.00714514    -0.04373725     0.00014401    -0.00010607    -0.00190126
N        -0.04562885    -0.05317473     1.34865001     0.00010482    -0.00018991     0.00162556
H         0.93316167     0.10769669    -0.51190033     0.00003448     0.00081062     0.00028874
H         0.87383048    -0.09178225     1.83603657    -0.00071838     0.00106145    -0.00106564
H        -0.96932548    -0.01305230     1.85538537    -0.00148982     0.00086105     0.00111379
H        -0.99689983     0.15143970    -0.50762510    -0.00099903     0.00116984    -0.00027083
     6
  Step:    18            Position(A)                                  Velocity(au)
C        -0.03442871    -0.00775153    -0.05400268     0.00008312    -0.00006754    -0.00107592
N        -0.04506322    -0.05420856     1.35748510     0.00005797    -0.00010940     0.00093201
H         0.93373866     0.11226767    -0.51076869     0.00010734     0.00050246     0.00007026
H         0.86982834    -0.08599797     1.83031420    -0.00042121     0.00061298    -0.00058965
H        -0.97726363    -0.00835542     1.86147998    -0.00081497     0.00049816     0.00064565
H        -1.00278042     0.15797991    -0.50958148    -0.00066731     0.00071149    -0.00025715
     6
  Step:    19            Position(A)                                  Velocity(au)
C        -0.03398173    -0.00813303    -0.05998304     0.00007493    -0.00006775    -0.00104350
N        -0.04476768    -0.05482200     1.36268179     0.00004589    -0.00010808     0.00090924
H         0.93449347     0.11511720    -0.51053537     0.00016189     0.00050821     0.00001206
H         0.86753466    -0.08256066     1.82722432    -0.00038111     0.00060596    -0.00050114
H        -0.98140447    -0.00557064     1.86493341    -0.00065199     0.00048915     0.00057861
H        -1.00653424     0.16197912    -0.51113143    -0.00065952     0.00070597    -0.00029023
     6
  Step:    20            Position(A)                                  Velocity(au)
C        -0.03358360    -0.00851559    -0.06577128     0.00006648    -0.00006849    -0.00101701
N        -0.04454563    -0.05542753     1.36773947     0.00003243    -0.00010756     0.00089075
H         0.93556450     0.11799928    -0.51063265     0.00022044     0.00051845    -0.00004684
H         0.86553021    -0.07916400     1.82466232    -0.00032297     0.00060398    -0.00040701
H        -0.98461682    -0.00283877     1.86800550    -0.00049180     0.00048374     0.00051581
H        -1.01021854     0.16594180    -0.51285465    -0.00064858     0.00070471    -0.00032147
     6
  Step:    21            Position(A)                                  Velocity(au)
C        -0.03323529    -0.00890206    -0.07140159     0.00005763    -0.00006954    -0.00099337
N        -0.04440359    -0.05602963     1.37268279     0.00001774    -0.00010752     0.00087387
H         0.93696846     0.12093816    -0.51106127     0.00028116     0.00053147    -0.00010605
H         0.86390855    -0.07577940     1.82265457    -0.00024791     0.00060534    -0.00030659
H        -0.98692614    -0.00013945     1.87072466    -0.00033395     0.00048050     0.00045637
H        -1.01381621     0.16989132    -0.51474078    -0.00063265     0.00070544    -0.00035039
     6
  Step:    22            Position(A)                                  Velocity(au)
C        -0.03293845    -0.00929399    -0.07689109     0.00004837    -0.00007068    -0.00097027
N        -0.04434705    -0.05663110     1.37752165     0.00000213    -0.00010772     0.00085657
H         0.93871187     0.12394854    -0.51181981     0.00034191     0.00054575    -0.00016476
H         0.86275511    -0.07238783     1.82123033    -0.00015814     0.00060866    -0.00020037
H        -0.98835502     0.00253994     1.87311410    -0.00017941     0.00047837     0.00040010
H        -1.01730042     0.17383857    -0.51677690    -0.00061042     0.00070633    -0.00037643
     6
  Step:    23            Position(A)                                  Velocity(au)
C        -0.03269477    -0.00969184    -0.08224417     0.00003878    -0.00007176    -0.00094632
N        -0.04437975    -0.05723339     1.38225482    -0.00001396    -0.00010801     0.00083763
H         0.94078927     0.12703683    -0.51290244     0.00040042     0.00056015    -0.00022193
H         0.86214138    -0.06897779     1.82041543    -0.00005700     0.00061303    -0.00008989
H        -0.98893105     0.00520629     1.87519566    -0.00003024     0.00047674     0.00034742
H        -1.02063753     0.17778444    -0.51894733    -0.00058129     0.00070614    -0.00039921
     6
  Step:    24            Position(A)                                  Velocity(au)
C        -0.03250547    -0.01009524    -0.08745745     0.00002901    -0.00007268    -0.00092082
N        -0.04450294    -0.05783711     1.38687438    -0.00003002    -0.00010830     0.00081645
H         0.94318283     0.13020299    -0.51429778     0.00045449     0.00057379    -0.00027646
H         0.86211870    -0.06554286     1.82022663     0.00005127     0.00061790     0.00002263
H        -0.98869265     0.00786309     1.87699330     0.00011097     0.00047531     0.00029915
H        -1.02379097     0.18172313    -0.52123438    -0.00054525     0.00070411    -0.00041852
     6
  Step:    25            Position(A)                                  Velocity(au)
C        -0.03237089    -0.01050325    -0.09252364     0.00001927    -0.00007338    -0.00089356
N        -0.04471493    -0.05844239     1.39136918    -0.00004550    -0.00010856     0.00079291
H         0.94586296     0.13344227    -0.51598864     0.00050218     0.00058607    -0.00032734
H         0.86271369    -0.06207989     1.82066802     0.00016186     0.00062293     0.00013459
H        -0.98769226     0.01051240     1.87853514     0.00024142     0.00047407     0.00025626
H        -1.02672442     0.18564476    -0.52361939    -0.00050277     0.00069989    -0.00043433
     6
  Step:    26            Position(A)                                  Velocity(au)
C        -0.03229034    -0.01091456    -0.09743418     0.00000975    -0.00007381    -0.00086465
N        -0.04501099    -0.05904914     1.39572729    -0.00005985    -0.00010877     0.00076715
H         0.94878974     0.13674654    -0.51795253     0.00054185     0.00059658    -0.00037371
H         0.86392585    -0.05858774     1.82172930     0.00026983     0.00062792     0.00024332
H        -0.98599720     0.01315617     1.87985443     0.00035842     0.00047317     0.00021975
H        -1.02940440     0.18953747    -0.52608372    -0.00045460     0.00069335    -0.00044678
     6
  Step:    27            Position(A)                                  Velocity(au)
C        -0.03226203    -0.01132764    -0.10218099     0.00000064    -0.00007395    -0.00083439
N        -0.04538338    -0.05965722     1.39993756    -0.00007255    -0.00010895     0.00073953
H         0.95191492     0.14010548    -0.52016258     0.00057227     0.00060506    -0.00041491
H         0.86572740    -0.05506659     1.82338568     0.00037044     0.00063274     0.00034633
H        -0.98368903     0.01579724     1.88098955     0.00045960     0.00047287     0.00019055
H        -1.03180185     0.19338882    -0.52860953    -0.00040172     0.00068458    -0.00045613
     6
  Step:    28            Position(A)                                  Velocity(au)
C        -0.03228320    -0.01174086    -0.10675751    -0.00000789    -0.00007380    -0.00080315
N        -0.04582169    -0.06026657     1.40399067    -0.00008318    -0.00010914     0.00071046
H         0.95518418     0.14350745    -0.52258866     0.00059260     0.00061141    -0.00045051
H         0.86806512    -0.05151752     1.82559912     0.00045950     0.00063731     0.00044144
H        -0.98086165     0.01843995     1.88198357     0.00054303     0.00047352     0.00016940
H        -1.03389320     0.19718686    -0.53118043    -0.00034522     0.00067378    -0.00046271
     6
  Step:    29            Position(A)                                  Velocity(au)
C        -0.03235025    -0.01215261    -0.11115919    -0.00001571    -0.00007337    -0.00077138
N        -0.04631323    -0.06087723     1.40787954    -0.00009139    -0.00010935     0.00068041
H         0.95853946     0.14694029    -0.52519865     0.00060244     0.00061563    -0.00048028
H         0.87086396    -0.04794230     1.82832045     0.00053355     0.00064154     0.00052696
H        -0.97761871     0.02109052     1.88288322     0.00060729     0.00047548     0.00015686
H        -1.03566093     0.20092076    -0.53378202    -0.00028620     0.00066123    -0.00046694
     6
  Step:    30            Position(A)                                  Velocity(au)
C        -0.03245887    -0.01256132    -0.11538375    -0.00002271    -0.00007268    -0.00073950
N        -0.04684364    -0.06148945     1.41159958    -0.00009693    -0.00010964     0.00064984
H         0.96192117     0.15039195    -0.52795958     0.00060173     0.00061781    -0.00050421
H         0.87403170    -0.04434325     1.83149200     0.00059006     0.00064537     0.00060166
H        -0.97407045     0.02375720     1.88373774     0.00065157     0.00047915     0.00015325
H        -1.03709367     0.20458128    -0.53640216    -0.00022573     0.00064726    -0.00046927
     6
  Step:    31            Position(A)                                  Velocity(au)
C        -0.03260430    -0.01296555    -0.11943110    -0.00002884    -0.00007175    -0.00070788
N        -0.04739750    -0.06210363     1.41514857    -0.00009969    -0.00011002     0.00061917
H         0.96527031     0.15385100    -0.53083869     0.00059074     0.00061811    -0.00052244
H         0.87746424    -0.04072325     1.83505055     0.00062743     0.00064872     0.00066486
H        -0.97033040     0.02645027     1.88459750     0.00067562     0.00048489     0.00015864
H        -1.03818593     0.20816094    -0.53903116    -0.00016483     0.00063220    -0.00047014
     6
  Step:    32            Position(A)                                  Velocity(au)
C        -0.03278148    -0.01336402    -0.12330318    -0.00003405    -0.00007062    -0.00067686
N        -0.04795894    -0.06272035     1.41852654    -0.00009964    -0.00011054     0.00058875
H         0.96853014     0.15730704    -0.53380435     0.00057002     0.00061674    -0.00053523
H         0.88105104    -0.03708564     1.83893016     0.00064497     0.00065151     0.00071633
H        -0.96651197     0.02918196     1.88551254     0.00067978     0.00049303     0.00017283
H        -1.03893774     0.21165404    -0.54166181    -0.00010441     0.00061635    -0.00046999
     6
  Step:    33            Position(A)                                  Velocity(au)
C        -0.03298528    -0.01375564    -0.12700365    -0.00003836    -0.00006932    -0.00064669
N        -0.04851223    -0.06334033     1.42173542    -0.00009684    -0.00011121     0.00055890
H         0.97164762     0.16075099    -0.53682671     0.00054032     0.00061398    -0.00054295
H         0.88468003    -0.03343426     1.84306469     0.00064281     0.00065366     0.00075624
H        -0.96272512     0.03196619     1.88653109     0.00066495     0.00050385     0.00019539
H        -1.03935401     0.21505656    -0.54428936    -0.00004525     0.00059999    -0.00046927
     6
  Step:    34            Position(A)                                  Velocity(au)
C        -0.03321059    -0.01413946    -0.13053749    -0.00004178    -0.00006787    -0.00061755
N        -0.04904228    -0.06396444     1.42477869    -0.00009146    -0.00011206     0.00052981
H         0.97457445     0.16417535    -0.53987816     0.00050250     0.00061009    -0.00054603
H         0.88824186    -0.02977343     1.84738991     0.00062173     0.00065505     0.00078509
H        -0.95907346     0.03481829     1.88769828     0.00063249     0.00051757     0.00022564
H        -1.03944395     0.21836588    -0.54691135     0.00001195     0.00058333    -0.00046836
     6
  Step:    35            Position(A)                                  Velocity(au)
C        -0.03345250    -0.01451475    -0.13391038    -0.00004435    -0.00006632    -0.00058951
N        -0.04953508    -0.06459362     1.42766083    -0.00008370    -0.00011309     0.00050163
H         0.97726767     0.16757433    -0.54293357     0.00045755     0.00060541    -0.00054490
H         0.89163354    -0.02610808     1.85184525     0.00058310     0.00065558     0.00080366
H        -0.95565132     0.03775476     1.88905465     0.00058427     0.00053439     0.00026265
H        -1.03922036     0.22158053    -0.54952752     0.00006663     0.00056650    -0.00046763
     6
  Step:    36            Position(A)                                  Velocity(au)
C        -0.03370640    -0.01488095    -0.13712842    -0.00004613    -0.00006468    -0.00056260
N        -0.04997808    -0.06522887     1.43038709    -0.00007386    -0.00011431     0.00047446
H         0.97969005     0.17094411    -0.54597035     0.00040648     0.00060031    -0.00053998
H         0.89476113    -0.02244383     1.85637511     0.00052866     0.00065504     0.00081288
H        -0.95254108     0.04079296     1.89063487     0.00052259     0.00055444     0.00030529
H        -1.03869902     0.22469964    -0.55213965     0.00011831     0.00054957    -0.00046745
     6
  Step:    37            Position(A)                                  Velocity(au)
C        -0.03396807    -0.01523765    -0.14019785    -0.00004722    -0.00006299    -0.00053687
N        -0.05036048    -0.06587117     1.43296324    -0.00006224    -0.00011572     0.00044841
H         0.98181037     0.17428323    -0.54896828     0.00035037     0.00059527    -0.00053167
H         0.89754171    -0.01878750     1.86092976     0.00046044     0.00065315     0.00081385
H        -0.94981101     0.04395107     1.89246646     0.00045008     0.00057792     0.00035217
H        -1.03789813     0.22772233    -0.55475158     0.00016663     0.00053239    -0.00046819
     6
  Step:    38            Position(A)                                  Velocity(au)
C        -0.03423384    -0.01558457    -0.14312538    -0.00004773    -0.00006126    -0.00051234
N        -0.05067330    -0.06652152     1.43539587    -0.00004917    -0.00011731     0.00042358
H         0.98360372     0.17759343    -0.55190924     0.00029039     0.00059108    -0.00052025
H         0.89990439    -0.01514799     1.86546596     0.00038058     0.00064925     0.00080777
H        -0.94751353     0.04724850     1.89456872     0.00036964     0.00060523     0.00040174
H        -1.03683776     0.23064658    -0.55736942     0.00021128     0.00051453    -0.00047037
     6
  Step:    39            Position(A)                                  Velocity(au)
C        -0.03450088    -0.01592155    -0.14591769    -0.00004790    -0.00005952    -0.00048885
N        -0.05090937    -0.06718079     1.43769210    -0.00003489    -0.00011903     0.00039994
H         0.98505233     0.18088215    -0.55477640     0.00022814     0.00058963    -0.00050575
H         0.90179058    -0.01153916     1.86994778     0.00029116     0.00064146     0.00079612
H        -0.94568427     0.05070797     1.89695154     0.00028422     0.00063777     0.00045213
H        -1.03553935     0.23346657    -0.56000280     0.00025203     0.00049446    -0.00047511
     6
  Step:    40            Position(A)                                  Velocity(au)
C        -0.03476829    -0.01624862    -0.14857980    -0.00004896    -0.00005811    -0.00046331
N        -0.05106256    -0.06784965     1.43985830    -0.00001893    -0.00012059     0.00037544
H         0.98614929     0.18417237    -0.55755221     0.00017075     0.00060308    -0.00048836
H         0.90315305    -0.00799077     1.87434879     0.00019339     0.00061681     0.00078268
H        -0.94434230     0.05436450     1.89961347     0.00019585     0.00068509     0.00050034
H        -1.03402563     0.23616358    -0.56267053     0.00028646     0.00046320    -0.00049100
     6
  Step:    41            Position(A)                                  Velocity(au)
C        -0.03504682    -0.01656954    -0.15108409    -0.00005149    -0.00006571    -0.00042528
N        -0.05112046    -0.06852545     1.44187858    -0.00000364    -0.00012512     0.00034529
H         0.98695640     0.18760709    -0.56022209     0.00016446     0.00067322    -0.00054597
H         0.90394704    -0.00466117     1.87867543     0.00010520     0.00060851     0.00081340
H        -0.94350034     0.05834741     1.90253084     0.00011202     0.00075675     0.00058633
H        -1.03234509     0.23863174    -0.56547797     0.00028249     0.00048327    -0.00058426
     6
  Step:    42            Position(A)                                  Velocity(au)
C        -0.03532110    -0.01693073    -0.15339801    -0.00004745    -0.00006383    -0.00040654
N        -0.05110573    -0.06922772     1.44374703     0.00000926    -0.00012711     0.00032662
H         0.98766237     0.19127318    -0.56323428     0.00008905     0.00064859    -0.00053157
H         0.90426086    -0.00121321     1.88312209     0.00000554     0.00062277     0.00078282
H        -0.94310258     0.06257970     1.90593810     0.00003367     0.00076982     0.00063330
H        -1.03069920     0.24134846    -0.56871175     0.00030847     0.00048571    -0.00057906
     6
  Step:    43            Position(A)                                  Velocity(au)
C        -0.03557535    -0.01728045    -0.15561222    -0.00004387    -0.00006178    -0.00038939
N        -0.05101731    -0.06994118     1.44551656     0.00002227    -0.00012921     0.00030975
H         0.98794821     0.19483119    -0.56614272     0.00001373     0.00063114    -0.00051193
H         0.90400872     0.00227537     1.88739457    -0.00009605     0.00062858     0.00075132
H        -0.94312527     0.06692180     1.90958461    -0.00003739     0.00079175     0.00067330
H        -1.02890930     0.24404160    -0.57192760     0.00033305     0.00048035    -0.00057710
     6
  Step:    44            Position(A)                                  Velocity(au)
C        -0.03580947    -0.01761852    -0.15773269    -0.00004021    -0.00005973    -0.00037319
N        -0.05085787    -0.07066611     1.44719516     0.00003458    -0.00013135     0.00029424
H         0.98781520     0.19829899    -0.56893313    -0.00006112     0.00061607    -0.00049028
H         0.90319165     0.00578415     1.89148581    -0.00019635     0.00063174     0.00071879
H        -0.94351881     0.07139345     1.91343329    -0.00009855     0.00081600     0.00070629
H        -1.02699169     0.24669574    -0.57513604     0.00035450     0.00047315    -0.00057665
     6