|===============================================================================
|
|  DFTB+ release 20.1
|
|  Copyright (C) 2006 - 2020  DFTB+ developers group
|
|===============================================================================
|
|  When publishing results obtained with DFTB+, please cite the following
|  reference:
|
|  * DFTB+, a software package for efficient approximate density functional
|    theory based atomistic simulations, J. Chem. Phys. 152, 124101 (2020).
|    [doi: 10.1063/1.5143190]
|
|  You should also cite additional publications crediting the parametrization
|  data you use. Please consult the documentation of the SK-files for the
|  references.
|
|===============================================================================

Reading input file 'dftb_in.hsd'
Parser version: 8

--------------------------------------------------------------------------------
Reading SK-files:
Done.


Processed input in HSD format written to 'dftb_pin.hsd'

Starting initialization...
--------------------------------------------------------------------------------
OpenMP threads:              1
Chosen random seed:          497958715
Mode:                        Static calculation
Self consistent charges:     Yes
SCC-tolerance:                 0.100000E-05
Max. scc iterations:                   1000
Shell resolved Hubbard:      No
Spin polarisation:           No
Nr. of up electrons:            16.000000
Nr. of down electrons:          16.000000
Periodic boundaries:         No
Electronic solver:           Relatively robust
Maximal SCC-cycles:                    1000
Initial charges:             Set automatically (system chrg:   0.100E+01)
Included shells:             C:  s, p
                             H:  s
                             N:  s, p
Spin coupling constants:     C   1(s)-1(s):  -0.455900E-01
                             C   1(s)-2(p):  -0.293000E-01
                             C   2(p)-1(s):  -0.293000E-01
                             C   2(p)-2(p):  -0.275500E-01
                             H   1(s)-1(s):  -0.792500E-01
                             N   1(s)-1(s):  -0.468700E-01
                             N   1(s)-2(p):  -0.317000E-01
                             N   2(p)-1(s):  -0.317000E-01
                             N   2(p)-2(p):  -0.307200E-01
Range separated hybrid:      Yes
  Screening parameter omega:   0.300000E+00
  Range separated algorithm:   MatrixBased
Extra options:
                             Mulliken analysis
                             Force calculation
Force type                   original
                             Eigenvector printing


REKS Calcuation:             Yes
SSR(2,2) Calcuation:         Yes
Energy Functional:           (PPS+OSS)/2
Number of Core Orbitals:                 15
Number of Active Orbitals:                2
Number of Basis:                         32
Number of States:                         2
State-Averaging Weight:          0.500000
                                 0.500000
State of Interest:                        1
Initial Guess:               Diagonalize H0 matrix
Newton-Raphson for FON opt:  Yes
NR max. Iterations:                      50
Level Shifting:              Yes
Shift Value:                     0.300000
W Scale Factor:              C  =    3.200000
                             H  =    3.200000
                             N  =    3.200000
Transition Dipole:           No
Gradient of Microstate:      No
CP-REKS Solver:              Preconditioned Conjugate-Gradient
CG max. Iterations:                     100
CG Tolerance:                  0.100000E-07
Memory for A and Hxc:        Direct Updating Without Saving
Non-Adiabatic Coupling:      Yes

--------------------------------------------------------------------------------

***  Geometry step: 0

  iSCC       reks energy        Diff energy         x_a       SCC error   
    1      -16.4121163666       0.0000000000     0.999747    1.20692676
    2      -16.4279616508      -0.0158452841     0.999967    0.05436576
    3      -16.4309187020      -0.0029570512     0.999988    0.02570608
    4      -16.4319350392      -0.0010163372     0.999994    0.01444659
    5      -16.4323900270      -0.0004549878     0.999996    0.00928671
    6      -16.4326217988      -0.0002317717     0.999997    0.00641258
    7      -16.4327504801      -0.0001286813     0.999998    0.00461264
    8      -16.4328274314      -0.0000769513     0.999998    0.00341834
    9      -16.4328769708      -0.0000495394     0.999998    0.00260215
   10      -16.4329113136      -0.0000343429     0.999999    0.00203439
   11      -16.4329368439      -0.0000255303     0.999999    0.00163421
   12      -16.4329570099      -0.0000201660     0.999999    0.00134875
   13      -16.4329737360      -0.0000167261     0.999999    0.00114258
   14      -16.4329881344      -0.0000143985     0.999999    0.00099161
   15      -16.4330008731      -0.0000127387     0.999999    0.00087929
   16      -16.4330123696      -0.0000114965     0.999999    0.00079421
   17      -16.4330228962      -0.0000105266     0.999999    0.00076746
   18      -16.4330326380      -0.0000097418     0.999999    0.00075840
   19      -16.4330417260      -0.0000090879     0.999999    0.00074548
   20      -16.4330502560      -0.0000085300     0.999999    0.00073013
   21      -16.4330583009      -0.0000080449     0.999999    0.00071334
   22      -16.4330659173      -0.0000076164     0.999999    0.00069581
   23      -16.4330731505      -0.0000072332     0.999999    0.00067799
   24      -16.4330800376      -0.0000068870     0.999999    0.00066023
   25      -16.4330866091      -0.0000065715     0.999999    0.00064272
   26      -16.4330928911      -0.0000062820     0.999999    0.00062560
   27      -16.4330989056      -0.0000060146     0.999999    0.00060896
   28      -16.4331046720      -0.0000057664     0.999999    0.00059285
   29      -16.4331102070      -0.0000055350     0.999999    0.00057730
   30      -16.4331155255      -0.0000053185     0.999999    0.00056231
   31      -16.4331206409      -0.0000051153     1.000000    0.00054788
   32      -16.4331255649      -0.0000049240     1.000000    0.00053399
   33      -16.4331303084      -0.0000047435     1.000000    0.00052063
   34      -16.4331348811      -0.0000045728     1.000000    0.00050779
   35      -16.4331392922      -0.0000044111     1.000000    0.00049543
   36      -16.4331435498      -0.0000042576     1.000000    0.00048354
   37      -16.4331476616      -0.0000041118     1.000000    0.00047210
   38      -16.4331516346      -0.0000039730     1.000000    0.00046109
   39      -16.4331554755      -0.0000038409     1.000000    0.00045048
   40      -16.4331591904      -0.0000037149     1.000000    0.00044026
   41      -16.4331627851      -0.0000035947     1.000000    0.00043040
   42      -16.4331662649      -0.0000034798     1.000000    0.00042089
   43      -16.4331696350      -0.0000033701     1.000000    0.00041171
   44      -16.4331729001      -0.0000032651     1.000000    0.00040285
   45      -16.4331760647      -0.0000031646     1.000000    0.00039429
   46      -16.4331791331      -0.0000030684     1.000000    0.00038601
   47      -16.4331821094      -0.0000029763     1.000000    0.00037800
   48      -16.4331849973      -0.0000028879     1.000000    0.00037026
   49      -16.4331878005      -0.0000028032     1.000000    0.00036276
   50      -16.4331905224      -0.0000027219     1.000000    0.00035550
   51      -16.4331931662      -0.0000026439     1.000000    0.00034847
   52      -16.4331957352      -0.0000025689     1.000000    0.00034165
   53      -16.4331982321      -0.0000024969     1.000000    0.00033504
   54      -16.4332006598      -0.0000024277     1.000000    0.00032862
   55      -16.4332030210      -0.0000023612     1.000000    0.00032240
   56      -16.4332053182      -0.0000022972     1.000000    0.00031636
   57      -16.4332075539      -0.0000022357     1.000000    0.00031049
   58      -16.4332097303      -0.0000021764     1.000000    0.00030479
   59      -16.4332118497      -0.0000021194     1.000000    0.00029925
   60      -16.4332139142      -0.0000020645     1.000000    0.00029387
   61      -16.4332159257      -0.0000020115     1.000000    0.00028863
   62      -16.4332178862      -0.0000019605     1.000000    0.00028354
   63      -16.4332197976      -0.0000019113     1.000000    0.00027858
   64      -16.4332216615      -0.0000018639     1.000000    0.00027376
   65      -16.4332234797      -0.0000018182     1.000000    0.00026906
   66      -16.4332252537      -0.0000017740     1.000000    0.00026449
   67      -16.4332269851      -0.0000017314     1.000000    0.00026004
   68      -16.4332286755      -0.0000016903     1.000000    0.00025570
   69      -16.4332303260      -0.0000016506     1.000000    0.00025147
   70      -16.4332319383      -0.0000016122     1.000000    0.00024735
   71      -16.4332335134      -0.0000015751     1.000000    0.00024334
   72      -16.4332350527      -0.0000015393     1.000000    0.00024036
   73      -16.4332365573      -0.0000015046     1.000000    0.00023834
   74      -16.4332380284      -0.0000014711     1.000000    0.00023636
   75      -16.4332394671      -0.0000014387     1.000000    0.00023441
   76      -16.4332408744      -0.0000014073     1.000000    0.00023248
   77      -16.4332422513      -0.0000013769     1.000000    0.00023059
   78      -16.4332435989      -0.0000013476     1.000000    0.00022873
   79      -16.4332449180      -0.0000013191     1.000000    0.00022689
   80      -16.4332462095      -0.0000012915     1.000000    0.00022509
   81      -16.4332474743      -0.0000012648     1.000000    0.00022331
   82      -16.4332487132      -0.0000012389     1.000000    0.00022156
   83      -16.4332499270      -0.0000012138     1.000000    0.00021984
   84      -16.4332511165      -0.0000011895     1.000000    0.00021814
   85      -16.4332522824      -0.0000011659     1.000000    0.00021648
   86      -16.4332534254      -0.0000011430     1.000000    0.00021483
   87      -16.4332545462      -0.0000011208     1.000000    0.00021322
   88      -16.4332556455      -0.0000010993     1.000000    0.00021163
   89      -16.4332567238      -0.0000010783     1.000000    0.00021006
   90      -16.4332577818      -0.0000010580     1.000000    0.00020852
   91      -16.4332588202      -0.0000010383     1.000000    0.00020701
   92      -16.4332598393      -0.0000010192     1.000000    0.00020551
   93      -16.4332608399      -0.0000010006     1.000000    0.00020404
   94      -16.4332618224      -0.0000009825     1.000000    0.00020260
   95      -16.4332627873      -0.0000009649     1.000000    0.00020118
   96      -16.4332637351      -0.0000009478     1.000000    0.00019978
   97      -16.4332646664      -0.0000009312     1.000000    0.00019840
   98      -16.4332655815      -0.0000009151     1.000000    0.00019704
   99      -16.4332664808      -0.0000008994     1.000000    0.00019570
  100      -16.4332673649      -0.0000008841     1.000000    0.00019439
  101      -16.4332682342      -0.0000008692     1.000000    0.00019309
  102      -16.4332690889      -0.0000008548     1.000000    0.00019182
  103      -16.4332699296      -0.0000008407     1.000000    0.00019056
  104      -16.4332707566      -0.0000008270     1.000000    0.00018933
  105      -16.4332715702      -0.0000008136     1.000000    0.00018811
  106      -16.4332723708      -0.0000008006     1.000000    0.00018692
  107      -16.4332731587      -0.0000007879     1.000000    0.00018574
  108      -16.4332739344      -0.0000007756     1.000000    0.00018458
  109      -16.4332746979      -0.0000007636     1.000000    0.00018343
  110      -16.4332754498      -0.0000007519     1.000000    0.00018231
  111      -16.4332761902      -0.0000007404     1.000000    0.00018120
  112      -16.4332769195      -0.0000007293     1.000000    0.00018011
  113      -16.4332776380      -0.0000007184     1.000000    0.00017903
  114      -16.4332783458      -0.0000007078     1.000000    0.00017797
  115      -16.4332790433      -0.0000006975     1.000000    0.00017693
  116      -16.4332797308      -0.0000006874     1.000000    0.00017590
  117      -16.4332804084      -0.0000006776     1.000000    0.00017489
  118      -16.4332810764      -0.0000006680     1.000000    0.00017389
  119      -16.4332817350      -0.0000006586     1.000000    0.00017291
  120      -16.4332823845      -0.0000006495     1.000000    0.00017195
  121      -16.4332830251      -0.0000006406     1.000000    0.00017099
  122      -16.4332836570      -0.0000006319     1.000000    0.00017005
  123      -16.4332842803      -0.0000006234     1.000000    0.00016913
  124      -16.4332848954      -0.0000006150     1.000000    0.00016822
  125      -16.4332855023      -0.0000006069     1.000000    0.00016732
  126      -16.4332861013      -0.0000005990     1.000000    0.00016644
  127      -16.4332866926      -0.0000005912     1.000000    0.00016557
  128      -16.4332872762      -0.0000005837     1.000000    0.00016471
  129      -16.4332878525      -0.0000005763     1.000000    0.00016386
  130      -16.4332884215      -0.0000005690     1.000000    0.00016303
  131      -16.4332889835      -0.0000005620     1.000000    0.00016221
  132      -16.4332895385      -0.0000005550     1.000000    0.00016140
  133      -16.4332900868      -0.0000005483     1.000000    0.00016060
  134      -16.4332906284      -0.0000005417     1.000000    0.00015981
  135      -16.4332911636      -0.0000005352     1.000000    0.00015904
  136      -16.4332916924      -0.0000005288     1.000000    0.00015827
  137      -16.4332922151      -0.0000005227     1.000000    0.00015752
  138      -16.4332927317      -0.0000005166     1.000000    0.00015678
  139      -16.4332932424      -0.0000005107     1.000000    0.00015605
  140      -16.4332937472      -0.0000005049     1.000000    0.00015533
  141      -16.4332942464      -0.0000004992     1.000000    0.00015462
  142      -16.4332947400      -0.0000004936     1.000000    0.00015392
  143      -16.4332952282      -0.0000004882     1.000000    0.00015322
  144      -16.4332957110      -0.0000004828     1.000000    0.00015254
  145      -16.4332961886      -0.0000004776     1.000000    0.00015187
  146      -16.4332966611      -0.0000004725     1.000000    0.00015121
  147      -16.4332971286      -0.0000004675     1.000000    0.00015056
  148      -16.4332975912      -0.0000004626     1.000000    0.00014991
  149      -16.4332980489      -0.0000004578     1.000000    0.00014928
  150      -16.4332985020      -0.0000004531     1.000000    0.00014865
  151      -16.4332989505      -0.0000004484     1.000000    0.00014804
  152      -16.4332993944      -0.0000004439     1.000000    0.00014743
  153      -16.4332998339      -0.0000004395     1.000000    0.00014683
  154      -16.4333002690      -0.0000004351     1.000000    0.00014624
  155      -16.4333006999      -0.0000004309     1.000000    0.00014565
  156      -16.4333011266      -0.0000004267     1.000000    0.00014508
  157      -16.4333015492      -0.0000004226     1.000000    0.00014451
  158      -16.4333019678      -0.0000004186     1.000000    0.00014395
  159      -16.4333023824      -0.0000004147     1.000000    0.00014340
  160      -16.4333027932      -0.0000004108     1.000000    0.00014286
  161      -16.4333032002      -0.0000004070     1.000000    0.00014232
  162      -16.4333036035      -0.0000004033     1.000000    0.00014179
  163      -16.4333040032      -0.0000003996     1.000000    0.00014127
  164      -16.4333043992      -0.0000003961     1.000000    0.00014075
  165      -16.4333047918      -0.0000003926     1.000000    0.00014025
  166      -16.4333051809      -0.0000003891     1.000000    0.00013974
  167      -16.4333055666      -0.0000003857     1.000000    0.00013925
  168      -16.4333059490      -0.0000003824     1.000000    0.00013876
  169      -16.4333063282      -0.0000003792     1.000000    0.00013828
  170      -16.4333067041      -0.0000003760     1.000000    0.00013781
  171      -16.4333070770      -0.0000003728     1.000000    0.00013734
  172      -16.4333074467      -0.0000003697     1.000000    0.00013688
  173      -16.4333078134      -0.0000003667     1.000000    0.00013642
  174      -16.4333081772      -0.0000003638     1.000000    0.00013597
  175      -16.4333085380      -0.0000003608     1.000000    0.00013553
  176      -16.4333088960      -0.0000003580     1.000000    0.00013509
  177      -16.4333092512      -0.0000003552     1.000000    0.00013466
  178      -16.4333096036      -0.0000003524     1.000000    0.00013423
  179      -16.4333099532      -0.0000003497     1.000000    0.00013381
  180      -16.4333103002      -0.0000003470     1.000000    0.00013340
  181      -16.4333106446      -0.0000003444     1.000000    0.00013299
  182      -16.4333109865      -0.0000003418     1.000000    0.00013259
  183      -16.4333113258      -0.0000003393     1.000000    0.00013219
  184      -16.4333116626      -0.0000003368     1.000000    0.00013179
  185      -16.4333119969      -0.0000003344     1.000000    0.00013141
  186      -16.4333123289      -0.0000003320     1.000000    0.00013102
  187      -16.4333126585      -0.0000003296     1.000000    0.00013065
  188      -16.4333129858      -0.0000003273     1.000000    0.00013027
  189      -16.4333133108      -0.0000003250     1.000000    0.00012991
  190      -16.4333136336      -0.0000003228     1.000000    0.00012954
  191      -16.4333139542      -0.0000003206     1.000000    0.00012918
  192      -16.4333142726      -0.0000003184     1.000000    0.00012883
  193      -16.4333145889      -0.0000003163     1.000000    0.00012848
  194      -16.4333149031      -0.0000003142     1.000000    0.00012814
  195      -16.4333152152      -0.0000003121     1.000000    0.00012780
  196      -16.4333155253      -0.0000003101     1.000000    0.00012746
  197      -16.4333158334      -0.0000003081     1.000000    0.00012713
  198      -16.4333161396      -0.0000003062     1.000000    0.00012681
  199      -16.4333164438      -0.0000003042     1.000000    0.00012648
  200      -16.4333167461      -0.0000003023     1.000000    0.00012617
  201      -16.4333170466      -0.0000003005     1.000000    0.00012585
  202      -16.4333173452      -0.0000002986     1.000000    0.00012554
  203      -16.4333176421      -0.0000002968     1.000000    0.00012524
  204      -16.4333179371      -0.0000002951     1.000000    0.00012493
  205      -16.4333182304      -0.0000002933     1.000000    0.00012464
  206      -16.4333185220      -0.0000002916     1.000000    0.00012434
  207      -16.4333188119      -0.0000002899     1.000000    0.00012405
  208      -16.4333191002      -0.0000002882     1.000000    0.00012376
  209      -16.4333193868      -0.0000002866     1.000000    0.00012348
  210      -16.4333196718      -0.0000002850     1.000000    0.00012320
  211      -16.4333199552      -0.0000002834     1.000000    0.00012293
  212      -16.4333202370      -0.0000002818     1.000000    0.00012265
  213      -16.4333205173      -0.0000002803     1.000000    0.00012239
  214      -16.4333207961      -0.0000002788     1.000000    0.00012212
  215      -16.4333210734      -0.0000002773     1.000000    0.00012186
  216      -16.4333213493      -0.0000002758     1.000000    0.00012160
  217      -16.4333216237      -0.0000002744     1.000000    0.00012134
  218      -16.4333218966      -0.0000002730     1.000000    0.00012109
  219      -16.4333221682      -0.0000002716     1.000000    0.00012084
  220      -16.4333224384      -0.0000002702     1.000000    0.00012060
  221      -16.4333227072      -0.0000002688     1.000000    0.00012036
  222      -16.4333229747      -0.0000002675     1.000000    0.00012012
  223      -16.4333232409      -0.0000002662     1.000000    0.00011988
  224      -16.4333235058      -0.0000002649     1.000000    0.00011965
  225      -16.4333237694      -0.0000002636     1.000000    0.00011942
  226      -16.4333240318      -0.0000002623     1.000000    0.00011919
  227      -16.4333242929      -0.0000002611     1.000000    0.00011896
  228      -16.4333245527      -0.0000002599     1.000000    0.00011874
  229      -16.4333248114      -0.0000002587     1.000000    0.00011852
  230      -16.4333250689      -0.0000002575     1.000000    0.00011831
  231      -16.4333253252      -0.0000002563     1.000000    0.00011809
  232      -16.4333255804      -0.0000002552     1.000000    0.00011788
  233      -16.4333258345      -0.0000002540     1.000000    0.00011767
  234      -16.4333260874      -0.0000002529     1.000000    0.00011747
  235      -16.4333263392      -0.0000002518     1.000000    0.00011726
  236      -16.4333265899      -0.0000002507     1.000000    0.00011706
  237      -16.4333268396      -0.0000002497     1.000000    0.00011686
  238      -16.4333270882      -0.0000002486     1.000000    0.00011667
  239      -16.4333273358      -0.0000002476     1.000000    0.00011647
  240      -16.4333275823      -0.0000002465     1.000000    0.00011628
  241      -16.4333278279      -0.0000002455     1.000000    0.00011609
  242      -16.4333280724      -0.0000002445     1.000000    0.00011591
  243      -16.4333283160      -0.0000002436     1.000000    0.00011572
  244      -16.4333285585      -0.0000002426     1.000000    0.00011554
  245      -16.4333288002      -0.0000002416     1.000000    0.00011536
  246      -16.4333290409      -0.0000002407     1.000000    0.00011518
  247      -16.4333292806      -0.0000002398     1.000000    0.00011501
  248      -16.4333295195      -0.0000002388     1.000000    0.00011483
  249      -16.4333297574      -0.0000002379     1.000000    0.00011466
  250      -16.4333299945      -0.0000002370     1.000000    0.00011449
  251      -16.4333302306      -0.0000002362     1.000000    0.00011433
  252      -16.4333304659      -0.0000002353     1.000000    0.00011416
  253      -16.4333307004      -0.0000002344     1.000000    0.00011400
  254      -16.4333309340      -0.0000002336     1.000000    0.00011384
  255      -16.4333311667      -0.0000002328     1.000000    0.00011368
  256      -16.4333313987      -0.0000002319     1.000000    0.00011352
  257      -16.4333316298      -0.0000002311     1.000000    0.00011336
  258      -16.4333318602      -0.0000002303     1.000000    0.00011321
  259      -16.4333320897      -0.0000002295     1.000000    0.00011305
  260      -16.4333323185      -0.0000002288     1.000000    0.00011290
  261      -16.4333325465      -0.0000002280     1.000000    0.00011275
  262      -16.4333327737      -0.0000002272     1.000000    0.00011261
  263      -16.4333330002      -0.0000002265     1.000000    0.00011246
  264      -16.4333332260      -0.0000002258     1.000000    0.00011232
  265      -16.4333334510      -0.0000002250     1.000000    0.00011217
  266      -16.4333336753      -0.0000002243     1.000000    0.00011203
  267      -16.4333338989      -0.0000002236     1.000000    0.00011189
  268      -16.4333341218      -0.0000002229     1.000000    0.00011176
  269      -16.4333343439      -0.0000002222     1.000000    0.00011162
  270      -16.4333345654      -0.0000002215     1.000000    0.00011148
  271      -16.4333347863      -0.0000002208     1.000000    0.00011135
  272      -16.4333350064      -0.0000002202     1.000000    0.00011122
  273      -16.4333352259      -0.0000002195     1.000000    0.00011109
  274      -16.4333354447      -0.0000002188     1.000000    0.00011096
  275      -16.4333356629      -0.0000002182     1.000000    0.00011083
  276      -16.4333358805      -0.0000002176     1.000000    0.00011070
  277      -16.4333360974      -0.0000002169     1.000000    0.00011058
  278      -16.4333363137      -0.0000002163     1.000000    0.00011045
  279      -16.4333365294      -0.0000002157     1.000000    0.00011033
  280      -16.4333367445      -0.0000002151     1.000000    0.00011021
  281      -16.4333369590      -0.0000002145     1.000000    0.00011008
  282      -16.4333371728      -0.0000002139     1.000000    0.00010997
  283      -16.4333373861      -0.0000002133     1.000000    0.00010985
  284      -16.4333375988      -0.0000002127     1.000000    0.00010973
  285      -16.4333378110      -0.0000002121     1.000000    0.00010961
  286      -16.4333380226      -0.0000002116     1.000000    0.00010950
  287      -16.4333382336      -0.0000002110     1.000000    0.00010938
  288      -16.4333384440      -0.0000002104     1.000000    0.00010927
  289      -16.4333386539      -0.0000002099     1.000000    0.00010916
  290      -16.4333388632      -0.0000002094     1.000000    0.00010905
  291      -16.4333390721      -0.0000002088     1.000000    0.00010894
  292      -16.4333392803      -0.0000002083     1.000000    0.00010883
  293      -16.4333394881      -0.0000002077     1.000000    0.00010872
  294      -16.4333396953      -0.0000002072     1.000000    0.00010861
  295      -16.4333399020      -0.0000002067     1.000000    0.00010850
  296      -16.4333401082      -0.0000002062     1.000000    0.00010840
  297      -16.4333403139      -0.0000002057     1.000000    0.00010829
  298      -16.4333405191      -0.0000002052     1.000000    0.00010819
  299      -16.4333407238      -0.0000002047     1.000000    0.00010808
  300      -16.4333409280      -0.0000002042     1.000000    0.00010798
  301      -16.4333411317      -0.0000002037     1.000000    0.00010788
  302      -16.4333413349      -0.0000002032     1.000000    0.00010778
  303      -16.4333415376      -0.0000002027     1.000000    0.00010767
  304      -16.4333417399      -0.0000002023     1.000000    0.00010757
  305      -16.4333419417      -0.0000002018     1.000000    0.00010747
  306      -16.4333421430      -0.0000002013     1.000000    0.00010738
  307      -16.4333423439      -0.0000002009     1.000000    0.00010728
  308      -16.4333425443      -0.0000002004     1.000000    0.00010718
  309      -16.4333427442      -0.0000001999     1.000000    0.00010708
  310      -16.4333429437      -0.0000001995     1.000000    0.00010699
  311      -16.4333431428      -0.0000001990     1.000000    0.00010689
  312      -16.4333433414      -0.0000001986     1.000000    0.00010679
  313      -16.4333435395      -0.0000001982     1.000000    0.00010670
  314      -16.4333437372      -0.0000001977     1.000000    0.00010660
  315      -16.4333439345      -0.0000001973     1.000000    0.00010651
  316      -16.4333441314      -0.0000001969     1.000000    0.00010641
  317      -16.4333443278      -0.0000001964     1.000000    0.00010632
  318      -16.4333445238      -0.0000001960     1.000000    0.00010623
  319      -16.4333447194      -0.0000001956     1.000000    0.00010613
  320      -16.4333449145      -0.0000001952     1.000000    0.00010604
  321      -16.4333451093      -0.0000001947     1.000000    0.00010595
  322      -16.4333453036      -0.0000001943     1.000000    0.00010586
  323      -16.4333454975      -0.0000001939     1.000000    0.00010577
  324      -16.4333456910      -0.0000001935     1.000000    0.00010567
  325      -16.4333458841      -0.0000001931     1.000000    0.00010558
  326      -16.4333460768      -0.0000001927     1.000000    0.00010549
  327      -16.4333462690      -0.0000001923     1.000000    0.00010540
  328      -16.4333464609      -0.0000001919     1.000000    0.00010531
  329      -16.4333466524      -0.0000001915     1.000000    0.00010522
  330      -16.4333468435      -0.0000001911     1.000000    0.00010513
  331      -16.4333470342      -0.0000001907     1.000000    0.00010504
  332      -16.4333472245      -0.0000001903     1.000000    0.00010495
  333      -16.4333474144      -0.0000001899     1.000000    0.00010486
  334      -16.4333476039      -0.0000001895     1.000000    0.00010477
  335      -16.4333477930      -0.0000001891     1.000000    0.00010468
  336      -16.4333479817      -0.0000001887     1.000000    0.00010459
  337      -16.4333481701      -0.0000001884     1.000000    0.00010450
  338      -16.4333483581      -0.0000001880     1.000000    0.00010441
  339      -16.4333485456      -0.0000001876     1.000000    0.00010432
  340      -16.4333487329      -0.0000001872     1.000000    0.00010423
  341      -16.4333489197      -0.0000001868     1.000000    0.00010414
  342      -16.4333491061      -0.0000001864     1.000000    0.00010405
  343      -16.4333492922      -0.0000001861     1.000000    0.00010396
  344      -16.4333494779      -0.0000001857     1.000000    0.00010387
  345      -16.4333496632      -0.0000001853     1.000000    0.00010378
  346      -16.4333498481      -0.0000001849     1.000000    0.00010369
  347      -16.4333500327      -0.0000001846     1.000000    0.00010360
  348      -16.4333502169      -0.0000001842     1.000000    0.00010351
  349      -16.4333504007      -0.0000001838     1.000000    0.00010342
  350      -16.4333505842      -0.0000001834     1.000000    0.00010333
  351      -16.4333507672      -0.0000001831     1.000000    0.00010324
  352      -16.4333509499      -0.0000001827     1.000000    0.00010315
  353      -16.4333511323      -0.0000001823     1.000000    0.00010306
  354      -16.4333513142      -0.0000001820     1.000000    0.00010296
  355      -16.4333514958      -0.0000001816     1.000000    0.00010287
  356      -16.4333516770      -0.0000001812     1.000000    0.00010278
  357      -16.4333518579      -0.0000001808     1.000000    0.00010269
  358      -16.4333520384      -0.0000001805     1.000000    0.00010259
  359      -16.4333522185      -0.0000001801     1.000000    0.00010250
  360      -16.4333523982      -0.0000001797     1.000000    0.00010241
  361      -16.4333525776      -0.0000001794     1.000000    0.00010231
  362      -16.4333527566      -0.0000001790     1.000000    0.00010222
  363      -16.4333529352      -0.0000001786     1.000000    0.00010212
  364      -16.4333531135      -0.0000001783     1.000000    0.00010203
  365      -16.4333532913      -0.0000001779     1.000000    0.00010193
  366      -16.4333534689      -0.0000001775     1.000000    0.00010184
  367      -16.4333536460      -0.0000001771     1.000000    0.00010174
  368      -16.4333538228      -0.0000001768     1.000000    0.00010164
  369      -16.4333539992      -0.0000001764     1.000000    0.00010155
  370      -16.4333541752      -0.0000001760     1.000000    0.00010145
  371      -16.4333543509      -0.0000001757     1.000000    0.00010135
  372      -16.4333545262      -0.0000001753     1.000000    0.00010125
  373      -16.4333547011      -0.0000001749     1.000000    0.00010115
  374      -16.4333548756      -0.0000001745     1.000000    0.00010105
  375      -16.4333550498      -0.0000001742     1.000000    0.00010095
  376      -16.4333552235      -0.0000001738     1.000000    0.00010085
  377      -16.4333553969      -0.0000001734     1.000000    0.00010075
  378      -16.4333555700      -0.0000001730     1.000000    0.00010064
  379      -16.4333557426      -0.0000001726     1.000000    0.00010054
  380      -16.4333559149      -0.0000001723     1.000000    0.00010044
  381      -16.4333560868      -0.0000001719     1.000000    0.00010033
  382      -16.4333562583      -0.0000001715     1.000000    0.00010023
  383      -16.4333564294      -0.0000001711     1.000000    0.00010012
  384      -16.4333566001      -0.0000001707     1.000000    0.00010002
  385      -16.4333567704      -0.0000001703     1.000000    0.00009991
  386      -16.4333569404      -0.0000001700     1.000000    0.00009980
  387      -16.4333571100      -0.0000001696     1.000000    0.00009969
  388      -16.4333572792      -0.0000001692     1.000000    0.00009958
  389      -16.4333574480      -0.0000001688     1.000000    0.00009947
  390      -16.4333576164      -0.0000001684     1.000000    0.00009936
  391      -16.4333577844      -0.0000001680     1.000000    0.00009925
  392      -16.4333579520      -0.0000001676     1.000000    0.00009914
  393      -16.4333581192      -0.0000001672     1.000000    0.00009903
  394      -16.4333582860      -0.0000001668     1.000000    0.00009891
  395      -16.4333584524      -0.0000001664     1.000000    0.00009880
  396      -16.4333586184      -0.0000001660     1.000000    0.00009868
  397      -16.4333587840      -0.0000001656     1.000000    0.00009857
  398      -16.4333589492      -0.0000001652     1.000000    0.00009845
  399      -16.4333591140      -0.0000001648     1.000000    0.00009833
  400      -16.4333592784      -0.0000001644     1.000000    0.00009821
  401      -16.4333594424      -0.0000001640     1.000000    0.00009809
  402      -16.4333596060      -0.0000001636     1.000000    0.00009797
  403      -16.4333597692      -0.0000001632     1.000000    0.00009785
  404      -16.4333599319      -0.0000001627     1.000000    0.00009773
  405      -16.4333600942      -0.0000001623     1.000000    0.00009761
  406      -16.4333602561      -0.0000001619     1.000000    0.00009748
  407      -16.4333604176      -0.0000001615     1.000000    0.00009736
  408      -16.4333605787      -0.0000001611     1.000000    0.00009723
  409      -16.4333607393      -0.0000001606     1.000000    0.00009711
  410      -16.4333608995      -0.0000001602     1.000000    0.00009698
  411      -16.4333610593      -0.0000001598     1.000000    0.00009685
  412      -16.4333612187      -0.0000001594     1.000000    0.00009672
  413      -16.4333613776      -0.0000001589     1.000000    0.00009659
  414      -16.4333615361      -0.0000001585     1.000000    0.00009646
  415      -16.4333616942      -0.0000001581     1.000000    0.00009632
  416      -16.4333618518      -0.0000001576     1.000000    0.00009619
  417      -16.4333620090      -0.0000001572     1.000000    0.00009606
  418      -16.4333621657      -0.0000001567     1.000000    0.00009592
  419      -16.4333623220      -0.0000001563     1.000000    0.00009578
  420      -16.4333624778      -0.0000001558     1.000000    0.00009565
  421      -16.4333626332      -0.0000001554     1.000000    0.00009551
  422      -16.4333627882      -0.0000001549     1.000000    0.00009537
  423      -16.4333629427      -0.0000001545     1.000000    0.00009523
  424      -16.4333630967      -0.0000001540     1.000000    0.00009509
  425      -16.4333632503      -0.0000001536     1.000000    0.00009494
  426      -16.4333634034      -0.0000001531     1.000000    0.00009480
  427      -16.4333635561      -0.0000001527     1.000000    0.00009465
  428      -16.4333637083      -0.0000001522     1.000000    0.00009451
  429      -16.4333638600      -0.0000001517     1.000000    0.00009436
  430      -16.4333640113      -0.0000001513     1.000000    0.00009421
  431      -16.4333641621      -0.0000001508     1.000000    0.00009406
  432      -16.4333643124      -0.0000001503     1.000000    0.00009391
  433      -16.4333644622      -0.0000001498     1.000000    0.00009376
  434      -16.4333646116      -0.0000001494     1.000000    0.00009361
  435      -16.4333647605      -0.0000001489     1.000000    0.00009346
  436      -16.4333649089      -0.0000001484     1.000000    0.00009330
  437      -16.4333650568      -0.0000001479     1.000000    0.00009315
  438      -16.4333652043      -0.0000001474     1.000000    0.00009299
  439      -16.4333653512      -0.0000001469     1.000000    0.00009283
  440      -16.4333654977      -0.0000001465     1.000000    0.00009267
  441      -16.4333656436      -0.0000001460     1.000000    0.00009251
  442      -16.4333657891      -0.0000001455     1.000000    0.00009235
  443      -16.4333659341      -0.0000001450     1.000000    0.00009219
  444      -16.4333660786      -0.0000001445     1.000000    0.00009202
  445      -16.4333662225      -0.0000001440     1.000000    0.00009186
  446      -16.4333663660      -0.0000001435     1.000000    0.00009169
  447      -16.4333665090      -0.0000001430     1.000000    0.00009153
  448      -16.4333666514      -0.0000001425     1.000000    0.00009136
  449      -16.4333667934      -0.0000001419     1.000000    0.00009119
  450      -16.4333669348      -0.0000001414     1.000000    0.00009102
  451      -16.4333670757      -0.0000001409     1.000000    0.00009085
  452      -16.4333672161      -0.0000001404     1.000000    0.00009067
  453      -16.4333673560      -0.0000001399     1.000000    0.00009050
  454      -16.4333674953      -0.0000001394     1.000000    0.00009033
  455      -16.4333676342      -0.0000001388     1.000000    0.00009015
  456      -16.4333677725      -0.0000001383     1.000000    0.00008997
  457      -16.4333679103      -0.0000001378     1.000000    0.00008979
  458      -16.4333680475      -0.0000001373     1.000000    0.00008962
  459      -16.4333681842      -0.0000001367     1.000000    0.00008944
  460      -16.4333683204      -0.0000001362     1.000000    0.00008925
  461      -16.4333684561      -0.0000001357     1.000000    0.00008907
  462      -16.4333685912      -0.0000001351     1.000000    0.00008889
  463      -16.4333687258      -0.0000001346     1.000000    0.00008870
  464      -16.4333688598      -0.0000001340     1.000000    0.00008852
  465      -16.4333689933      -0.0000001335     1.000000    0.00008833
  466      -16.4333691262      -0.0000001329     1.000000    0.00008814
  467      -16.4333692586      -0.0000001324     1.000000    0.00008795
  468      -16.4333693904      -0.0000001318     1.000000    0.00008776
  469      -16.4333695217      -0.0000001313     1.000000    0.00008757
  470      -16.4333696525      -0.0000001307     1.000000    0.00008738
  471      -16.4333697827      -0.0000001302     1.000000    0.00008718
  472      -16.4333699123      -0.0000001296     1.000000    0.00008699
  473      -16.4333700414      -0.0000001291     1.000000    0.00008679
  474      -16.4333701699      -0.0000001285     1.000000    0.00008659
  475      -16.4333702978      -0.0000001279     1.000000    0.00008640
  476      -16.4333704252      -0.0000001274     1.000000    0.00008620
  477      -16.4333705520      -0.0000001268     1.000000    0.00008600
  478      -16.4333706782      -0.0000001262     1.000000    0.00008579
  479      -16.4333708039      -0.0000001257     1.000000    0.00008559
  480      -16.4333709290      -0.0000001251     1.000000    0.00008539
  481      -16.4333710536      -0.0000001245     1.000000    0.00008518
  482      -16.4333711775      -0.0000001240     1.000000    0.00008498
  483      -16.4333713009      -0.0000001234     1.000000    0.00008477
  484      -16.4333714237      -0.0000001228     1.000000    0.00008456
  485      -16.4333715459      -0.0000001222     1.000000    0.00008435
  486      -16.4333716676      -0.0000001216     1.000000    0.00008414
  487      -16.4333717887      -0.0000001211     1.000000    0.00008393
  488      -16.4333719091      -0.0000001205     1.000000    0.00008372
  489      -16.4333720290      -0.0000001199     1.000000    0.00008351
  490      -16.4333721484      -0.0000001193     1.000000    0.00008329
  491      -16.4333722671      -0.0000001187     1.000000    0.00008308
  492      -16.4333723852      -0.0000001181     1.000000    0.00008286
  493      -16.4333725028      -0.0000001176     1.000000    0.00008265
  494      -16.4333726197      -0.0000001170     1.000000    0.00008243
  495      -16.4333727361      -0.0000001164     1.000000    0.00008221
  496      -16.4333728519      -0.0000001158     1.000000    0.00008199
  497      -16.4333729671      -0.0000001152     1.000000    0.00008177
  498      -16.4333730817      -0.0000001146     1.000000    0.00008155
  499      -16.4333731957      -0.0000001140     1.000000    0.00008133
  500      -16.4333733091      -0.0000001134     1.000000    0.00008110
  501      -16.4333734219      -0.0000001128     1.000000    0.00008088
  502      -16.4333735341      -0.0000001122     1.000000    0.00008065
  503      -16.4333736457      -0.0000001116     1.000000    0.00008043
  504      -16.4333737567      -0.0000001110     1.000000    0.00008020
  505      -16.4333738671      -0.0000001104     1.000000    0.00007997
  506      -16.4333739769      -0.0000001098     1.000000    0.00007974
  507      -16.4333740861      -0.0000001092     1.000000    0.00007951
  508      -16.4333741947      -0.0000001086     1.000000    0.00007928
  509      -16.4333743027      -0.0000001080     1.000000    0.00007905
  510      -16.4333744101      -0.0000001074     1.000000    0.00007882
  511      -16.4333745169      -0.0000001068     1.000000    0.00007858
  512      -16.4333746230      -0.0000001062     1.000000    0.00007835
  513      -16.4333747286      -0.0000001056     1.000000    0.00007811
  514      -16.4333748336      -0.0000001050     1.000000    0.00007788
  515      -16.4333749379      -0.0000001044     1.000000    0.00007764
  516      -16.4333750417      -0.0000001038     1.000000    0.00007740
  517      -16.4333751449      -0.0000001032     1.000000    0.00007717
  518      -16.4333752474      -0.0000001025     1.000000    0.00007693
  519      -16.4333753493      -0.0000001019     1.000000    0.00007669
  520      -16.4333754507      -0.0000001013     1.000000    0.00007645
  521      -16.4333755514      -0.0000001007     1.000000    0.00007621
  522      -16.4333756515      -0.0000001001     1.000000    0.00007596
  523      -16.4333757510      -0.0000000995     1.000000    0.00007572
  524      -16.4333758499      -0.0000000989     1.000000    0.00007548
  525      -16.4333759482      -0.0000000983     1.000000    0.00007524
  526      -16.4333760459      -0.0000000977     1.000000    0.00007499
  527      -16.4333761430      -0.0000000971     1.000000    0.00007475
  528      -16.4333762395      -0.0000000965     1.000000    0.00007450
  529      -16.4333763353      -0.0000000959     1.000000    0.00007425
  530      -16.4333764306      -0.0000000953     1.000000    0.00007401
  531      -16.4333765252      -0.0000000947     1.000000    0.00007376
  532      -16.4333766193      -0.0000000940     1.000000    0.00007351
  533      -16.4333767127      -0.0000000934     1.000000    0.00007326
  534      -16.4333768056      -0.0000000928     1.000000    0.00007301
  535      -16.4333768978      -0.0000000922     1.000000    0.00007276
  536      -16.4333769894      -0.0000000916     1.000000    0.00007251
  537      -16.4333770804      -0.0000000910     1.000000    0.00007226
  538      -16.4333771709      -0.0000000904     1.000000    0.00007201
  539      -16.4333772607      -0.0000000898     1.000000    0.00007176
  540      -16.4333773499      -0.0000000892     1.000000    0.00007150
  541      -16.4333774385      -0.0000000886     1.000000    0.00007125
  542      -16.4333775265      -0.0000000880     1.000000    0.00007100
  543      -16.4333776139      -0.0000000874     1.000000    0.00007074
  544      -16.4333777007      -0.0000000868     1.000000    0.00007049
  545      -16.4333777870      -0.0000000862     1.000000    0.00007023
  546      -16.4333778726      -0.0000000856     1.000000    0.00006998
  547      -16.4333779576      -0.0000000850     1.000000    0.00006972
  548      -16.4333780420      -0.0000000844     1.000000    0.00006946
  549      -16.4333781259      -0.0000000838     1.000000    0.00006921
  550      -16.4333782091      -0.0000000832     1.000000    0.00006895
  551      -16.4333782918      -0.0000000826     1.000000    0.00006869
  552      -16.4333783738      -0.0000000821     1.000000    0.00006843
  553      -16.4333784553      -0.0000000815     1.000000    0.00006818
  554      -16.4333785362      -0.0000000809     1.000000    0.00006792
  555      -16.4333786165      -0.0000000803     1.000000    0.00006766
  556      -16.4333786962      -0.0000000797     1.000000    0.00006740
  557      -16.4333787753      -0.0000000791     1.000000    0.00006714
  558      -16.4333788538      -0.0000000785     1.000000    0.00006688
  559      -16.4333789318      -0.0000000780     1.000000    0.00006662
  560      -16.4333790092      -0.0000000774     1.000000    0.00006636
  561      -16.4333790860      -0.0000000768     1.000000    0.00006610
  562      -16.4333791622      -0.0000000762     1.000000    0.00006584
  563      -16.4333792378      -0.0000000756     1.000000    0.00006558
  564      -16.4333793129      -0.0000000751     1.000000    0.00006532
  565      -16.4333793874      -0.0000000745     1.000000    0.00006505
  566      -16.4333794613      -0.0000000739     1.000000    0.00006479
  567      -16.4333795347      -0.0000000734     1.000000    0.00006453
  568      -16.4333796075      -0.0000000728     1.000000    0.00006427
  569      -16.4333796797      -0.0000000722     1.000000    0.00006401
  570      -16.4333797513      -0.0000000717     1.000000    0.00006374
  571      -16.4333798224      -0.0000000711     1.000000    0.00006348
  572      -16.4333798930      -0.0000000705     1.000000    0.00006322
  573      -16.4333799629      -0.0000000700     1.000000    0.00006296
  574      -16.4333800323      -0.0000000694     1.000000    0.00006269
  575      -16.4333801012      -0.0000000689     1.000000    0.00006243
  576      -16.4333801695      -0.0000000683     1.000000    0.00006217
  577      -16.4333802373      -0.0000000678     1.000000    0.00006191
  578      -16.4333803045      -0.0000000672     1.000000    0.00006164
  579      -16.4333803711      -0.0000000667     1.000000    0.00006138
  580      -16.4333804372      -0.0000000661     1.000000    0.00006112
  581      -16.4333805028      -0.0000000656     1.000000    0.00006085
  582      -16.4333805678      -0.0000000650     1.000000    0.00006059
  583      -16.4333806323      -0.0000000645     1.000000    0.00006033
  584      -16.4333806963      -0.0000000640     1.000000    0.00006007
  585      -16.4333807597      -0.0000000634     1.000000    0.00005980
  586      -16.4333808226      -0.0000000629     1.000000    0.00005954
  587      -16.4333808849      -0.0000000624     1.000000    0.00005928
  588      -16.4333809468      -0.0000000618     1.000000    0.00005902
  589      -16.4333810081      -0.0000000613     1.000000    0.00005875
  590      -16.4333810689      -0.0000000608     1.000000    0.00005849
  591      -16.4333811291      -0.0000000603     1.000000    0.00005823
  592      -16.4333811888      -0.0000000597     1.000000    0.00005797
  593      -16.4333812481      -0.0000000592     1.000000    0.00005770
  594      -16.4333813068      -0.0000000587     1.000000    0.00005744
  595      -16.4333813650      -0.0000000582     1.000000    0.00005718
  596      -16.4333814227      -0.0000000577     1.000000    0.00005692
  597      -16.4333814798      -0.0000000572     1.000000    0.00005666
  598      -16.4333815365      -0.0000000567     1.000000    0.00005640
  599      -16.4333815927      -0.0000000562     1.000000    0.00005614
  600      -16.4333816484      -0.0000000557     1.000000    0.00005588
  601      -16.4333817035      -0.0000000552     1.000000    0.00005562
  602      -16.4333817582      -0.0000000547     1.000000    0.00005536
  603      -16.4333818124      -0.0000000542     1.000000    0.00005510
  604      -16.4333818661      -0.0000000537     1.000000    0.00005484
  605      -16.4333819193      -0.0000000532     1.000000    0.00005458
  606      -16.4333819720      -0.0000000527     1.000000    0.00005432
  607      -16.4333820243      -0.0000000522     1.000000    0.00005406
  608      -16.4333820761      -0.0000000518     1.000000    0.00005380
  609      -16.4333821274      -0.0000000513     1.000000    0.00005354
  610      -16.4333821782      -0.0000000508     1.000000    0.00005329
  611      -16.4333822285      -0.0000000503     1.000000    0.00005303
  612      -16.4333822784      -0.0000000499     1.000000    0.00005277
  613      -16.4333823278      -0.0000000494     1.000000    0.00005251
  614      -16.4333823768      -0.0000000490     1.000000    0.00005226
  615      -16.4333824253      -0.0000000485     1.000000    0.00005200
  616      -16.4333824733      -0.0000000480     1.000000    0.00005175
  617      -16.4333825209      -0.0000000476     1.000000    0.00005149
  618      -16.4333825680      -0.0000000471     1.000000    0.00005124
  619      -16.4333826147      -0.0000000467     1.000000    0.00005098
  620      -16.4333826609      -0.0000000462     1.000000    0.00005073
  621      -16.4333827067      -0.0000000458     1.000000    0.00005048
  622      -16.4333827520      -0.0000000453     1.000000    0.00005022
  623      -16.4333827969      -0.0000000449     1.000000    0.00004997
  624      -16.4333828414      -0.0000000445     1.000000    0.00004972
  625      -16.4333828854      -0.0000000440     1.000000    0.00004947
  626      -16.4333829291      -0.0000000436     1.000000    0.00004922
  627      -16.4333829722      -0.0000000432     1.000000    0.00004896
  628      -16.4333830150      -0.0000000428     1.000000    0.00004871
  629      -16.4333830573      -0.0000000423     1.000000    0.00004847
  630      -16.4333830992      -0.0000000419     1.000000    0.00004822
  631      -16.4333831407      -0.0000000415     1.000000    0.00004797
  632      -16.4333831818      -0.0000000411     1.000000    0.00004772
  633      -16.4333832225      -0.0000000407     1.000000    0.00004747
  634      -16.4333832628      -0.0000000403     1.000000    0.00004723
  635      -16.4333833026      -0.0000000399     1.000000    0.00004698
  636      -16.4333833421      -0.0000000395     1.000000    0.00004673
  637      -16.4333833812      -0.0000000391     1.000000    0.00004649
  638      -16.4333834198      -0.0000000387     1.000000    0.00004624
  639      -16.4333834581      -0.0000000383     1.000000    0.00004600
  640      -16.4333834960      -0.0000000379     1.000000    0.00004576
  641      -16.4333835335      -0.0000000375     1.000000    0.00004551
  642      -16.4333835706      -0.0000000371     1.000000    0.00004527
  643      -16.4333836073      -0.0000000367     1.000000    0.00004503
  644      -16.4333836437      -0.0000000363     1.000000    0.00004479
  645      -16.4333836796      -0.0000000360     1.000000    0.00004455
  646      -16.4333837152      -0.0000000356     1.000000    0.00004431
  647      -16.4333837505      -0.0000000352     1.000000    0.00004407
  648      -16.4333837853      -0.0000000349     1.000000    0.00004383
  649      -16.4333838198      -0.0000000345     1.000000    0.00004359
  650      -16.4333838540      -0.0000000341     1.000000    0.00004335
  651      -16.4333838877      -0.0000000338     1.000000    0.00004312
  652      -16.4333839212      -0.0000000334     1.000000    0.00004288
  653      -16.4333839542      -0.0000000331     1.000000    0.00004265
  654      -16.4333839869      -0.0000000327     1.000000    0.00004241
  655      -16.4333840193      -0.0000000324     1.000000    0.00004218
  656      -16.4333840513      -0.0000000320     1.000000    0.00004195
  657      -16.4333840830      -0.0000000317     1.000000    0.00004171
  658      -16.4333841143      -0.0000000313     1.000000    0.00004148
  659      -16.4333841453      -0.0000000310     1.000000    0.00004125
  660      -16.4333841760      -0.0000000307     1.000000    0.00004102
  661      -16.4333842063      -0.0000000303     1.000000    0.00004079
  662      -16.4333842363      -0.0000000300     1.000000    0.00004056
  663      -16.4333842660      -0.0000000297     1.000000    0.00004033
  664      -16.4333842953      -0.0000000294     1.000000    0.00004011
  665      -16.4333843244      -0.0000000290     1.000000    0.00003988
  666      -16.4333843531      -0.0000000287     1.000000    0.00003965
  667      -16.4333843815      -0.0000000284     1.000000    0.00003943
  668      -16.4333844096      -0.0000000281     1.000000    0.00003920
  669      -16.4333844373      -0.0000000278     1.000000    0.00003898
  670      -16.4333844648      -0.0000000275     1.000000    0.00003876
  671      -16.4333844920      -0.0000000272     1.000000    0.00003854
  672      -16.4333845188      -0.0000000269     1.000000    0.00003831
  673      -16.4333845454      -0.0000000266     1.000000    0.00003809
  674      -16.4333845716      -0.0000000263     1.000000    0.00003787
  675      -16.4333845976      -0.0000000260     1.000000    0.00003766
  676      -16.4333846233      -0.0000000257     1.000000    0.00003744
  677      -16.4333846487      -0.0000000254     1.000000    0.00003722
  678      -16.4333846738      -0.0000000251     1.000000    0.00003700
  679      -16.4333846986      -0.0000000248     1.000000    0.00003679
  680      -16.4333847231      -0.0000000245     1.000000    0.00003657
  681      -16.4333847474      -0.0000000243     1.000000    0.00003636
  682      -16.4333847714      -0.0000000240     1.000000    0.00003615
  683      -16.4333847951      -0.0000000237     1.000000    0.00003593
  684      -16.4333848185      -0.0000000234     1.000000    0.00003572
  685      -16.4333848417      -0.0000000232     1.000000    0.00003551
  686      -16.4333848646      -0.0000000229     1.000000    0.00003530
  687      -16.4333848872      -0.0000000226     1.000000    0.00003509
  688      -16.4333849096      -0.0000000224     1.000000    0.00003488
  689      -16.4333849317      -0.0000000221     1.000000    0.00003467
  690      -16.4333849536      -0.0000000219     1.000000    0.00003447
  691      -16.4333849752      -0.0000000216     1.000000    0.00003426
  692      -16.4333849965      -0.0000000214     1.000000    0.00003406
  693      -16.4333850176      -0.0000000211     1.000000    0.00003385
  694      -16.4333850385      -0.0000000209     1.000000    0.00003365
  695      -16.4333850591      -0.0000000206     1.000000    0.00003345
  696      -16.4333850795      -0.0000000204     1.000000    0.00003324
  697      -16.4333850996      -0.0000000201     1.000000    0.00003304
  698      -16.4333851195      -0.0000000199     1.000000    0.00003284
  699      -16.4333851392      -0.0000000197     1.000000    0.00003264
  700      -16.4333851586      -0.0000000194     1.000000    0.00003244
  701      -16.4333851778      -0.0000000192     1.000000    0.00003225
  702      -16.4333851968      -0.0000000190     1.000000    0.00003205
  703      -16.4333852155      -0.0000000187     1.000000    0.00003185
  704      -16.4333852341      -0.0000000185     1.000000    0.00003166
  705      -16.4333852524      -0.0000000183     1.000000    0.00003146
  706      -16.4333852704      -0.0000000181     1.000000    0.00003127
  707      -16.4333852883      -0.0000000179     1.000000    0.00003108
  708      -16.4333853059      -0.0000000177     1.000000    0.00003089
  709      -16.4333853234      -0.0000000174     1.000000    0.00003070
  710      -16.4333853406      -0.0000000172     1.000000    0.00003051
  711      -16.4333853576      -0.0000000170     1.000000    0.00003032
  712      -16.4333853744      -0.0000000168     1.000000    0.00003013
  713      -16.4333853911      -0.0000000166     1.000000    0.00002994
  714      -16.4333854075      -0.0000000164     1.000000    0.00002975
  715      -16.4333854237      -0.0000000162     1.000000    0.00002957
  716      -16.4333854397      -0.0000000160     1.000000    0.00002938
  717      -16.4333854555      -0.0000000158     1.000000    0.00002920
  718      -16.4333854711      -0.0000000156     1.000000    0.00002902
  719      -16.4333854866      -0.0000000154     1.000000    0.00002883
  720      -16.4333855018      -0.0000000152     1.000000    0.00002865
  721      -16.4333855168      -0.0000000151     1.000000    0.00002847
  722      -16.4333855317      -0.0000000149     1.000000    0.00002829
  723      -16.4333855464      -0.0000000147     1.000000    0.00002811
  724      -16.4333855609      -0.0000000145     1.000000    0.00002794
  725      -16.4333855752      -0.0000000143     1.000000    0.00002776
  726      -16.4333855894      -0.0000000141     1.000000    0.00002758
  727      -16.4333856033      -0.0000000140     1.000000    0.00002741
  728      -16.4333856171      -0.0000000138     1.000000    0.00002723
  729      -16.4333856308      -0.0000000136     1.000000    0.00002706
  730      -16.4333856442      -0.0000000135     1.000000    0.00002688
  731      -16.4333856575      -0.0000000133     1.000000    0.00002671
  732      -16.4333856706      -0.0000000131     1.000000    0.00002654
  733      -16.4333856836      -0.0000000130     1.000000    0.00002637
  734      -16.4333856964      -0.0000000128     1.000000    0.00002620
  735      -16.4333857090      -0.0000000126     1.000000    0.00002603
  736      -16.4333857215      -0.0000000125     1.000000    0.00002587
  737      -16.4333857338      -0.0000000123     1.000000    0.00002570
  738      -16.4333857460      -0.0000000122     1.000000    0.00002553
  739      -16.4333857580      -0.0000000120     1.000000    0.00002537
  740      -16.4333857698      -0.0000000119     1.000000    0.00002520
  741      -16.4333857815      -0.0000000117     1.000000    0.00002504
  742      -16.4333857931      -0.0000000116     1.000000    0.00002488
  743      -16.4333858045      -0.0000000114     1.000000    0.00002471
  744      -16.4333858157      -0.0000000113     1.000000    0.00002455
  745      -16.4333858269      -0.0000000111     1.000000    0.00002439
  746      -16.4333858378      -0.0000000110     1.000000    0.00002423
  747      -16.4333858487      -0.0000000108     1.000000    0.00002408
  748      -16.4333858594      -0.0000000107     1.000000    0.00002392
  749      -16.4333858699      -0.0000000106     1.000000    0.00002376
  750      -16.4333858804      -0.0000000104     1.000000    0.00002360
  751      -16.4333858907      -0.0000000103     1.000000    0.00002345
  752      -16.4333859008      -0.0000000102     1.000000    0.00002329
  753      -16.4333859108      -0.0000000100     1.000000    0.00002314
  754      -16.4333859207      -0.0000000099     1.000000    0.00002299
  755      -16.4333859305      -0.0000000098     1.000000    0.00002284
  756      -16.4333859401      -0.0000000096     1.000000    0.00002269
  757      -16.4333859497      -0.0000000095     1.000000    0.00002254
  758      -16.4333859591      -0.0000000094     1.000000    0.00002239
  759      -16.4333859683      -0.0000000093     1.000000    0.00002224
  760      -16.4333859775      -0.0000000092     1.000000    0.00002209
  761      -16.4333859865      -0.0000000090     1.000000    0.00002194
  762      -16.4333859954      -0.0000000089     1.000000    0.00002180
  763      -16.4333860042      -0.0000000088     1.000000    0.00002165
  764      -16.4333860129      -0.0000000087     1.000000    0.00002151
  765      -16.4333860215      -0.0000000086     1.000000    0.00002136
  766      -16.4333860299      -0.0000000085     1.000000    0.00002122
  767      -16.4333860383      -0.0000000083     1.000000    0.00002108
  768      -16.4333860465      -0.0000000082     1.000000    0.00002094
  769      -16.4333860546      -0.0000000081     1.000000    0.00002080
  770      -16.4333860626      -0.0000000080     1.000000    0.00002066
  771      -16.4333860705      -0.0000000079     1.000000    0.00002052
  772      -16.4333860784      -0.0000000078     1.000000    0.00002038
  773      -16.4333860861      -0.0000000077     1.000000    0.00002024
  774      -16.4333860937      -0.0000000076     1.000000    0.00002010
  775      -16.4333861012      -0.0000000075     1.000000    0.00001997
  776      -16.4333861086      -0.0000000074     1.000000    0.00001983
  777      -16.4333861159      -0.0000000073     1.000000    0.00001970
  778      -16.4333861231      -0.0000000072     1.000000    0.00001956
  779      -16.4333861302      -0.0000000071     1.000000    0.00001943
  780      -16.4333861372      -0.0000000070     1.000000    0.00001930
  781      -16.4333861441      -0.0000000069     1.000000    0.00001917
  782      -16.4333861510      -0.0000000068     1.000000    0.00001904
  783      -16.4333861577      -0.0000000067     1.000000    0.00001891
  784      -16.4333861643      -0.0000000066     1.000000    0.00001878
  785      -16.4333861709      -0.0000000066     1.000000    0.00001865
  786      -16.4333861774      -0.0000000065     1.000000    0.00001852
  787      -16.4333861838      -0.0000000064     1.000000    0.00001840
  788      -16.4333861900      -0.0000000063     1.000000    0.00001827
  789      -16.4333861963      -0.0000000062     1.000000    0.00001815
  790      -16.4333862024      -0.0000000061     1.000000    0.00001802
  791      -16.4333862084      -0.0000000060     1.000000    0.00001790
  792      -16.4333862144      -0.0000000060     1.000000    0.00001777
  793      -16.4333862203      -0.0000000059     1.000000    0.00001765
  794      -16.4333862261      -0.0000000058     1.000000    0.00001753
  795      -16.4333862318      -0.0000000057     1.000000    0.00001741
  796      -16.4333862375      -0.0000000056     1.000000    0.00001729
  797      -16.4333862430      -0.0000000056     1.000000    0.00001717
  798      -16.4333862485      -0.0000000055     1.000000    0.00001705
  799      -16.4333862539      -0.0000000054     1.000000    0.00001693
  800      -16.4333862593      -0.0000000053     1.000000    0.00001682
  801      -16.4333862646      -0.0000000053     1.000000    0.00001670
  802      -16.4333862698      -0.0000000052     1.000000    0.00001658
  803      -16.4333862749      -0.0000000051     1.000000    0.00001647
  804      -16.4333862800      -0.0000000051     1.000000    0.00001635
  805      -16.4333862850      -0.0000000050     1.000000    0.00001624
  806      -16.4333862899      -0.0000000049     1.000000    0.00001613
  807      -16.4333862947      -0.0000000049     1.000000    0.00001602
  808      -16.4333862995      -0.0000000048     1.000000    0.00001590
  809      -16.4333863042      -0.0000000047     1.000000    0.00001579
  810      -16.4333863089      -0.0000000047     1.000000    0.00001568
  811      -16.4333863135      -0.0000000046     1.000000    0.00001557
  812      -16.4333863180      -0.0000000045     1.000000    0.00001546
  813      -16.4333863225      -0.0000000045     1.000000    0.00001536
  814      -16.4333863269      -0.0000000044     1.000000    0.00001525
  815      -16.4333863312      -0.0000000043     1.000000    0.00001514
  816      -16.4333863355      -0.0000000043     1.000000    0.00001504
  817      -16.4333863398      -0.0000000042     1.000000    0.00001493
  818      -16.4333863439      -0.0000000042     1.000000    0.00001483
  819      -16.4333863480      -0.0000000041     1.000000    0.00001472
  820      -16.4333863521      -0.0000000041     1.000000    0.00001462
  821      -16.4333863561      -0.0000000040     1.000000    0.00001451
  822      -16.4333863600      -0.0000000039     1.000000    0.00001441
  823      -16.4333863639      -0.0000000039     1.000000    0.00001431
  824      -16.4333863678      -0.0000000038     1.000000    0.00001421
  825      -16.4333863715      -0.0000000038     1.000000    0.00001411
  826      -16.4333863753      -0.0000000037     1.000000    0.00001401
  827      -16.4333863789      -0.0000000037     1.000000    0.00001391
  828      -16.4333863826      -0.0000000036     1.000000    0.00001381
  829      -16.4333863861      -0.0000000036     1.000000    0.00001371
  830      -16.4333863897      -0.0000000035     1.000000    0.00001362
  831      -16.4333863931      -0.0000000035     1.000000    0.00001352
  832      -16.4333863966      -0.0000000034     1.000000    0.00001342
  833      -16.4333863999      -0.0000000034     1.000000    0.00001333
  834      -16.4333864033      -0.0000000033     1.000000    0.00001323
  835      -16.4333864065      -0.0000000033     1.000000    0.00001314
  836      -16.4333864098      -0.0000000032     1.000000    0.00001305
  837      -16.4333864130      -0.0000000032     1.000000    0.00001295
  838      -16.4333864161      -0.0000000031     1.000000    0.00001286
  839      -16.4333864192      -0.0000000031     1.000000    0.00001277
  840      -16.4333864223      -0.0000000031     1.000000    0.00001268
  841      -16.4333864253      -0.0000000030     1.000000    0.00001259
  842      -16.4333864283      -0.0000000030     1.000000    0.00001250
  843      -16.4333864312      -0.0000000029     1.000000    0.00001241
  844      -16.4333864341      -0.0000000029     1.000000    0.00001232
  845      -16.4333864369      -0.0000000028     1.000000    0.00001223
  846      -16.4333864398      -0.0000000028     1.000000    0.00001215
  847      -16.4333864425      -0.0000000028     1.000000    0.00001206
  848      -16.4333864453      -0.0000000027     1.000000    0.00001197
  849      -16.4333864480      -0.0000000027     1.000000    0.00001189
  850      -16.4333864506      -0.0000000027     1.000000    0.00001180
  851      -16.4333864532      -0.0000000026     1.000000    0.00001172
  852      -16.4333864558      -0.0000000026     1.000000    0.00001163
  853      -16.4333864583      -0.0000000025     1.000000    0.00001155
  854      -16.4333864608      -0.0000000025     1.000000    0.00001147
  855      -16.4333864633      -0.0000000025     1.000000    0.00001138
  856      -16.4333864658      -0.0000000024     1.000000    0.00001130
  857      -16.4333864682      -0.0000000024     1.000000    0.00001122
  858      -16.4333864705      -0.0000000024     1.000000    0.00001114
  859      -16.4333864729      -0.0000000023     1.000000    0.00001106
  860      -16.4333864752      -0.0000000023     1.000000    0.00001098
  861      -16.4333864774      -0.0000000023     1.000000    0.00001090
  862      -16.4333864797      -0.0000000022     1.000000    0.00001082
  863      -16.4333864819      -0.0000000022     1.000000    0.00001074
  864      -16.4333864840      -0.0000000022     1.000000    0.00001066
  865      -16.4333864862      -0.0000000021     1.000000    0.00001059
  866      -16.4333864883      -0.0000000021     1.000000    0.00001051
  867      -16.4333864904      -0.0000000021     1.000000    0.00001043
  868      -16.4333864924      -0.0000000020     1.000000    0.00001036
  869      -16.4333864944      -0.0000000020     1.000000    0.00001028
  870      -16.4333864964      -0.0000000020     1.000000    0.00001021
  871      -16.4333864984      -0.0000000020     1.000000    0.00001013
  872      -16.4333865003      -0.0000000019     1.000000    0.00001006
  873      -16.4333865022      -0.0000000019     1.000000    0.00000999
  874      -16.4333865041      -0.0000000019     1.000000    0.00000992
  875      -16.4333865059      -0.0000000019     1.000000    0.00000984
  876      -16.4333865078      -0.0000000018     1.000000    0.00000977
  877      -16.4333865096      -0.0000000018     1.000000    0.00000970
  878      -16.4333865113      -0.0000000018     1.000000    0.00000963
  879      -16.4333865131      -0.0000000017     1.000000    0.00000956
  880      -16.4333865148      -0.0000000017     1.000000    0.00000949
  881      -16.4333865165      -0.0000000017     1.000000    0.00000942
  882      -16.4333865182      -0.0000000017     1.000000    0.00000935
  883      -16.4333865198      -0.0000000016     1.000000    0.00000928
  884      -16.4333865215      -0.0000000016     1.000000    0.00000922
  885      -16.4333865231      -0.0000000016     1.000000    0.00000915
  886      -16.4333865246      -0.0000000016     1.000000    0.00000908
  887      -16.4333865262      -0.0000000016     1.000000    0.00000902
  888      -16.4333865277      -0.0000000015     1.000000    0.00000895
  889      -16.4333865292      -0.0000000015     1.000000    0.00000888
  890      -16.4333865307      -0.0000000015     1.000000    0.00000882
  891      -16.4333865322      -0.0000000015     1.000000    0.00000875
  892      -16.4333865336      -0.0000000014     1.000000    0.00000869
  893      -16.4333865351      -0.0000000014     1.000000    0.00000863
  894      -16.4333865365      -0.0000000014     1.000000    0.00000856
  895      -16.4333865379      -0.0000000014     1.000000    0.00000850
  896      -16.4333865392      -0.0000000014     1.000000    0.00000844
  897      -16.4333865406      -0.0000000013     1.000000    0.00000838
  898      -16.4333865419      -0.0000000013     1.000000    0.00000831
  899      -16.4333865432      -0.0000000013     1.000000    0.00000825
  900      -16.4333865445      -0.0000000013     1.000000    0.00000819
  901      -16.4333865457      -0.0000000013     1.000000    0.00000813
  902      -16.4333865470      -0.0000000012     1.000000    0.00000807
  903      -16.4333865482      -0.0000000012     1.000000    0.00000801
  904      -16.4333865494      -0.0000000012     1.000000    0.00000795
  905      -16.4333865506      -0.0000000012     1.000000    0.00000790
  906      -16.4333865518      -0.0000000012     1.000000    0.00000784
  907      -16.4333865530      -0.0000000012     1.000000    0.00000778
  908      -16.4333865541      -0.0000000011     1.000000    0.00000772
  909      -16.4333865552      -0.0000000011     1.000000    0.00000767
  910      -16.4333865564      -0.0000000011     1.000000    0.00000761
  911      -16.4333865575      -0.0000000011     1.000000    0.00000755
  912      -16.4333865585      -0.0000000011     1.000000    0.00000750
  913      -16.4333865596      -0.0000000011     1.000000    0.00000744
  914      -16.4333865606      -0.0000000010     1.000000    0.00000739
  915      -16.4333865617      -0.0000000010     1.000000    0.00000733
  916      -16.4333865627      -0.0000000010     1.000000    0.00000728
  917      -16.4333865637      -0.0000000010     1.000000    0.00000722
  918      -16.4333865647      -0.0000000010     1.000000    0.00000717
  919      -16.4333865656      -0.0000000010     1.000000    0.00000712
  920      -16.4333865666      -0.0000000010     1.000000    0.00000706
  921      -16.4333865675      -0.0000000009     1.000000    0.00000701
  922      -16.4333865685      -0.0000000009     1.000000    0.00000696
  923      -16.4333865694      -0.0000000009     1.000000    0.00000691
  924      -16.4333865703      -0.0000000009     1.000000    0.00000686
  925      -16.4333865712      -0.0000000009     1.000000    0.00000681
  926      -16.4333865721      -0.0000000009     1.000000    0.00000676
  927      -16.4333865729      -0.0000000009     1.000000    0.00000671
  928      -16.4333865738      -0.0000000009     1.000000    0.00000666
  929      -16.4333865746      -0.0000000008     1.000000    0.00000661
  930      -16.4333865754      -0.0000000008     1.000000    0.00000656
  931      -16.4333865763      -0.0000000008     1.000000    0.00000651
  932      -16.4333865771      -0.0000000008     1.000000    0.00000646
  933      -16.4333865778      -0.0000000008     1.000000    0.00000641
  934      -16.4333865786      -0.0000000008     1.000000    0.00000636
  935      -16.4333865794      -0.0000000008     1.000000    0.00000632
  936      -16.4333865802      -0.0000000008     1.000000    0.00000627
  937      -16.4333865809      -0.0000000007     1.000000    0.00000622
  938      -16.4333865816      -0.0000000007     1.000000    0.00000618
  939      -16.4333865824      -0.0000000007     1.000000    0.00000613
  940      -16.4333865831      -0.0000000007     1.000000    0.00000608
  941      -16.4333865838      -0.0000000007     1.000000    0.00000604
  942      -16.4333865845      -0.0000000007     1.000000    0.00000599
  943      -16.4333865851      -0.0000000007     1.000000    0.00000595
  944      -16.4333865858      -0.0000000007     1.000000    0.00000591
  945      -16.4333865865      -0.0000000007     1.000000    0.00000586
  946      -16.4333865871      -0.0000000007     1.000000    0.00000582
  947      -16.4333865878      -0.0000000006     1.000000    0.00000577
  948      -16.4333865884      -0.0000000006     1.000000    0.00000573
  949      -16.4333865890      -0.0000000006     1.000000    0.00000569
  950      -16.4333865896      -0.0000000006     1.000000    0.00000565
  951      -16.4333865902      -0.0000000006     1.000000    0.00000560
  952      -16.4333865908      -0.0000000006     1.000000    0.00000556
  953      -16.4333865914      -0.0000000006     1.000000    0.00000552
  954      -16.4333865920      -0.0000000006     1.000000    0.00000548
  955      -16.4333865926      -0.0000000006     1.000000    0.00000544
  956      -16.4333865931      -0.0000000006     1.000000    0.00000540
  957      -16.4333865937      -0.0000000006     1.000000    0.00000536
  958      -16.4333865942      -0.0000000005     1.000000    0.00000532
  959      -16.4333865948      -0.0000000005     1.000000    0.00000528
  960      -16.4333865953      -0.0000000005     1.000000    0.00000524
  961      -16.4333865958      -0.0000000005     1.000000    0.00000520
  962      -16.4333865963      -0.0000000005     1.000000    0.00000516
  963      -16.4333865968      -0.0000000005     1.000000    0.00000512
  964      -16.4333865973      -0.0000000005     1.000000    0.00000508
  965      -16.4333865978      -0.0000000005     1.000000    0.00000504
  966      -16.4333865983      -0.0000000005     1.000000    0.00000501
  967      -16.4333865988      -0.0000000005     1.000000    0.00000497
  968      -16.4333865992      -0.0000000005     1.000000    0.00000493
  969      -16.4333865997      -0.0000000005     1.000000    0.00000489
  970      -16.4333866001      -0.0000000005     1.000000    0.00000486
  971      -16.4333866006      -0.0000000004     1.000000    0.00000482
  972      -16.4333866010      -0.0000000004     1.000000    0.00000478
  973      -16.4333866015      -0.0000000004     1.000000    0.00000475
  974      -16.4333866019      -0.0000000004     1.000000    0.00000471
  975      -16.4333866023      -0.0000000004     1.000000    0.00000468
  976      -16.4333866027      -0.0000000004     1.000000    0.00000464
  977      -16.4333866031      -0.0000000004     1.000000    0.00000461
  978      -16.4333866035      -0.0000000004     1.000000    0.00000457
  979      -16.4333866039      -0.0000000004     1.000000    0.00000454
  980      -16.4333866043      -0.0000000004     1.000000    0.00000450
  981      -16.4333866047      -0.0000000004     1.000000    0.00000447
  982      -16.4333866051      -0.0000000004     1.000000    0.00000444
  983      -16.4333866055      -0.0000000004     1.000000    0.00000440
  984      -16.4333866058      -0.0000000004     1.000000    0.00000437
  985      -16.4333866062      -0.0000000004     1.000000    0.00000434
  986      -16.4333866066      -0.0000000004     1.000000    0.00000430
  987      -16.4333866069      -0.0000000004     1.000000    0.00000427
  988      -16.4333866073      -0.0000000003     1.000000    0.00000424
  989      -16.4333866076      -0.0000000003     1.000000    0.00000421
  990      -16.4333866079      -0.0000000003     1.000000    0.00000418
  991      -16.4333866083      -0.0000000003     1.000000    0.00000414
  992      -16.4333866086      -0.0000000003     1.000000    0.00000411
  993      -16.4333866089      -0.0000000003     1.000000    0.00000408
  994      -16.4333866092      -0.0000000003     1.000000    0.00000405
  995      -16.4333866095      -0.0000000003     1.000000    0.00000402
  996      -16.4333866099      -0.0000000003     1.000000    0.00000399
  997      -16.4333866102      -0.0000000003     1.000000    0.00000396
  998      -16.4333866105      -0.0000000003     1.000000    0.00000393
  999      -16.4333866107      -0.0000000003     1.000000    0.00000390
 1000      -16.4333866110      -0.0000000003     1.000000    0.00000387

Total Energy:                      -16.4333866110 H         -447.1752 eV
Extrapolated to 0:                 -16.3865891071 H         -445.9018 eV

----------------------------------------------------------------------------------
 Solving CP-REKS equation for  1 state vector...
----------------------------------------------------------------------------------
  CG solver: Constructing Y initial guess
  CG solver: Iteration    1    eps =    0.091275879998
  CG solver: Iteration    2    eps =    0.011494218029
  CG solver: Iteration    3    eps =    0.005265764302
  CG solver: Iteration    4    eps =    0.024767703655
  CG solver: Iteration    5    eps =    0.058543568286
  CG solver: Iteration    6    eps =    0.015387485937
  CG solver: Iteration    7    eps =    0.003606128250
  CG solver: Iteration    8    eps =    0.001220136921
  CG solver: Iteration    9    eps =    0.000714822665
  CG solver: Iteration   10    eps =    0.000088301131
  CG solver: Iteration   11    eps =    0.000014737064
  CG solver: Iteration   12    eps =    0.000003706820
  CG solver: Iteration   13    eps =    0.000000253308
  CG solver: Iteration   14    eps =    0.000000020326
  CG solver: Iteration   15    eps =    0.000000002222
  Convergence reached in CG solver after   15 iterations
  CG solver: Calculating converged R, Z, Q2 matrix
----------------------------------------------------------------------------------

----------------------------------------------------------------------------------
 Solving CP-REKS equation for SI between  1 and  2 state vectors...
----------------------------------------------------------------------------------
  CG solver: Constructing Y initial guess
  CG solver: Iteration    1    eps =    0.009197892131
  CG solver: Iteration    2    eps =    0.000976286030
  CG solver: Iteration    3    eps =    0.000055396522
  CG solver: Iteration    4    eps =    0.000096645626
  CG solver: Iteration    5    eps =    0.000039942529
  CG solver: Iteration    6    eps =    0.000049464974
  CG solver: Iteration    7    eps =    0.000115513837
  CG solver: Iteration    8    eps =    0.000088145998
  CG solver: Iteration    9    eps =    0.000053748658
  CG solver: Iteration   10    eps =    0.000012075363
  CG solver: Iteration   11    eps =    0.000001282302
  CG solver: Iteration   12    eps =    0.000000102670
  CG solver: Iteration   13    eps =    0.000000009436
  Convergence reached in CG solver after   13 iterations
  CG solver: Calculating converged R, Z, Q2 matrix
----------------------------------------------------------------------------------

--------------------------------------------------
 Gradient Information
--------------------------------------------------
           1 st state (SSR)
     0.00000000     0.00000000     0.00000000
     0.00000000     0.00000000     0.00000000
     0.00000000     0.00000000     0.00000000
     0.00000000     0.00000000     0.00000000
     0.00000000     0.00000000     0.00000000
     0.00000000     0.00000000     0.00000000
     0.00000000     0.00000000     0.00000000
     0.00000000     0.00000000     0.00000000
     0.00000000     0.00000000     0.00000000
     0.00000000     0.00000000     0.00000000
     0.00000000     0.00000000     0.00000000
     0.00000000     0.00000000     0.00000000
     0.00000000     0.00000000     0.00000000
     0.00000000     0.00000000     0.00000000

           2 st state (SSR)
     0.00000000     0.00000000     0.00000000
     0.00000000     0.00000000     0.00000000
     0.00000000     0.00000000     0.00000000
     0.00000000     0.00000000     0.00000000
     0.00000000     0.00000000     0.00000000
     0.00000000     0.00000000     0.00000000
     0.00000000     0.00000000     0.00000000
     0.00000000     0.00000000     0.00000000
     0.00000000     0.00000000     0.00000000
     0.00000000     0.00000000     0.00000000
     0.00000000     0.00000000     0.00000000
     0.00000000     0.00000000     0.00000000
     0.00000000     0.00000000     0.00000000
     0.00000000     0.00000000     0.00000000
--------------------------------------------------
 Coupling Information
--------------------------------------------------
 between  1 and  2 states
--------------------------------------------------
 g vector - difference gradient
    -0.16312300     0.26410438    -0.16062442
     0.43774378     0.02738432    -0.10632553
    -0.04895515    -0.00960953     0.02541520
     0.00090765    -0.16802946     0.05219465
    -0.03103961     0.39224184     0.09202042
    -0.80009553    -0.83241501     0.02098168
     0.59467764     0.20215621     0.14015893
     0.06349909     0.01851888     0.04886955
     0.05896697    -0.11032278     0.05176053
    -0.08993422    -0.05296419    -0.22396753
     0.04506364     0.11506196    -0.07172450
    -0.03026587     0.15967507     0.13794419
    -0.02011179     0.01249035    -0.01606673
    -0.01733359    -0.01829204     0.00936356

 h vector - derivative coupling
    -0.00175684     0.00308523     0.00237991
    -0.00380433    -0.00013413    -0.01208589
    -0.00085700    -0.00445988     0.00011256
     0.00028896     0.00198050    -0.00019770
     0.00145189    -0.00668780    -0.00034802
     0.01818335     0.02239700     0.00983466
    -0.00917134    -0.00538790    -0.00425195
    -0.00165458    -0.00643940     0.00392516
     0.00015371     0.00039396     0.00021412
    -0.00424058    -0.00260607     0.00415901
    -0.00019429     0.00032049    -0.00120984
     0.00201990    -0.00353818    -0.00162148
    -0.00096781     0.00124483    -0.00125282
     0.00054898    -0.00016863     0.00034229

 G vector - GDV
     0.00000000     0.00000000     0.00000000
     0.00000000     0.00000000     0.00000000
     0.00000000     0.00000000     0.00000000
     0.00000000     0.00000000     0.00000000
     0.00000000     0.00000000     0.00000000
     0.00000000     0.00000000     0.00000000
     0.00000000     0.00000000     0.00000000
     0.00000000     0.00000000     0.00000000
     0.00000000     0.00000000     0.00000000
     0.00000000     0.00000000     0.00000000
     0.00000000     0.00000000     0.00000000
     0.00000000     0.00000000     0.00000000
     0.00000000     0.00000000     0.00000000
     0.00000000     0.00000000     0.00000000

 H vector - DCV - non-adiabatic coupling
     0.00000000     0.00000000     0.00000000
     0.00000000     0.00000000     0.00000000
     0.00000000     0.00000000     0.00000000
     0.00000000     0.00000000     0.00000000
     0.00000000     0.00000000     0.00000000
     0.00000000     0.00000000     0.00000000
     0.00000000     0.00000000     0.00000000
     0.00000000     0.00000000     0.00000000
     0.00000000     0.00000000     0.00000000
     0.00000000     0.00000000     0.00000000
     0.00000000     0.00000000     0.00000000
     0.00000000     0.00000000     0.00000000
     0.00000000     0.00000000     0.00000000
     0.00000000     0.00000000     0.00000000
--------------------------------------------------

WARNING!
-> SCC is NOT converged, maximal SCC iterations exceeded

--------------------------------------------------------------------------------
DFTB+ running times                          cpu [s]             wall clock [s]
--------------------------------------------------------------------------------
SCC                                    +     1.44  ( 79.2%)      1.44  ( 79.0%)
      Sparse to dense                        0.08  (  4.1%)      0.07  (  3.8%)
      Dense to sparse                        0.26  ( 14.2%)      0.27  ( 15.0%)
      Range separated Hamiltonian            0.12  (  6.9%)      0.12  (  6.6%)
  Density matrix creation                    0.16  (  8.6%)      0.16  (  8.5%)
  Force calculation                          0.38  ( 20.7%)      0.38  ( 20.7%)
--------------------------------------------------------------------------------
Missing                                +     0.38  ( 20.8%)      0.38  ( 21.0%)
Total                                  =     1.82  (100.0%)      1.83  (100.0%)
--------------------------------------------------------------------------------
