     6
  Step:   120            Position(A)                                  Velocity(au)
C        -0.04399196    -0.02658868    -0.11524439    -0.00013469    -0.00003599     0.00038241
N        -0.04432170    -0.13690132     1.41591159     0.00010464    -0.00008047    -0.00030940
H         0.94750251     0.36699191    -0.45018250     0.00024289     0.00081312     0.00106292
H         0.80374484     0.33385377     1.79241168    -0.00010031    -0.00022002    -0.00020449
H        -0.85258178     0.44812329     1.72867556    -0.00006602     0.00138058    -0.00094036
H        -0.97148368     0.40051939    -0.48162662     0.00007420    -0.00042656    -0.00017536
