|===============================================================================
|
|  DFTB+ release 20.1
|
|  Copyright (C) 2006 - 2020  DFTB+ developers group
|
|===============================================================================
|
|  When publishing results obtained with DFTB+, please cite the following
|  reference:
|
|  * DFTB+, a software package for efficient approximate density functional
|    theory based atomistic simulations, J. Chem. Phys. 152, 124101 (2020).
|    [doi: 10.1063/1.5143190]
|
|  You should also cite additional publications crediting the parametrization
|  data you use. Please consult the documentation of the SK-files for the
|  references.
|
|===============================================================================

Reading input file 'dftb_in.hsd'
Parser version: 8

--------------------------------------------------------------------------------
Reading SK-files:
Done.


Processed input in HSD format written to 'dftb_pin.hsd'

Starting initialization...
--------------------------------------------------------------------------------
OpenMP threads:              1
Chosen random seed:          507936501
Mode:                        Static calculation
Self consistent charges:     Yes
SCC-tolerance:                 0.100000E-05
Max. scc iterations:                   1000
Shell resolved Hubbard:      No
Spin polarisation:           No
Nr. of up electrons:             6.000000
Nr. of down electrons:           6.000000
Periodic boundaries:         No
Electronic solver:           Relatively robust
Maximal SCC-cycles:                    1000
Initial charges:             Set automatically (system chrg:   0.100E+01)
Included shells:             C:  s, p
                             N:  s, p
                             H:  s
Spin coupling constants:     C   1(s)-1(s):  -0.455900E-01
                             C   1(s)-2(p):  -0.293000E-01
                             C   2(p)-1(s):  -0.293000E-01
                             C   2(p)-2(p):  -0.275500E-01
                             N   1(s)-1(s):  -0.468700E-01
                             N   1(s)-2(p):  -0.317000E-01
                             N   2(p)-1(s):  -0.317000E-01
                             N   2(p)-2(p):  -0.307200E-01
                             H   1(s)-1(s):  -0.792500E-01
Range separated hybrid:      Yes
  Screening parameter omega:   0.300000E+00
  Range separated algorithm:   MatrixBased
Extra options:
                             Mulliken analysis
                             Force calculation
Force type                   original
                             Eigenvector printing


REKS Calcuation:             Yes
SSR(2,2) Calcuation:         Yes
Energy Functional:           (PPS+OSS)/2
Number of Core Orbitals:                  5
Number of Active Orbitals:                2
Number of Basis:                         12
Number of States:                         2
State-Averaging Weight:          0.500000
                                 0.500000
State of Interest:                        1
Initial Guess:               Diagonalize H0 matrix
Newton-Raphson for FON opt:  Yes
NR max. Iterations:                      50
Level Shifting:              Yes
Shift Value:                     0.300000
W Scale Factor:              C  =    3.000000
                             N  =    3.000000
                             H  =    3.000000
Transition Dipole:           No
Gradient of Microstate:      No
CP-REKS Solver:              Preconditioned Conjugate-Gradient
CG max. Iterations:                     100
CG Tolerance:                  0.100000E-07
Memory for A and Hxc:        Direct Updating Without Saving
Non-Adiabatic Coupling:      Yes

--------------------------------------------------------------------------------

***  Geometry step: 0

  iSCC       reks energy        Diff energy         x_a       SCC error   
    1       -6.2626407183       0.0000000000     0.998828    1.17890634
    2       -6.2761483168      -0.0135075985     0.999555    0.10898945
    3       -6.2799755795      -0.0038272627     0.999761    0.05040588
    4       -6.2816558170      -0.0016802375     0.999843    0.02557500
    5       -6.2825538559      -0.0008980389     0.999882    0.01381644
    6       -6.2831148122      -0.0005609563     0.999902    0.00757051
    7       -6.2835027089      -0.0003878967     0.999914    0.00589578
    8       -6.2837851840      -0.0002824751     0.999921    0.00530182
    9       -6.2839953432      -0.0002101592     0.999926    0.00467661
   10       -6.2841526490      -0.0001573058     0.999929    0.00407543
   11       -6.2842702605      -0.0001176115     0.999931    0.00352237
   12       -6.2843578231      -0.0000875626     0.999933    0.00302640
   13       -6.2844226687      -0.0000648456     0.999934    0.00265764
   14       -6.2844704316      -0.0000477629     0.999935    0.00237324
   15       -6.2845054345      -0.0000350029     0.999936    0.00210102
   16       -6.2845309706      -0.0000255362     0.999936    0.00184682
   17       -6.2845495273      -0.0000185567     0.999936    0.00161376
   18       -6.2845629669      -0.0000134396     0.999937    0.00140309
   19       -6.2845726726      -0.0000097057     0.999937    0.00121479
   20       -6.2845796649      -0.0000069923     0.999937    0.00104799
   21       -6.2845846921      -0.0000050272     0.999937    0.00090132
   22       -6.2845883003      -0.0000036082     0.999937    0.00077312
   23       -6.2845908862      -0.0000025859     0.999937    0.00066165
   24       -6.2845927372      -0.0000018510     0.999937    0.00056514
   25       -6.2845940608      -0.0000013235     0.999937    0.00048188
   26       -6.2845950063      -0.0000009456     0.999937    0.00041028
   27       -6.2845956813      -0.0000006750     0.999937    0.00034887
   28       -6.2845961629      -0.0000004816     0.999937    0.00029632
   29       -6.2845965062      -0.0000003434     0.999937    0.00025144
   30       -6.2845967509      -0.0000002447     0.999937    0.00021317
   31       -6.2845969252      -0.0000001743     0.999937    0.00018060
   32       -6.2845970494      -0.0000001241     0.999937    0.00015290
   33       -6.2845971377      -0.0000000884     0.999937    0.00012938
   34       -6.2845972006      -0.0000000629     0.999937    0.00010943
   35       -6.2845972454      -0.0000000448     0.999937    0.00009251
   36       -6.2845972772      -0.0000000318     0.999937    0.00007818
   37       -6.2845972999      -0.0000000227     0.999937    0.00006605
   38       -6.2845973160      -0.0000000161     0.999937    0.00005578
   39       -6.2845973275      -0.0000000115     0.999937    0.00004710
   40       -6.2845973356      -0.0000000081     0.999937    0.00003976
   41       -6.2845973414      -0.0000000058     0.999937    0.00003356
   42       -6.2845973455      -0.0000000041     0.999937    0.00002832
   43       -6.2845973485      -0.0000000029     0.999937    0.00002390
   44       -6.2845973505      -0.0000000021     0.999937    0.00002016
   45       -6.2845973520      -0.0000000015     0.999937    0.00001701
   46       -6.2845973531      -0.0000000011     0.999937    0.00001435
   47       -6.2845973538      -0.0000000007     0.999937    0.00001210
   48       -6.2845973543      -0.0000000005     0.999937    0.00001021
   49       -6.2845973547      -0.0000000004     0.999937    0.00000861
   50       -6.2845973550      -0.0000000003     0.999937    0.00000726
   51       -6.2845973552      -0.0000000002     0.999937    0.00000612
   52       -6.2845973553      -0.0000000001     0.999937    0.00000516
   53       -6.2845973554      -0.0000000001     0.999937    0.00000435
   54       -6.2845973555      -0.0000000001     0.999937    0.00000367
   55       -6.2845973555      -0.0000000000     0.999937    0.00000309
   56       -6.2845973556      -0.0000000000     0.999937    0.00000261
   57       -6.2845973556      -0.0000000000     0.999937    0.00000220
   58       -6.2845973556      -0.0000000000     0.999937    0.00000185
   59       -6.2845973556      -0.0000000000     0.999937    0.00000156
   60       -6.2845973556      -0.0000000000     0.999937    0.00000132
   61       -6.2845973556      -0.0000000000     0.999937    0.00000111
   62       -6.2845973556      -0.0000000000     0.999937    0.00000094
  
--------------------------------------------------
 Final SA-REKS(2,2) energy:      -6.28459736
  
 State     Energy      FON(1)    FON(2)   Spin
  PPS   -6.40854094   1.999874  0.000126  0.00
  OSS   -6.16065377   1.000000  1.000000  0.00
 Trip   -6.24248588   1.000000  1.000000  1.00
--------------------------------------------------

 Lagrangian Wab:   0.00750011  0.00749982

--------------------------------------------------
 SSR: 2SI-2SA-REKS(2,2) Hamiltonian matrix
               PPS           OSS
   PPS    -6.40854094    0.01052236
   OSS     0.01052236   -6.16065377
--------------------------------------------------

----------------------------------------------------------------
 SSR: 2SI-2SA-REKS(2,2) states
                    E_n       C_{PPS}    C_{OSS}
 SSR state  1   -6.40898680  -0.999104   0.042334
 SSR state  2   -6.16020792  -0.042334  -0.999104
----------------------------------------------------------------

 unrelaxed SSR FONs for S0:  1.998082  0.001918

Total Energy:                       -6.4089867952 H         -174.3974 eV
Extrapolated to 0:                  -6.4089867952 H         -174.3974 eV

----------------------------------------------------------------------------------
 Solving CP-REKS equation for  1 state vector...
----------------------------------------------------------------------------------
  CG solver: Constructing Y initial guess
  CG solver: Iteration    1    eps =    0.000135391544
  CG solver: Iteration    2    eps =    0.000089175539
  CG solver: Iteration    3    eps =    0.000012608779
  CG solver: Iteration    4    eps =    0.000001122193
  CG solver: Iteration    5    eps =    0.000000013626
  CG solver: Iteration    6    eps =    0.000000006790
  Convergence reached in CG solver after    6 iterations
  CG solver: Calculating converged R, Z, Q2 matrix
----------------------------------------------------------------------------------

----------------------------------------------------------------------------------
 Solving CP-REKS equation for SI between  1 and  2 state vectors...
----------------------------------------------------------------------------------
  CG solver: Constructing Y initial guess
  CG solver: Iteration    1    eps =    0.003538428365
  CG solver: Iteration    2    eps =    0.005463680403
  CG solver: Iteration    3    eps =    0.000641881273
  CG solver: Iteration    4    eps =    0.000008180987
  CG solver: Iteration    5    eps =    0.000001170857
  CG solver: Iteration    6    eps =    0.000000031027
  CG solver: Iteration    7    eps =    0.000000002418
  Convergence reached in CG solver after    7 iterations
  CG solver: Calculating converged R, Z, Q2 matrix
----------------------------------------------------------------------------------

--------------------------------------------------
 Gradient Information
--------------------------------------------------
           1 st state (SSR)
     0.00506513     0.00462922    -0.00214659
    -0.01177905     0.00059148     0.00938032
     0.01361293    -0.00034527     0.00155824
     0.01837044    -0.00612694    -0.00761729
    -0.01058188     0.00366779    -0.00650715
    -0.01468757    -0.00241628     0.00533248

           2 st state (SSR)
    -0.00686885    -0.00630566     0.10387760
     0.01313204     0.01170478    -0.11256016
    -0.01303001    -0.00633660     0.01639899
    -0.01416452     0.00048109    -0.01401947
     0.00822690    -0.00455536    -0.01505446
     0.01270444     0.00501176     0.02135750
--------------------------------------------------
 Coupling Information
--------------------------------------------------
 between  1 and  2 states
--------------------------------------------------
 g vector - difference gradient
     0.00612714     0.00551744    -0.05546732
    -0.01290692    -0.00580357     0.06297853
     0.01458767     0.00261545    -0.00723348
     0.01785938    -0.00312812     0.00326495
    -0.01068120     0.00411028     0.00437351
    -0.01498607    -0.00331149    -0.00791619

 h vector - derivative coupling
     0.00163352     0.00035732    -0.02667400
    -0.00478900    -0.00267300     0.02107239
     0.01435018    -0.00460553     0.00251581
     0.01806187     0.00221191     0.00061656
    -0.01464112    -0.00018947     0.00099513
    -0.01461546     0.00489876     0.00147411

 G vector - GDV
     0.00596699     0.00546744    -0.05301210
    -0.01245554    -0.00555665     0.06097024
     0.01332147     0.00299567    -0.00742037
     0.01626748    -0.00330401     0.00320109
    -0.00940439     0.00411158     0.00427365
    -0.01369601    -0.00371402    -0.00801251

 H vector - DCV - non-adiabatic coupling
     0.00862604     0.00330724    -0.12569590
    -0.02356975    -0.01267934     0.10581422
     0.06243595    -0.01755685     0.00761681
     0.07841459     0.00779556     0.00357963
    -0.06227291     0.00063874     0.00547284
    -0.06363393     0.01849465     0.00321241
--------------------------------------------------


--------------------------------------------------------------------------------
DFTB+ running times                          cpu [s]             wall clock [s]
--------------------------------------------------------------------------------
SCC                                    +     0.03  ( 71.8%)      0.03  ( 66.7%)
Post-SCC processing                    +     0.01  ( 24.5%)      0.01  ( 24.4%)
  Force calculation                          0.01  ( 23.9%)      0.01  ( 22.2%)
--------------------------------------------------------------------------------
Missing                                +     0.00  (  3.6%)      0.00  (  8.9%)
Total                                  =     0.04  (100.0%)      0.05  (100.0%)
--------------------------------------------------------------------------------
