     6
  Step:     0            Position(A)                                  Velocity(au)
C        -0.03241264     0.02291272     0.00803897    -0.00012165     0.00009137     0.00021228
N        -0.04228042    -0.05702065     1.30293888     0.00020043    -0.00012287    -0.00019775
H         0.93074933    -0.03200804    -0.50989852     0.00041946    -0.00039614    -0.00007506
H         0.82521247    -0.05990526     1.85397704    -0.00121794     0.00069440    -0.00047163
H        -0.95158145    -0.07029358     1.89956880    -0.00104829     0.00043758     0.00102941
H        -1.04354373     0.01177841    -0.55349606     0.00051111    -0.00011721    -0.00026420
     6
  Step:     1            Position(A)                                  Velocity(au)
C        -0.03311381     0.02345232     0.00885427    -0.00013401     0.00010611     0.00008517
N        -0.04122392    -0.05769622     1.30216679     0.00018395    -0.00012424    -0.00008424
H         0.93310524    -0.03430068    -0.51037259     0.00043695    -0.00044219    -0.00009553
H         0.81869453    -0.05620683     1.85144656    -0.00114961     0.00065770    -0.00044466
H        -0.95691077    -0.06799989     1.90485428    -0.00088946     0.00040108     0.00089551
H        -1.04037867     0.01103673    -0.55476263     0.00064270    -0.00015461    -0.00019965
     6
  Step:     2            Position(A)                                  Velocity(au)
C        -0.03387842     0.02407337     0.00897062    -0.00014480     0.00012102    -0.00004290
N        -0.04026834    -0.05837958     1.30201750     0.00016374    -0.00012583     0.00002955
H         0.93552877    -0.03684473    -0.51094342     0.00044381    -0.00048724    -0.00011082
H         0.81263784    -0.05271128     1.84911327    -0.00104988     0.00062110    -0.00039924
H        -0.96131054    -0.06590649     1.90936398    -0.00071067     0.00036509     0.00074789
H        -1.03651375     0.01008727    -0.55567981     0.00076683    -0.00019260    -0.00013729
     6
  Step:     3            Position(A)                                  Velocity(au)
C        -0.03469752     0.02477595     0.00838512    -0.00015394     0.00013580    -0.00017112
N        -0.03943310    -0.05907237     1.30249000     0.00014019    -0.00012782     0.00014278
H         0.93795917    -0.03962957    -0.51158465     0.00043938    -0.00052946    -0.00012173
H         0.80721205    -0.04941393     1.84708017    -0.00092005     0.00058623    -0.00033496
H        -0.96468326    -0.06400689     1.91303385    -0.00051607     0.00033103     0.00059045
H        -1.03199196     0.00893031    -0.55626417     0.00088285    -0.00022986    -0.00007875
     6
  Step:     4            Position(A)                                  Velocity(au)
C        -0.03556171     0.02555840     0.00709939    -0.00016129     0.00015012    -0.00029853
N        -0.03873530    -0.05977730     1.30357882     0.00011374    -0.00013035     0.00025456
H         0.94033336    -0.04263444    -0.51227450     0.00042358    -0.00056711    -0.00012901
H         0.80257708    -0.04630081     1.84545050    -0.00076212     0.00055456    -0.00025222
H        -0.96695374    -0.06228671     1.91582060    -0.00030958     0.00030009     0.00042664
H        -1.02685980     0.00757378    -0.55654098     0.00098955    -0.00026504    -0.00002557
     6
  Step:     5            Position(A)                                  Velocity(au)
C        -0.03646104     0.02641737     0.00512105    -0.00016672     0.00016368    -0.00042374
N        -0.03818952    -0.06049762     1.30527335     0.00008486    -0.00013344     0.00036377
H         0.94259051    -0.04583028    -0.51299521     0.00039719    -0.00059892    -0.00013331
H         0.79887914    -0.04335051     1.84432243    -0.00057899     0.00052701    -0.00015254
H        -0.96806819    -0.06072573     1.91769861    -0.00009525     0.00027298     0.00025947
H        -1.02117247     0.00603239    -0.55654373     0.00108449    -0.00029712     0.00002071
     6
  Step:     6            Position(A)                                  Velocity(au)
C        -0.03738469     0.02734813     0.00246597    -0.00017000     0.00017621    -0.00054494
N        -0.03780745    -0.06123645     1.30755645     0.00005413    -0.00013697     0.00046897
H         0.94467640    -0.04918334    -0.51373214     0.00036155    -0.00062424    -0.00013511
H         0.79624612    -0.04053817     1.84378255    -0.00037460     0.00050377    -0.00003864
H        -0.96799521    -0.05930176     1.91865782     0.00012251     0.00024969     0.00009188
H        -1.01500143     0.00432491    -0.55631452     0.00116398    -0.00032557     0.00005842
     6
  Step:     7            Position(A)                                  Velocity(au)
C        -0.03832054     0.02834486    -0.00083974    -0.00017083     0.00018751    -0.00065994
N        -0.03759739    -0.06199591     1.31040321     0.00002227    -0.00014069     0.00056852
H         0.94654530    -0.05265857    -0.51447316     0.00031823    -0.00064291    -0.00013490
H         0.79478160    -0.03784001     1.84389978    -0.00015425     0.00048427     0.00008564
H        -0.96672815    -0.05799447     1.91870361     0.00033862     0.00022966    -0.00007298
H        -1.00844024     0.00247111    -0.55590473     0.00122352    -0.00035033     0.00008577
     6
  Step:     8            Position(A)                                  Velocity(au)
C        -0.03925479     0.02940075    -0.00475840    -0.00016890     0.00019734    -0.00076633
N        -0.03756361    -0.06277657     1.31378009    -0.00000986    -0.00014426     0.00066060
H         0.94816008    -0.05622126    -0.51520889     0.00026883    -0.00065488    -0.00013318
H         0.79455756    -0.03523685     1.84472006     0.00007526     0.00046747     0.00021550
H        -0.96428837    -0.05678767     1.91785888     0.00054724     0.00021209    -0.00023139
H        -1.00160758     0.00048981    -0.55537564     0.00125831    -0.00037155     0.00010091
     6
  Step:     9            Position(A)                                  Velocity(au)
C        -0.04017187     0.03050787    -0.00923960    -0.00016389     0.00020545    -0.00086155
N        -0.03770546    -0.06357712     1.31764406    -0.00004125    -0.00014731     0.00074324
H         0.94949193    -0.05983675    -0.51593298     0.00021494    -0.00066006    -0.00013054
H         0.79560658    -0.03271599     1.84626189     0.00030572     0.00045211     0.00034539
H        -0.96072984    -0.05566971     1.91616737     0.00074163     0.00019622    -0.00037895
H        -0.99464778    -0.00160153    -0.55479865     0.00126382    -0.00038940     0.00010212
     6
  Step:    10            Position(A)                                  Velocity(au)
C        -0.04105458     0.03165696    -0.01421958    -0.00015557     0.00021160    -0.00094304
N        -0.03801655    -0.06439431     1.32194201    -0.00007073    -0.00014950     0.00081448
H         0.95052044    -0.06346978    -0.51664243     0.00015827    -0.00065830    -0.00012758
H         0.79791487    -0.03027193     1.84851301     0.00052784     0.00043690     0.00046933
H        -0.95614406    -0.05463284     1.91369745     0.00091435     0.00018145    -0.00051072
H        -0.98772885    -0.00378642    -0.55425420     0.00123625    -0.00040398     0.00008803
     6
  Step:    11            Position(A)                                  Velocity(au)
C        -0.04188456     0.03283734    -0.01962137    -0.00014386     0.00021553    -0.00100850
N        -0.03848408    -0.06522298     1.32661054    -0.00009708    -0.00015051     0.00087250
H         0.95123425    -0.06708385    -0.51733748     0.00010064    -0.00064944    -0.00012486
H         0.80141747    -0.02790623     1.85142863     0.00073192     0.00042064     0.00058131
H        -0.95066391    -0.05367219     1.91054490     0.00105762     0.00016737    -0.00062156
H        -0.98103816    -0.00604883    -0.55382957     0.00117311    -0.00041533     0.00005789
     6
  Step:    12            Position(A)                                  Velocity(au)
C        -0.04264316     0.03403704    -0.02535624    -0.00012885     0.00021708    -0.00105621
N        -0.03908859    -0.06605638     1.33157687    -0.00011912    -0.00015011     0.00091589
H         0.95163174    -0.07064142    -0.51802125     0.00004398    -0.00063354    -0.00012287
H         0.80599734    -0.02562691     1.85493228     0.00090881     0.00040236     0.00067593
H        -0.94446497    -0.05278458     1.90683375     0.00116405     0.00015383    -0.00070654
H        -0.97477446    -0.00837283    -0.55361495     0.00107392    -0.00042354     0.00001187
     6
  Step:    13            Position(A)                                  Velocity(au)
C        -0.04331254     0.03524318    -0.03132678    -0.00011091     0.00021623    -0.00108536
N        -0.03980425    -0.06688654     1.33676084    -0.00013584    -0.00014817     0.00094389
H         0.95172167    -0.07410507    -0.51869914    -0.00000970    -0.00061102    -0.00012206
H         0.81148934    -0.02344713     1.85891963     0.00105095     0.00038142     0.00074902
H        -0.93776331    -0.05196735     1.90271470     0.00122735     0.00014086    -0.00076156
H        -0.96913649    -0.01074268    -0.55369806     0.00094064    -0.00042878    -0.00004882
     6
  Step:    14            Position(A)                                  Velocity(au)
C        -0.04387708     0.03644274    -0.03743176    -0.00009062     0.00021311    -0.00109641
N        -0.04059992    -0.06770496     1.34207846    -0.00014654    -0.00014476     0.00095676
H         0.95152378    -0.07743953    -0.51937933    -0.00005852    -0.00058277    -0.00012297
H         0.81769012    -0.02138327     1.86326582     0.00115353     0.00035763     0.00079826
H        -0.93080960    -0.05121734     1.89836077     0.00124339     0.00012869    -0.00078401
H        -0.96430905    -0.01314338    -0.55415814     0.00077789    -0.00043145    -0.00012192
     6
  Step:    15            Position(A)                                  Velocity(au)
C        -0.04432478     0.03762355    -0.04357318    -0.00011244     0.00034015    -0.00178366
N        -0.04144106    -0.06850342     1.34744747    -0.00024679    -0.00022892     0.00156247
H         0.95106807    -0.08061440    -0.52007268    -0.00016490    -0.00089930    -0.00020606
H         0.82437379    -0.01945256     1.86783583     0.00198611     0.00054137     0.00134597
H        -0.92387514    -0.05052994     1.89395761     0.00197971     0.00019230    -0.00126425
H        -0.96044783    -0.01556178    -0.55505982     0.00096847    -0.00070641    -0.00033405
     6
  Step:    16            Position(A)                                  Velocity(au)
C        -0.04490374     0.03949625    -0.05318648    -0.00009114     0.00031986    -0.00160231
N        -0.04280871    -0.06975606     1.35592412    -0.00023106    -0.00021236     0.00142263
H         0.95036594    -0.08563716    -0.52152746    -0.00008074    -0.00087164    -0.00030466
H         0.83554504    -0.01643834     1.87541455     0.00192520     0.00051974     0.00130962
H        -0.91307624    -0.04948805     1.88704944     0.00179346     0.00017573    -0.00114835
H        -0.95581146    -0.01950348    -0.55751713     0.00065911    -0.00068427    -0.00053276
     6
  Step:    17            Position(A)                                  Velocity(au)
C        -0.04536039     0.04125801    -0.06177972    -0.00006915     0.00029875    -0.00141464
N        -0.04406657    -0.07091643     1.36361240    -0.00020692    -0.00019497     0.00127566
H         0.95015062    -0.09051857    -0.52353440     0.00000471    -0.00084267    -0.00039660
H         0.84624917    -0.01354687     1.88271666     0.00181055     0.00049428     0.00124104
H        -0.90349658    -0.04853323     1.88090930     0.00154089     0.00016047    -0.00098844
H        -0.95295859    -0.02333694    -0.56111336     0.00034324    -0.00066273    -0.00072616
     6
  Step:    18            Position(A)                                  Velocity(au)
C        -0.04569258     0.04290450    -0.06932514    -0.00004794     0.00028016    -0.00123910
N        -0.04516932    -0.07198032     1.37047734    -0.00017773    -0.00017905     0.00113756
H         0.95041971    -0.09525064    -0.52605198     0.00008778    -0.00082115    -0.00048444
H         0.85620046    -0.01079944     1.88957276     0.00166932     0.00047055     0.00115867
H        -0.89549726    -0.04765730     1.87577298     0.00124715     0.00014846    -0.00080194
H        -0.95189569    -0.02706410    -0.56580136     0.00003686    -0.00064821    -0.00091503
     6
  Step:    19            Position(A)                                  Velocity(au)
C        -0.04590652     0.04444956    -0.07589517    -0.00002818     0.00026555    -0.00108284
N        -0.04609125    -0.07295613     1.37657115    -0.00014546    -0.00016560     0.00101479
H         0.95115060    -0.09987288    -0.52905295     0.00016707    -0.00081131    -0.00057118
H         0.86526563    -0.00818651     1.89591590     0.00151700     0.00045133     0.00107300
H        -0.88928939    -0.04684199     1.87177382     0.00092639     0.00014042    -0.00059884
H        -0.95253865    -0.03072118    -0.57153711    -0.00025326    -0.00064353    -0.00110162
     6
  Step:    20            Position(A)                                  Velocity(au)
C        -0.04601205     0.04591481    -0.08160030    -0.00001005     0.00025468    -0.00094454
N        -0.04681826    -0.07385761     1.38198105    -0.00011087    -0.00015449     0.00090638
H         0.95231359    -0.10444770    -0.53252688     0.00024165    -0.00081281    -0.00065795
H         0.87339723    -0.00568318     1.90173641     0.00135764     0.00043665     0.00098668
H        -0.88499565    -0.04606553     1.86898452     0.00058490     0.00013608    -0.00038367
H        -0.95476670    -0.03435919    -0.57828937    -0.00052375    -0.00064785    -0.00128511
     6
  Step:    21            Position(A)                                  Velocity(au)
C        -0.04601986     0.04732053    -0.08654292     0.00000633     0.00024656    -0.00081995
N        -0.04734103    -0.07469770     1.38678864    -0.00007440    -0.00014512     0.00080863
H         0.95387466    -0.10903555    -0.53646991     0.00031001    -0.00082291    -0.00074381
H         0.88057016    -0.00326425     1.90703865     0.00119028     0.00042525     0.00089869
H        -0.88269585    -0.04530803     1.86744876     0.00022847     0.00013470    -0.00016020
H        -0.95844279    -0.03802438    -0.58602403    -0.00077022    -0.00065847    -0.00146109
     6
  Step:    22            Position(A)                                  Velocity(au)
C        -0.04594107     0.04868153    -0.09080133     0.00002077     0.00024017    -0.00070534
N        -0.04765314    -0.07548603     1.39105505    -0.00003676    -0.00013689     0.00071829
H         0.95579239    -0.11368187    -0.54087346     0.00037016    -0.00083852    -0.00082682
H         0.88675382    -0.00091131     1.91182096     0.00101391     0.00041578     0.00080777
H        -0.88243194    -0.04455403     1.86718680    -0.00013366     0.00013543     0.00006596
H        -0.96340970    -0.04174817    -0.59468486    -0.00098708    -0.00067241    -0.00162362
     6
  Step:    23            Position(A)                                  Velocity(au)
C        -0.04578747     0.05000707    -0.09443280     0.00003310     0.00023474    -0.00059834
N        -0.04775227    -0.07622891     1.39482338     0.00000102    -0.00012937     0.00063332
H         0.95801528    -0.11841517    -0.54571867     0.00042003    -0.00085703    -0.00090490
H         0.89191172     0.00138670     1.91607431     0.00082915     0.00040728     0.00071359
H        -0.88419096    -0.04379313     1.86818662    -0.00048887     0.00013744     0.00028741
H        -0.96948420    -0.04554591    -0.60418581    -0.00116887    -0.00068717    -0.00176718
     6
  Step:    24            Position(A)                                  Velocity(au)
C        -0.04557152     0.05130213    -0.09748109     0.00004317     0.00022971    -0.00049765
N        -0.04764180    -0.07693026     1.39812543     0.00003773    -0.00012227     0.00055274
H         0.96048152    -0.12324973    -0.55097569     0.00045781    -0.00087645    -0.00097623
H         0.89601040     0.00363551     1.91978745     0.00063807     0.00039913     0.00061673
H        -0.88788963    -0.04301967     1.87039544    -0.00082305     0.00013996     0.00049595
H        -0.97645883    -0.04941966    -0.61441354    -0.00131147    -0.00070086    -0.00188750
     6
  Step:    25            Position(A)                                  Velocity(au)
C        -0.04530611     0.05256874    -0.09998238     0.00005092     0.00022473    -0.00040264
N        -0.04733156    -0.07759241     1.40098731     0.00007215    -0.00011542     0.00047616
H         0.96312059    -0.12818889    -0.55660510     0.00048217    -0.00089522    -0.00103932
H         0.89902720     0.00583760     1.92295178     0.00044362     0.00039101     0.00051831
H        -0.89336921    -0.04223241     1.87371724    -0.00112248     0.00014227     0.00068373
H        -0.98410910    -0.05336158    -0.62523428    -0.00141259    -0.00071213    -0.00198174
     6
  Step:    26            Position(A)                                  Velocity(au)
C        -0.04500402     0.05380695    -0.10196884     0.00005641     0.00021954    -0.00031299
N        -0.04683768    -0.07821668     1.40343266     0.00010317    -0.00010869     0.00040350
H         0.96585577    -0.13322778    -0.56255983     0.00049226    -0.00091220    -0.00109306
H         0.90095491     0.00799366     1.92556450     0.00024922     0.00038279     0.00041982
H        -0.90040071    -0.04143390     1.87801626    -0.00137544     0.00014379     0.00084411
H        -0.99220340    -0.05735693    -0.63650178    -0.00147182    -0.00072005    -0.00204848
     6
  Step:    27            Position(A)                                  Velocity(au)
C        -0.04467747     0.05501552    -0.10347061     0.00005977     0.00021401    -0.00022857
N        -0.04618177    -0.07880379     1.40548432     0.00012990    -0.00010204     0.00033482
H         0.96860682    -0.13835527    -0.56878712     0.00048775    -0.00092653    -0.00113668
H         0.90180470     0.01010372     1.92763060     0.00005851     0.00037447     0.00032291
H        -0.90869831    -0.04062989     1.88312480    -0.00157319     0.00014402     0.00097220
H        -1.00051239    -0.06138645    -0.64806437    -0.00149046    -0.00072409    -0.00208753
     6
  Step:    28            Position(A)                                  Velocity(au)
C        -0.04433772     0.05619247    -0.10451677     0.00006123     0.00020804    -0.00014933
N        -0.04538968    -0.07935414     1.40716497     0.00015172    -0.00009544     0.00027019
H         0.97129272    -0.14355582    -0.57523049     0.00046880    -0.00093763    -0.00116980
H         0.90160716     0.01216794     1.92916393    -0.00012488     0.00036620     0.00022929
H        -0.91793713    -0.03982852     1.88885337    -0.00171061     0.00014262     0.00106512
H        -1.00881763    -0.06542839    -0.65977150    -0.00147121    -0.00072402    -0.00209974
     6
  Step:    29            Position(A)                                  Velocity(au)
C        -0.04399473     0.05733543    -0.10513584     0.00006102     0.00020164    -0.00007521
N        -0.04448996    -0.07986803     1.40849722     0.00016828    -0.00008889     0.00020961
H         0.97383443    -0.14881093    -0.58183174     0.00043604    -0.00094521    -0.00119240
H         0.90041219     0.01418721     1.93018744    -0.00029754     0.00035817     0.00014064
H        -0.92777348    -0.03903946     1.89500206    -0.00178627     0.00013943     0.00112210
H        -1.01691806    -0.06946012    -0.67147886    -0.00141787    -0.00071990    -0.00208690
     6
  Step:    30            Position(A)                                  Velocity(au)
C        -0.04365697     0.05844201    -0.10535585     0.00005944     0.00019484    -0.00000613
N        -0.04351233    -0.08034584     1.40950340     0.00017952    -0.00008244     0.00015302
H         0.97615723    -0.15410068    -0.58853298     0.00039047    -0.00094920    -0.00120478
H         0.89828782     0.01616366     1.93073297    -0.00045641     0.00035066     0.00005852
H        -0.93786486    -0.03827305     1.90137160    -0.00180215     0.00013440     0.00114424
H        -1.02463544    -0.07345964    -0.68305309    -0.00133497    -0.00071199    -0.00205145
     6
  Step:    31            Position(A)                                  Velocity(au)
C        -0.04333129     0.05951003    -0.10520421     0.00005678     0.00018770     0.00005807
N        -0.04248629    -0.08078814     1.41020513     0.00018560    -0.00007612     0.00010027
H         0.97819244    -0.15940497    -0.59527834     0.00033329    -0.00094973    -0.00120754
H         0.89531814     0.01810098     1.93084062    -0.00059892     0.00034402    -0.00001570
H        -0.94788727    -0.03753942     1.90777300    -0.00176282     0.00012763     0.00113409
H        -1.03181768    -0.07740670    -0.69437517    -0.00122733    -0.00070074    -0.00199627
     6
  Step:    32            Position(A)                                  Velocity(au)
C        -0.04302301     0.06053771    -0.10470747     0.00005330     0.00018031     0.00011758
N        -0.04144007    -0.08119578     1.41062298     0.00018682    -0.00007000     0.00005112
H         0.97987852    -0.16470462    -0.60201538     0.00026588    -0.00094709    -0.00120146
H         0.89160075     0.02000469     1.93055771    -0.00072295     0.00033858    -0.00008085
H        -0.95754705    -0.03684800     1.91403396    -0.00167456     0.00011930     0.00109513
H        -1.03833880    -0.08128351    -0.70534178    -0.00109963    -0.00068664    -0.00192431
     6
  Step:    33            Position(A)                                  Velocity(au)
C        -0.04273604     0.06152374    -0.10389102     0.00004924     0.00017276     0.00017268
N        -0.04039987    -0.08156992     1.41077603     0.00018359    -0.00006412     0.00000525
H         0.98116185    -0.16998213    -0.60869626     0.00018967    -0.00094166    -0.00118745
H         0.88724419     0.02188225     1.92993770    -0.00082688     0.00033470    -0.00013598
H        -0.96658879    -0.03620706     1.92000342    -0.00154454     0.00010963     0.00103133
H        -1.04409836    -0.08507513    -0.71586597    -0.00095628    -0.00067025    -0.00183854
     6
  Step:    34            Position(A)                                  Velocity(au)
C        -0.04247304     0.06246734    -0.10277874     0.00004481     0.00016515     0.00022368
N        -0.03938945    -0.08191201     1.41068165     0.00017639    -0.00005854    -0.00003768
H         0.98199703    -0.17522231    -0.61527838     0.00010607    -0.00093388    -0.00116649
H         0.88236508     0.02374305     1.92903889    -0.00090959     0.00033271    -0.00018039
H        -0.97479847    -0.03562351     1.92555315    -0.00138028     0.00009887     0.00094685
H        -1.04901975    -0.08876967    -0.72587691    -0.00080129    -0.00065210    -0.00174172
     6
  Step:    35            Position(A)                                  Velocity(au)
C        -0.04223559     0.06336822    -0.10139277     0.00004018     0.00015754     0.00027093
N        -0.03842984    -0.08222377     1.41035517     0.00016569    -0.00005330    -0.00007807
H         0.98234656    -0.18041237    -0.62172454     0.00001642    -0.00092416    -0.00113950
H         0.87708524     0.02559823     1.92792302    -0.00097040     0.00033290    -0.00021359
H        -0.98200479    -0.03510281     1.93057858    -0.00118920     0.00008727     0.00084581
H        -1.05304773    -0.09235824    -0.73531876    -0.00063809    -0.00063268    -0.00163629
     6
  Step:    36            Position(A)                                  Velocity(au)
C        -0.04202439     0.06422654    -0.09975334     0.00003548     0.00015001     0.00031478
N        -0.03753925    -0.08250716     1.40980989     0.00015199    -0.00004842    -0.00011628
H         0.98218039    -0.18554198    -0.62800274    -0.00007805    -0.00091288    -0.00110732
H         0.87152901     0.02746043     1.92665383    -0.00100911     0.00033550    -0.00023538
H        -0.98807777    -0.03464897     1.93499799    -0.00097817     0.00007507     0.00073200
H        -1.05614507    -0.09583455    -0.74414870    -0.00046957    -0.00061240    -0.00152432
     6
  Step:    37            Position(A)                                  Velocity(au)
C        -0.04183948     0.06504278    -0.09787883     0.00003082     0.00014260     0.00035555
N        -0.03673320    -0.08276426     1.40905709     0.00013572    -0.00004392    -0.00015267
H         0.98147530    -0.19060297    -0.63408570    -0.00017620    -0.00090039    -0.00107070
H         0.86582046     0.02934344     1.92529550    -0.00102595     0.00034066    -0.00024579
H        -0.99292418    -0.03426477     1.93874995    -0.00075320     0.00006247     0.00060872
H        -1.05828957    -0.09919452    -0.75233489    -0.00029804    -0.00059159    -0.00140748
     6
  Step:    38            Position(A)                                  Velocity(au)
C        -0.04168043     0.06581770    -0.09578588     0.00002627     0.00013533     0.00039353
N        -0.03602476    -0.08299726     1.40810634     0.00011733    -0.00003982    -0.00018751
H         0.98021428    -0.19558903    -0.63995024    -0.00027698    -0.00088693    -0.00103026
H         0.86008086     0.03126170     1.92391116    -0.00102159     0.00034845    -0.00024514
H        -0.99648236    -0.03395192     1.94179048    -0.00051953     0.00004963     0.00047887
H        -1.05947081    -0.10243579    -0.75985414    -0.00012540    -0.00057047    -0.00128707
     6
  Step:    39            Position(A)                                  Velocity(au)
C        -0.04154645     0.06655221    -0.09348959     0.00002188     0.00012824     0.00042895
N        -0.03542459    -0.08320838     1.40696569     0.00009721    -0.00003611    -0.00022105
H         0.97838596    -0.20049531    -0.64557663    -0.00037944    -0.00087270    -0.00098649
H         0.85442620     0.03322987     1.92256136    -0.00099711     0.00035885    -0.00023399
H        -0.99871870    -0.03371121     1.94409102    -0.00028186     0.00003671     0.00034501
H        -1.05968817    -0.10555727    -0.76669019     0.00004678    -0.00054923    -0.00116415
     6
  Step:    40            Position(A)                                  Velocity(au)
C        -0.04143650     0.06724736    -0.09100380     0.00001769     0.00012133     0.00046200
N        -0.03494101    -0.08339982     1.40564201     0.00007579    -0.00003279    -0.00025346
H         0.97598421    -0.20531805    -0.65094785    -0.00048263    -0.00085781    -0.00093980
H         0.84896484     0.03526229     1.92130257    -0.00095401     0.00037175    -0.00021318
H        -0.99962465    -0.03354265     1.94563675    -0.00004447     0.00002384     0.00020947
H        -1.05894927    -0.10855879    -0.77283235     0.00021710    -0.00052799    -0.00103957
     6
  Step:    41            Position(A)                                  Velocity(au)
C        -0.04134932     0.06790424    -0.08834138     0.00001373     0.00011461     0.00049278
N        -0.03458004    -0.08357371     1.40414135     0.00005348    -0.00002983    -0.00028482
H         0.97300785    -0.21005418    -0.65604912    -0.00058564    -0.00084235    -0.00089052
H         0.84379541     0.03737240     1.92018582    -0.00089419     0.00038692    -0.00018382
H        -0.99921425    -0.03344553     1.94642523     0.00018873     0.00001114     0.00007440
H        -1.05726899    -0.11144084    -0.77827443     0.00038428    -0.00050682    -0.00091404
     6
  Step:    42            Position(A)                                  Velocity(au)
C        -0.04128352     0.06852396    -0.08551467     0.00001003     0.00010807     0.00052134
N        -0.03434531    -0.08373212     1.40246934     0.00003071    -0.00002723    -0.00031517
H         0.96946070    -0.21470106    -0.66086742    -0.00068753    -0.00082634    -0.00083892
H         0.83900438     0.03957217     1.91925503    -0.00082002     0.00040402    -0.00014730
H        -0.99752233    -0.03341852     1.94646544     0.00041404    -0.00000127    -0.00005818
H        -1.05466870    -0.11420426    -0.78301389     0.00054716    -0.00048575    -0.00078817
     6
  Step:    43            Position(A)                                  Velocity(au)
C        -0.04123759     0.06910767    -0.08253576     0.00000660     0.00010172     0.00054767
N        -0.03423803    -0.08387696     1.40063161     0.00000795    -0.00002496    -0.00034445
H         0.96535162    -0.21925623    -0.66539120    -0.00078730    -0.00080978    -0.00078523
H         0.83466377     0.04187149     1.91854549    -0.00073425     0.00042261    -0.00010531
H        -0.99460351    -0.03345963     1.94577730     0.00062785    -0.00001327    -0.00018627
H        -1.05117591    -0.11685008    -0.78705140     0.00070454    -0.00046480    -0.00066253
     6
  Step:    44            Position(A)                                  Velocity(au)
C        -0.04120998     0.06965649    -0.07941690     0.00000346     0.00009556     0.00057167
N        -0.03425680    -0.08401002     1.39863415    -0.00001433    -0.00002299    -0.00037255
H         0.96069478    -0.22371727    -0.66961024    -0.00088394    -0.00079267    -0.00072970
H         0.83082911     0.04427758     1.91808249    -0.00064001     0.00044216    -0.00005975
H        -0.99053181    -0.03356627     1.94439150     0.00082656    -0.00002475    -0.00030785
H        -1.04682426    -0.11937939    -0.79039058     0.00085524    -0.00044398    -0.00053770
     6