     6
  Step:     0            Position(A)                                  Velocity(au)
C        -0.03625530     0.00953790     0.03204706     0.00018240     0.00007881    -0.00021540
N        -0.03730746    -0.06434079     1.28285972     0.00005249    -0.00002348     0.00024988
H         0.92459233     0.04458463    -0.53668435    -0.00025846    -0.00042316    -0.00028334
H         0.78810961    -0.05894088     1.87000840    -0.00038785     0.00004464    -0.00101244
H        -0.96655616     0.02908203     1.86997636    -0.00128452    -0.00009509     0.00029176
H        -1.00862599     0.09594493    -0.52020346    -0.00097212    -0.00013928     0.00009827
     6
  Step:     1            Position(A)                                  Velocity(au)
C        -0.03428434     0.01046358     0.02877411     0.00017542     0.00009021    -0.00037528
N        -0.03695147    -0.06465561     1.28649986     0.00000764    -0.00003360     0.00040667
H         0.92171398     0.04002378    -0.54034063    -0.00026092    -0.00041143    -0.00039052
H         0.78472239    -0.05837003     1.85968586    -0.00018612     0.00006072    -0.00083588
H        -0.97834047     0.02794289     1.87183235    -0.00084398    -0.00011563     0.00003640
H        -1.01900961     0.09441762    -0.51966521    -0.00090552    -0.00014170     0.00001051
     6
  Step:     2            Position(A)                                  Velocity(au)
C        -0.03241773     0.01151133     0.02383716     0.00016380     0.00010088    -0.00051618
N        -0.03714023    -0.06507588     1.29175645    -0.00004534    -0.00004267     0.00054251
H         0.91888427     0.03558375    -0.54522771    -0.00024920    -0.00040121    -0.00050832
H         0.78403784    -0.05761249     1.85172195     0.00009600     0.00007878    -0.00059091
H        -0.98501984     0.02655238     1.87077274    -0.00036701    -0.00013958    -0.00023007
H        -1.02843594     0.09284498    -0.51997354    -0.00080163    -0.00014712    -0.00005885
     6
  Step:     3            Position(A)                                  Velocity(au)
C        -0.03070087     0.01267050     0.01748179     0.00014860     0.00011039    -0.00063233
N        -0.03794338    -0.06558919     1.29836825    -0.00010232    -0.00005058     0.00065294
H         0.91626226     0.03124654    -0.55146115    -0.00022346    -0.00039275    -0.00063599
H         0.78682267    -0.05664659     1.84675862     0.00042971     0.00009876    -0.00030240
H        -0.98636948     0.02488927     1.86679907     0.00011476    -0.00016403    -0.00048574
H        -1.03654678     0.09119913    -0.52095275    -0.00066979    -0.00015465    -0.00011448
     6
  Step:     4            Position(A)                                  Velocity(au)
C        -0.02916690     0.01392640     0.01000372     0.00013098     0.00011845    -0.00072038
N        -0.03937877    -0.06618237     1.30604069    -0.00015805    -0.00005730     0.00073605
H         0.91399562     0.02699148    -0.55914121    -0.00018578    -0.00038629    -0.00077139
H         0.79343859    -0.05545192     1.84510640     0.00077274     0.00012044    -0.00000321
H        -0.98250925     0.02296381     1.86014629     0.00056813    -0.00018595    -0.00070886
H        -1.04308890     0.08946176    -0.52247808    -0.00051955    -0.00016346    -0.00016085
     6
  Step:     5            Position(A)                                  Velocity(au)
C        -0.02783540     0.01526192     0.00172200     0.00011222     0.00012490    -0.00077928
N        -0.04140109    -0.06684284     1.31447074    -0.00020652    -0.00006298     0.00079176
H         0.91219805     0.02279577    -0.56833681    -0.00014017    -0.00038196    -0.00091097
H         0.80372791    -0.05401183     1.84668832     0.00107746     0.00014332     0.00027257
H        -0.97394056     0.02082137     1.85129138     0.00095547    -0.00020182    -0.00087645
H        -1.04791303     0.08762309    -0.52447161    -0.00036017    -0.00017285    -0.00020193
     6
  Step:     6            Position(A)                                  Velocity(au)
C        -0.02671189     0.01665894    -0.00704444     0.00008857     0.00013663    -0.00093750
N        -0.04389670    -0.06756010     1.32336203    -0.00024139    -0.00007491     0.00092354
H         0.91092907     0.01863538    -0.57907050    -0.00013968    -0.00036916    -0.00094978
H         0.81700999    -0.05231645     1.85106937     0.00125150     0.00016811     0.00045018
H        -0.96160645     0.01854860     1.84097237     0.00128632    -0.00019706    -0.00100295
H        -1.05096833     0.08568042    -0.52689580    -0.00009913    -0.00018914    -0.00016006
     6
  Step:     7            Position(A)                                  Velocity(au)
C        -0.02589778     0.01825106    -0.01878769     0.00006003     0.00015302    -0.00118820
N        -0.04668194    -0.06848161     1.33467505    -0.00025635    -0.00009297     0.00112468
H         0.90914226     0.01471958    -0.58911516    -0.00017868    -0.00035517    -0.00089036
H         0.83110688    -0.05033401     1.85653680     0.00127068     0.00020159     0.00052393
H        -0.94579993     0.01651019     1.82934998     0.00150299    -0.00017580    -0.00105917
H        -1.05008158     0.08348524    -0.52797333     0.00025206    -0.00020217    -0.00004470
     6
  Step:     8            Position(A)                                  Velocity(au)
C        -0.02539869     0.02000654    -0.03303861     0.00003150     0.00016631    -0.00139440
N        -0.04950489    -0.06959393     1.34796648    -0.00024651    -0.00010988     0.00128336
H         0.90702017     0.01086531    -0.59854886    -0.00019587    -0.00035098    -0.00084188
H         0.84480855    -0.04790636     1.86253140     0.00118455     0.00024163     0.00055171
H        -0.92872569     0.01470262     1.81780108     0.00148948    -0.00014444    -0.00097623
H        -1.04545405     0.08125752    -0.52787367     0.00057204    -0.00020107     0.00004796
     6
  Step:     9            Position(A)                                  Velocity(au)
C        -0.02520858     0.02188940    -0.04929279     0.00000437     0.00017629    -0.00155490
N        -0.05207484    -0.07088550     1.36275111    -0.00020976    -0.00012594     0.00139801
H         0.90485712     0.00704127    -0.60753300    -0.00018269    -0.00034849    -0.00081129
H         0.85702111    -0.04504788     1.86860656     0.00100801     0.00027928     0.00054537
H        -0.91321476     0.01335033     1.80799311     0.00120290    -0.00008928    -0.00073736
H        -1.03756710     0.07908636    -0.52692403     0.00083448    -0.00019217     0.00010420
     6
  Step:    10            Position(A)                                  Velocity(au)
C        -0.02530301     0.02386315    -0.06705497    -0.00001943     0.00018301    -0.00167189
N        -0.05409369    -0.07234902     1.37855065    -0.00014776    -0.00014144     0.00147138
H         0.90302341     0.00324132    -0.61629733    -0.00013405    -0.00034627    -0.00080347
H         0.86686068    -0.04179650     1.87446240     0.00076324     0.00031354     0.00051888
H        -0.90241004     0.01274949     1.80167001     0.00064359    -0.00000710    -0.00035158
H        -1.02719810     0.07705336    -0.52559409     0.00101201    -0.00017547     0.00011166
     6
  Step:    11            Position(A)                                  Velocity(au)
C        -0.02563362     0.02589311    -0.08586858    -0.00003756     0.00018671    -0.00174966
N        -0.05530735    -0.07397981     1.39494032    -0.00006736    -0.00015644     0.00151005
H         0.90192443    -0.00053407    -0.62511046    -0.00004900    -0.00034391    -0.00082040
H         0.87371851    -0.03818859     1.87995796     0.00047752     0.00034507     0.00048669
H        -0.89913489     0.01319496     1.80030153    -0.00012274     0.00009809     0.00013864
H        -1.01542740     0.07524755    -0.52448133     0.00107785    -0.00015031     0.00005991
     6
  Step:    12            Position(A)                                  Velocity(au)
C        -0.02612469     0.02794786    -0.10533211    -0.00004763     0.00018771    -0.00179349
N        -0.05556739    -0.07577137     1.41158579     0.00001969    -0.00017054     0.00152298
H         0.90195143    -0.00428229    -0.63424508     0.00006880    -0.00034113    -0.00086092
H         0.87730736    -0.03424753     1.88510963     0.00018151     0.00037539     0.00046285
H        -0.90509523     0.01489549     1.80470304    -0.00096660     0.00021501     0.00066318
H        -1.00361799     0.07376506    -0.52428351     0.00101015    -0.00011634    -0.00005772
     6
  Step:    13            Position(A)                                  Velocity(au)
C        -0.02667555     0.02999973    -0.12510456    -0.00004783     0.00018637    -0.00180891
N        -0.05487657    -0.07771060     1.42825840     0.00009947    -0.00018306     0.00151927
H         0.90342949    -0.00799697    -0.64394469     0.00021103    -0.00033776    -0.00092089
H         0.87768950    -0.02997632     1.89008364    -0.00009283     0.00040677     0.00046023
H        -0.92028109     0.01789874     1.81480979    -0.00172944     0.00032781     0.00114492
H        -0.99332850     0.07270248    -0.52574408     0.00079890    -0.00007380    -0.00024157
     6
  Step:    14            Position(A)                                  Velocity(au)
C        -0.02717113     0.03202514    -0.14490550    -0.00003773     0.00018305    -0.00180128
N        -0.05339125    -0.07977625     1.44482277     0.00015983    -0.00019340     0.00150596
H         0.90656802    -0.01167144    -0.65439140     0.00036564    -0.00033352    -0.00099385
H         0.87527643    -0.02534874     1.89517810    -0.00031495     0.00044212     0.00048985
H        -0.94293002     0.02206695     1.82975038    -0.00227568     0.00042140     0.00152421
H        -0.98614063     0.07215055    -0.52956833     0.00045350    -0.00002375    -0.00048343
     6
  Step:    15            Position(A)                                  Velocity(au)
C        -0.02750100     0.03400435    -0.16451106    -0.00001880     0.00017808    -0.00177549
N        -0.05137997    -0.08194162     1.46120416     0.00019340    -0.00020128     0.00148688
H         0.91142847    -0.01529343    -0.66568712     0.00051855    -0.00032780    -0.00107217
H         0.87079932    -0.02030411     1.90079995    -0.00045886     0.00048476     0.00055999
H        -0.97006591     0.02711771     1.84815472    -0.00253086     0.00048612     0.00177250
H        -0.98340735     0.07218288    -0.53632005     0.00000761     0.00003183    -0.00076583
     6
  Step:    16            Position(A)                                  Velocity(au)
C        -0.02758248     0.03592101    -0.18374768     0.00000557     0.00017177    -0.00173598
N        -0.04916024    -0.08417954     1.47735119     0.00019833    -0.00020687     0.00146316
H         0.91791237    -0.01884273    -0.67784721     0.00065559    -0.00031981    -0.00114821
H         0.86523805    -0.01474362     1.90742886    -0.00050722     0.00053812     0.00067486
H        -0.99829735     0.03270170     1.86852718    -0.00248771     0.00051928     0.00189087
H        -0.98597422     0.07284695    -0.54632222    -0.00048316     0.00009035    -0.00106413
     6
  Step:    17            Position(A)                                  Velocity(au)
C        -0.02737913     0.03776204    -0.20248902     0.00003087     0.00016439    -0.00168693
N        -0.04704110    -0.08646734     1.49321364     0.00017717    -0.00021072     0.00143466
H         0.92577084    -0.02228988    -0.69080647     0.00076425    -0.00030870    -0.00121530
H         0.85970285    -0.00853176     1.91556381    -0.00045573     0.00060510     0.00083293
H        -1.02448937     0.03847803     1.88952114    -0.00218653     0.00052387     0.00189876
H        -0.99397733     0.07415941    -0.55959991    -0.00095198     0.00014903    -0.00135142
     6
  Step:    18            Position(A)                                  Velocity(au)
C        -0.02690704     0.03951742    -0.22065253     0.00005267     0.00015622    -0.00163194
N        -0.04528425    -0.08878951     1.50873711     0.00013521    -0.00021348     0.00140116
H         0.93463182    -0.02559611    -0.70443422     0.00083501    -0.00029369    -0.00126837
H         0.85526799    -0.00150598     1.92565074    -0.00031627     0.00068730     0.00102569
H        -1.04613192     0.04416244     1.91006624    -0.00168892     0.00050594     0.00182214
H        -1.00680065     0.07610717    -0.57588710    -0.00133641     0.00020544    -0.00160419
     6
  Step:    19            Position(A)                                  Velocity(au)
C        -0.02622692     0.04117971    -0.23819083     0.00006768     0.00014746    -0.00157371
N        -0.04408307    -0.09113765     1.52386662     0.00007909    -0.00021571     0.00136292
H         0.94403824    -0.02871499    -0.71855455     0.00086203    -0.00027420    -0.00130426
H         0.85278380     0.00650427     1.93800267    -0.00011707     0.00078422     0.00123774
H        -1.06143778     0.04954645     1.92938388    -0.00105861     0.00047245     0.00168595
H        -1.02321385     0.07865376    -0.59469472    -0.00159195     0.00025783    -0.00180662
     6
  Step:    20            Position(A)                                  Velocity(au)
C        -0.02542648     0.04274345    -0.25508048     0.00007431     0.00013827    -0.00151395
N        -0.04355390    -0.09350853     1.53855351     0.00001590    -0.00021776     0.00132076
H         0.95349038    -0.03159470    -0.73296743     0.00084322    -0.00024986    -0.00132162
H         0.85270680     0.01565040     1.95272864     0.00010129     0.00089280     0.00144860
H        -1.06929113     0.05449824     1.94694962    -0.00035286     0.00043018     0.00151138
H        -1.04162761     0.08174773    -0.61541046    -0.00169823     0.00030523    -0.00195185
     6
  Step:    21            Position(A)                                  Velocity(au)
C        -0.02460114     0.04420466    -0.27131140     0.00007256     0.00012876    -0.00145351
N        -0.04373516    -0.09590155     1.55276079    -0.00004747    -0.00021979     0.00127580
H         0.96248538    -0.03418114    -0.74746753     0.00077986    -0.00022062    -0.00132066
H         0.85499980     0.02603591     1.96969346     0.00029392     0.00100763     0.00163614
H        -1.06915717     0.05895749     1.96244813     0.00037827     0.00038556     0.00131619
H        -1.06036584     0.08533115    -0.63739509    -0.00165701     0.00034732    -0.00204059
     6
  Step:    22            Position(A)                                  Velocity(au)
C        -0.02383916     0.04556041    -0.28687870     0.00006341     0.00011903    -0.00139262
N        -0.04459241    -0.09831691     1.56646400    -0.00010476    -0.00022187     0.00122898
H         0.97055132    -0.03642109    -0.76185941     0.00067607    -0.00018669    -0.00130283
H         0.85913696     0.03769418     1.98852235     0.00042105     0.00112191     0.00178069
H        -1.06101573     0.06293316     1.97574384     0.00108827     0.00034522     0.00111667
H        -1.07787781     0.08934601    -0.66005229    -0.00148527     0.00038428    -0.00207848
     6
  Step:    23            Position(A)                                  Velocity(au)
C        -0.02321392     0.04680869    -0.30177754     0.00004833     0.00010915    -0.00133117
N        -0.04602695    -0.10075535     1.57964712    -0.00015050    -0.00022412     0.00118073
H         0.97727572    -0.03826530    -0.77596947     0.00053824    -0.00014856    -0.00127049
H         0.86421108     0.05057980     2.00864955     0.00045556     0.00122875     0.00186826
H        -1.04534910     0.06650986     1.98687753     0.00172922     0.00031690     0.00093000
H        -1.09285900     0.09373812    -0.68286578    -0.00120756     0.00041656    -0.00207336
     6
  Step:    24            Position(A)                                  Velocity(au)
C        -0.02278183     0.04794837    -0.31600053     0.00002883     0.00009922    -0.00126888
N        -0.04788489    -0.10321988     1.59229465    -0.00018002    -0.00022689     0.00113064
H         0.98232632    -0.03967114    -0.78965391     0.00037430    -0.00010692    -0.00122658
H         0.86910313     0.06457551     2.02939411     0.00038641     0.00132247     0.00189206
H        -1.02318570     0.06986587     1.99608936     0.00224790     0.00031043     0.00077620
H        -1.10429546     0.09845895    -0.70541095    -0.00085047     0.00044469    -0.00203354
     6
  Step:    25            Position(A)                                  Velocity(au)
C        -0.02258327     0.04897921    -0.32953662     0.00000626     0.00008930    -0.00120539
N        -0.04996530    -0.10571908     1.60438206    -0.00018937    -0.00023091     0.00107752
H         0.98546427    -0.04060445    -0.80280316     0.00019313    -0.00006261    -0.00117428
H         0.87266450     0.07951143     2.05004187     0.00021797     0.00139944     0.00185228
H        -0.99617200     0.07330118     2.00385842     0.00258552     0.00033844     0.00067882
H        -1.11146466     0.10346660    -0.72735331    -0.00043968     0.00046932    -0.00196691
     6
  Step:    26            Position(A)                                  Velocity(au)
C        -0.02264478     0.04990195    -0.34237084    -0.00001817     0.00007949    -0.00114036
N        -0.05202781    -0.10827138     1.61586744    -0.00017554    -0.00023719     0.00101961
H         0.98655133    -0.04104080    -0.81534354     0.00000406    -0.00001651    -0.00111692
H         0.87387155     0.09519104     2.06991623    -0.00003349     0.00145840     0.00175464
H        -0.96662253     0.07726987     2.01093987     0.00268424     0.00041576     0.00066280
H        -1.11391421     0.10872623    -0.74844085     0.00000106     0.00049115    -0.00188074
     6
  Step:    27            Position(A)                                  Velocity(au)
C        -0.02298076     0.05071827    -0.35448426    -0.00004341     0.00006988    -0.00107342
N        -0.05380559    -0.11090812     1.62668789    -0.00013732    -0.00024691     0.00095521
H         0.98555308    -0.04096563    -0.82723790    -0.00018336     0.00003038    -0.00105784
H         0.87193176     0.11141682     2.08842790    -0.00034386     0.00150048     0.00160861
H        -0.93744921     0.08239682     2.01835849     0.00250318     0.00055668     0.00074803
H        -1.11144146     0.11421141    -0.76849811     0.00044962     0.00051095    -0.00178187
     6
  Step:    28            Position(A)                                  Velocity(au)
C        -0.02359453     0.05143061    -0.36585386    -0.00006844     0.00006051    -0.00100418
N        -0.05503202    -0.11367310     1.63676443    -0.00007675    -0.00026093     0.00088356
H         0.98253992    -0.04037609    -0.83848589    -0.00035976     0.00007704    -0.00100033
H         0.86634900     0.12801697     2.10510762    -0.00068443     0.00152905     0.00142606
H        -0.91186064     0.08944841     2.02730441     0.00204138     0.00076919     0.00093890
H        -1.10407785     0.11990432    -0.78742277     0.00088487     0.00052967    -0.00167706
     6
  Step:    29            Position(A)                                  Velocity(au)
C        -0.02447800     0.05204195    -0.37645254    -0.00009214     0.00005141    -0.00093226
N        -0.05548469    -0.11661650     1.64601736    -0.00000031    -0.00027927     0.00080563
H         0.97768263    -0.03928031    -0.84912208    -0.00051630     0.00012246    -0.00094744
H         0.85695865     0.14486761     2.11962567    -0.00102426     0.00154945     0.00122031
H        -0.89279004     0.09922439     2.03889878     0.00135700     0.00104759     0.00121399
H        -1.09208316     0.12579904    -0.80518703     0.00128571     0.00054858    -0.00157343
     6
  Step:    30            Position(A)                                  Velocity(au)
C        -0.02561024     0.05255537    -0.38624885    -0.00011325     0.00004257    -0.00085725
N        -0.05503870    -0.11978259     1.65438924     0.00008128    -0.00030072     0.00072442
H         0.97124480    -0.03769697    -0.85921301    -0.00064502     0.00016574    -0.00090188
H         0.84394127     0.16191411     2.13180432    -0.00133206     0.00156893     0.00100561
H        -0.88217355     0.11236652     2.05386274     0.00056658     0.00136755     0.00152336
H        -1.07595056     0.13190560    -0.82184455     0.00163036     0.00056938    -0.00147891
     6
  Step:    31            Position(A)                                  Velocity(au)
C        -0.02695547     0.05297330    -0.39520643    -0.00013032     0.00003388    -0.00077866
N        -0.05370645    -0.12319539     1.66186538     0.00015533    -0.00032305     0.00064409
H         0.96357161    -0.03565448    -0.86885254    -0.00073916     0.00020604    -0.00086583
H         0.82781732     0.17919089     2.14162537    -0.00157816     0.00159631     0.00079651
H        -0.88039510     0.12914227     2.07222511    -0.00018479     0.00168873     0.00179975
H        -1.05641588     0.13825535    -0.83754111     0.00189639     0.00059432    -0.00140248
     6
  Step:    32            Position(A)                                  Velocity(au)
C        -0.02846126     0.05329664    -0.40328351    -0.00014182     0.00002516    -0.00069601
N        -0.05164045    -0.12684992     1.66848001     0.00021078    -0.00034368     0.00056859
H         0.95507425    -0.03318946    -0.87815462    -0.00079368     0.00024272    -0.00084061
H         0.80941606     0.19683648     2.14922944    -0.00173743     0.00164128     0.00060674
H        -0.88621616     0.14931062     2.09323574    -0.00076969     0.00196574     0.00198006
H        -1.03446338     0.14490758    -0.85252646     0.00206163     0.00062626    -0.00135395
     6
  Step:    33            Position(A)                                  Velocity(au)
C        -0.03005806     0.05352369    -0.41043292    -0.00014629     0.00001612    -0.00060887
N        -0.04909524    -0.13071395     1.67430447     0.00024104    -0.00036057     0.00050033
H         0.94620824    -0.03034460    -0.88724252    -0.00080578     0.00027535    -0.00082644
H         0.78980773     0.21509704     2.15489889    -0.00179295     0.00171283     0.00044732
H        -0.89723353     0.17214649     2.11554262    -0.00111450     0.00216181     0.00202473
H        -1.01131371     0.15195596    -0.86716143     0.00210680     0.00066851    -0.00134310
     6
  Step:    34            Position(A)                                  Velocity(au)
C        -0.03166165     0.05364934    -0.41660362    -0.00014273     0.00000644    -0.00051708
N        -0.04636721    -0.13473816     1.67942563     0.00024487    -0.00037269     0.00043985
H         0.93744619    -0.02716574    -0.89623449    -0.00077533     0.00030378    -0.00082207
H         0.77019183     0.23430792     2.15901544    -0.00173965     0.00181692     0.00032418
H        -0.91059794     0.19660438     2.13753048    -0.00120717     0.00225713     0.00192460
H        -0.98837303     0.15953246    -0.88190942     0.00202016     0.00072441    -0.00137749
     6
  Step:    35            Position(A)                                  Velocity(au)
C        -0.03318063     0.05366466    -0.42174510    -0.00013107    -0.00000420    -0.00042106
N        -0.04373828    -0.13886732     1.68392704     0.00022534    -0.00037974     0.00038647
H         0.92924639    -0.02369882    -0.90522695    -0.00070511     0.00032814    -0.00082473
H         0.75174949     0.25484571     2.16199101    -0.00158688     0.00195356     0.00023591
H        -0.92364265     0.22152549     2.15764699    -0.00108081     0.00224879     0.00169483
H        -0.96711884     0.16780386    -0.89729660     0.00180329     0.00079646    -0.00145926
     6
  Step:    36            Position(A)                                  Velocity(au)
C        -0.03452912     0.05355747    -0.42581509    -0.00011253    -0.00001602    -0.00032204
N        -0.04143756    -0.14304565     1.68788045     0.00018811    -0.00038161     0.00033915
H         0.92202064    -0.01998703    -0.91427709    -0.00060080     0.00034879    -0.00083002
H         0.73547574     0.27704583     2.16417647    -0.00135840     0.00211439     0.00017284
H        -0.93424273     0.24580101     2.17460822    -0.00078964     0.00214544     0.00136336
H        -0.94892269     0.17695661    -0.91383360     0.00147568     0.00088520    -0.00158173
     6
  Step:    37            Position(A)                                  Velocity(au)
C        -0.03564238     0.05331417    -0.42879043    -0.00008966    -0.00002904    -0.00022228
N        -0.03962306    -0.14721574     1.69134666     0.00013980    -0.00037790     0.00029710
H         0.91610273    -0.01606834    -0.92338513    -0.00047073     0.00036626    -0.00083206
H         0.72203181     0.30110211     2.16577218    -0.00108857     0.00228207     0.00011851
H        -0.94091755     0.26846101     2.18747306    -0.00039025     0.00196087     0.00096100
H        -0.93483559     0.18716936    -0.93190001     0.00107523     0.00098820    -0.00172737
     6
  Step:    38            Position(A)                                  Velocity(au)
C        -0.03649067     0.05292225    -0.43067794    -0.00006595    -0.00004303    -0.00012485
N        -0.03837916    -0.15131297     1.69438008     0.00008679    -0.00036773     0.00025986
H         0.91172260    -0.01197440    -0.93248004    -0.00032513     0.00038111    -0.00082394
H         0.71166115     0.32697039     2.16676903    -0.00081533     0.00243220     0.00005354
H        -0.94278018     0.28869889     2.19563195     0.00006774     0.00170973     0.00051604
H        -0.92540001     0.19857534    -0.95162306     0.00065246     0.00109970    -0.00186920
     6
  Step:    39            Position(A)                                  Velocity(au)
C        -0.03708521     0.05237288    -0.43152167    -0.00004493    -0.00005758    -0.00003315
N        -0.03772430    -0.15526052     1.69703170     0.00003451    -0.00034994     0.00022708
H         0.90898996    -0.00773082    -0.94141037    -0.00017518     0.00039380    -0.00079821
H         0.70419490     0.35431123     2.16694345    -0.00057228     0.00253795    -0.00003935
H        -0.93943563     0.30586470     2.19876248     0.00054360     0.00140572     0.00005272
H        -0.92056171     0.21122732    -0.97279224     0.00025967     0.00121144    -0.00197577
     6
  Step:    40            Position(A)                                  Velocity(au)
C        -0.03747355     0.05166259    -0.43140316    -0.00002930    -0.00007220     0.00004973
N        -0.03762425    -0.15896849     1.69934786    -0.00001289    -0.00032353     0.00019807
H         0.90789023    -0.00335929    -0.94994246    -0.00003179     0.00040452    -0.00074772
H         0.69914134     0.38249283     2.16590821    -0.00038250     0.00257538    -0.00017113
H        -0.93088798     0.31945161     2.19678537     0.00100325     0.00106190    -0.00040792
H        -0.91971921     0.22507794    -0.99484672    -0.00006075     0.00131437    -0.00201826
     6
  Step:    41            Position(A)                                  Velocity(au)
C        -0.03772616     0.05079332    -0.43043373    -0.00002042    -0.00008644     0.00012165
N        -0.03800628    -0.16233829     1.70136476    -0.00005239    -0.00028813     0.00017156
H         0.90829441     0.00111881    -0.95776815     0.00009554     0.00041307    -0.00066644
H         0.69582688     0.41065250     2.16319962    -0.00025604     0.00252802    -0.00034459
H        -0.91748763     0.32909574     2.18983855     0.00141540     0.00069234    -0.00084619
H        -0.92189068     0.23998168    -1.01694552    -0.00028360     0.00140045    -0.00197649
     6
  Step:    42            Position(A)                                  Velocity(au)
C        -0.03792032     0.04977163    -0.42874178    -0.00001830    -0.00009992     0.00018171
N        -0.03877032    -0.16527188     1.70310105    -0.00008176    -0.00024434     0.00014564
H         0.90998037     0.00567747    -0.96452213     0.00019964     0.00041882    -0.00055034
H         0.69354007     0.43779807     2.15836956    -0.00019129     0.00238904    -0.00055512
H        -0.89992335     0.33459786     2.17827330     0.00174767     0.00031431    -0.00124197
H        -0.92592347     0.25571546    -1.03808631    -0.00040191     0.00146395    -0.00184173
     6
  Step:    43            Position(A)                                  Velocity(au)
C        -0.03812644     0.04860731    -0.42645843    -0.00002194    -0.00011241     0.00023021
N        -0.03979485    -0.16768378     1.70455081    -0.00009908    -0.00019392     0.00011781
H         0.91266181     0.01028125    -0.96980781     0.00027604     0.00042074    -0.00039795
H         0.69164205     0.46291728     2.15105536    -0.00017853     0.00216113    -0.00079301
H        -0.87925397     0.33597193     2.16266815     0.00196363    -0.00004946    -0.00157342
H        -0.93068315     0.27200835    -1.05723685    -0.00042293     0.00150178    -0.00161604
     6
  Step:    44            Position(A)                                  Velocity(au)
C        -0.03840027     0.04731251    -0.42370550    -0.00002990    -0.00012371     0.00026837
N        -0.04093785    -0.16951430     1.70567844    -0.00010242    -0.00013974     0.00008531
H         0.91601929     0.01488200    -0.97322806     0.00032313     0.00041766    -0.00021068
H         0.68963445     0.48507703     2.14102094    -0.00020374     0.00185493    -0.00104609
H        -0.85696511     0.33351589     2.14385169     0.00202230    -0.00036991    -0.00181728
H        -0.93517583     0.28856983    -1.07344029    -0.00036209     0.00151320    -0.00130940
     6