 Fermi distribution function

Calculation with static geometry


********************************************************************************
 iSCC Total electronic   Diff electronic      SCC error    
   10   -0.54028400E+01   -0.18296475E-12    0.30951629E-07
********************************************************************************

 Total charge:     1.00000000

 Atomic gross charges (e)
 Atom           Charge
    1       0.14679187
    2      -0.03560555
    3       0.18636364
    4       0.27171377
    5       0.27377544
    6       0.15696083

Nr. of electrons (up):     12.00000000
Atom populations (up)
 Atom       Population
    1       3.85320813
    2       5.03560555
    3       0.81363636
    4       0.72828623
    5       0.72622456
    6       0.84303917

l-shell populations (up)
 Atom Sh.   l       Population
    1   1   0       1.32799999
    1   2   1       2.52520814
    2   1   0       1.42814762
    2   2   1       3.60745793
    3   1   0       0.81363636
    4   1   0       0.72828623
    5   1   0       0.72622456
    6   1   0       0.84303917

Orbital populations (up)
 Atom Sh.   l   m       Population  Label
    1   1   0   0       1.32799999  s
    1   2   1  -1       0.61018864  p_y
    1   2   1   0       0.87202293  p_z
    1   2   1   1       1.04299657  p_x
    2   1   0   0       1.42814762  s
    2   2   1  -1       1.32635480  p_y
    2   2   1   0       1.12167858  p_z
    2   2   1   1       1.15942455  p_x
    3   1   0   0       0.81363636  s
    4   1   0   0       0.72828623  s
    5   1   0   0       0.72622456  s
    6   1   0   0       0.84303917  s

Fermi level:                        -0.5014457488 H          -13.6450 eV
Band energy:                        -8.9303206188 H         -243.0064 eV
TS:                                  0.0000000000 H            0.0000 eV
Band free energy (E-TS):            -8.9303206188 H         -243.0064 eV
Extrapolated E(0K):                 -8.9303206188 H         -243.0064 eV
Input / Output electrons (q):     12.0000000000     12.0000000000

Energy H0:                          -5.5367187039 H         -150.6618 eV
Energy SCC:                          0.1338786569 H            3.6430 eV
Total Electronic energy:            -5.4028400470 H         -147.0188 eV
Repulsive energy:                    0.1819380204 H            4.9508 eV
Total energy:                       -5.2209020266 H         -142.0680 eV
Extrapolated to 0:                  -5.2209020266 H         -142.0680 eV
Total Mermin free energy:           -5.2209020266 H         -142.0680 eV
Force related energy:               -5.2209020266 H         -142.0680 eV

SCC converged

Excitation Energy:                   0.1453586099 H            3.9554 eV

Total Forces
    1      0.003281038901     -0.009433795225      0.046783469177
    2     -0.002759986110      0.000980926065     -0.057365310835
    3     -0.009165832532     -0.001153563559      0.000269720713
    4     -0.001664397812      0.007441151088      0.007199671038
    5      0.005290922549     -0.002569070097      0.002652728322
    6      0.005018255004      0.004734351728      0.000459721585

Maximal derivative component:        0.573653E-01 au


