|===============================================================================
|
|  DFTB+ release 20.1
|
|  Copyright (C) 2006 - 2020  DFTB+ developers group
|
|===============================================================================
|
|  When publishing results obtained with DFTB+, please cite the following
|  reference:
|
|  * DFTB+, a software package for efficient approximate density functional
|    theory based atomistic simulations, J. Chem. Phys. 152, 124101 (2020).
|    [doi: 10.1063/1.5143190]
|
|  You should also cite additional publications crediting the parametrization
|  data you use. Please consult the documentation of the SK-files for the
|  references.
|
|===============================================================================

Reading input file 'dftb_in.hsd'
Parser version: 8

--------------------------------------------------------------------------------
Reading SK-files:
Done.


Processed input in HSD format written to 'dftb_pin.hsd'

Starting initialization...
--------------------------------------------------------------------------------
WARNING!
-> Excited state forces are not implemented yet for fractional occupations, kT=  0.3158E-02K
OpenMP threads:              1
Chosen random seed:          506585093
Mode:                        Static calculation
Self consistent charges:     Yes
SCC-tolerance:                 0.100000E-05
Max. scc iterations:                    100
Shell resolved Hubbard:      No
Spin polarisation:           No
Nr. of up electrons:             6.000000
Nr. of down electrons:           6.000000
Periodic boundaries:         No
Electronic solver:           Relatively robust
Mixer:                       Broyden mixer
Mixing parameter:                  0.200000
Maximal SCC-cycles:                     100
Nr. of chrg. vec. in memory:              0
Electronic temperature:        0.100000E-07 H      0.272114E-06 eV
Initial charges:             Set automatically (system chrg:   0.100E+01)
Included shells:             C:  s, p
                             N:  s, p
                             H:  s
Extra options:
                             Mulliken analysis
                             Force calculation
Force type                   original
                             Eigenvector printing

--------------------------------------------------------------------------------

***  Geometry step: 0

 iSCC Total electronic   Diff electronic      SCC error    
    1   -0.53967334E+01    0.00000000E+00    0.61768165E+00
    2   -0.54001903E+01   -0.34568250E-02    0.42056816E+00
    3   -0.54025648E+01   -0.23745073E-02    0.65497785E-01
    4   -0.54028381E+01   -0.27331843E-03    0.15546078E-01
    5   -0.54028361E+01    0.19737093E-05    0.55112021E-02
    6   -0.54028400E+01   -0.39425357E-05    0.24649131E-03
    7   -0.54028400E+01   -0.12656551E-08    0.51035957E-04
    8   -0.54028400E+01   -0.90343732E-10    0.42241003E-05
    9   -0.54028400E+01   -0.75051076E-12    0.20539710E-05
   10   -0.54028400E+01   -0.18296475E-12    0.30951629E-07
>> Charges saved for restart in charges.bin

Total Energy:                       -5.0755434167 H         -138.1126 eV
Extrapolated to 0:                  -5.2209020266 H         -142.0680 eV
Total Mermin free energy:           -5.0755434167 H         -138.1126 eV
Force related energy:               -5.2209020266 H         -142.0680 eV

--------------------------------------------------------------------------------
DFTB+ running times                          cpu [s]             wall clock [s]
--------------------------------------------------------------------------------
SCC                                    +     0.01  ( 64.1%)      0.07  ( 74.2%)
Post-SCC processing                    +     0.00  ( 28.2%)      0.01  ( 13.4%)
--------------------------------------------------------------------------------
Missing                                +     0.00  (  7.7%)      0.01  ( 12.4%)
Total                                  =     0.02  (100.0%)      0.10  (100.0%)
--------------------------------------------------------------------------------
