|===============================================================================
|
|  DFTB+ release 20.1
|
|  Copyright (C) 2006 - 2020  DFTB+ developers group
|
|===============================================================================
|
|  When publishing results obtained with DFTB+, please cite the following
|  reference:
|
|  * DFTB+, a software package for efficient approximate density functional
|    theory based atomistic simulations, J. Chem. Phys. 152, 124101 (2020).
|    [doi: 10.1063/1.5143190]
|
|  You should also cite additional publications crediting the parametrization
|  data you use. Please consult the documentation of the SK-files for the
|  references.
|
|===============================================================================

Reading input file 'dftb_in.hsd'
Parser version: 8

--------------------------------------------------------------------------------
Reading SK-files:
Done.


Processed input in HSD format written to 'dftb_pin.hsd'

Starting initialization...
--------------------------------------------------------------------------------
WARNING!
-> Excited state forces are not implemented yet for fractional occupations, kT=  0.3158E-02K
OpenMP threads:              1
Chosen random seed:          505976115
Mode:                        Static calculation
Self consistent charges:     Yes
SCC-tolerance:                 0.100000E-05
Max. scc iterations:                    100
Shell resolved Hubbard:      No
Spin polarisation:           No
Nr. of up electrons:             6.000000
Nr. of down electrons:           6.000000
Periodic boundaries:         No
Electronic solver:           Relatively robust
Mixer:                       Broyden mixer
Mixing parameter:                  0.200000
Maximal SCC-cycles:                     100
Nr. of chrg. vec. in memory:              0
Electronic temperature:        0.100000E-07 H      0.272114E-06 eV
Initial charges:             Set automatically (system chrg:   0.100E+01)
Included shells:             C:  s, p
                             N:  s, p
                             H:  s
Extra options:
                             Mulliken analysis
                             Force calculation
Force type                   original
                             Eigenvector printing

--------------------------------------------------------------------------------

***  Geometry step: 0

 iSCC Total electronic   Diff electronic      SCC error    
    1   -0.53898090E+01    0.00000000E+00    0.66934104E+00
    2   -0.53939162E+01   -0.41072008E-02    0.45250183E+00
    3   -0.53965972E+01   -0.26810138E-02    0.80481585E-01
    4   -0.53969074E+01   -0.31024793E-03    0.25723404E-01
    5   -0.53969226E+01   -0.15177098E-04    0.51470231E-02
    6   -0.53969240E+01   -0.13656166E-05    0.70355764E-03
    7   -0.53969240E+01   -0.10280647E-07    0.88309297E-04
    8   -0.53969240E+01   -0.31146286E-09    0.14599130E-04
    9   -0.53969240E+01   -0.84687812E-11    0.38824384E-05
   10   -0.53969240E+01   -0.11910473E-11    0.12018046E-06
>> Charges saved for restart in charges.bin

Total Energy:                       -5.0845681701 H         -138.3581 eV
Extrapolated to 0:                  -5.2132267175 H         -141.8591 eV
Total Mermin free energy:           -5.0845681701 H         -138.3581 eV
Force related energy:               -5.2132267175 H         -141.8591 eV

--------------------------------------------------------------------------------
DFTB+ running times                          cpu [s]             wall clock [s]
--------------------------------------------------------------------------------
SCC                                    +     0.01  ( 55.0%)      0.03  ( 62.7%)
Post-SCC processing                    +     0.00  ( 36.5%)      0.01  ( 27.5%)
--------------------------------------------------------------------------------
Missing                                +     0.00  (  8.6%)      0.00  (  9.8%)
Total                                  =     0.01  (100.0%)      0.05  (100.0%)
--------------------------------------------------------------------------------
