     6
  Step:   600            Position(A)                                  Velocity(au)
C        -0.37215308    -0.08442632     0.05351447     0.00122586     0.00018949     0.00040691
N         0.29204540     0.04615516     1.30660229    -0.00012823    -0.00004357    -0.00073629
H        -0.67659262     1.09040445    -0.10108292    -0.00136240    -0.00000472     0.00352142
H         0.79549888    -0.96418902     1.33262904    -0.00359429     0.00284043     0.00160856
H        -0.26338178     0.21980909     1.93066183    -0.00265467    -0.00201817     0.00069573
H        -0.69225931    -0.65151886    -1.06488140    -0.00521414    -0.00247013    -0.00044273
