     6
  Step:     0            Position(A)                                  Velocity(au)
C        -0.04054305     0.01950215     0.01096751    -0.00005285    -0.00002223     0.00001619
N        -0.04525475    -0.04868449     1.31046131     0.00010356    -0.00003688    -0.00003730
H         0.93643623    -0.02030900    -0.51333573     0.00023056     0.00023059    -0.00029882
H         0.87153620    -0.17055734     1.83367516    -0.00076667     0.00019578    -0.00001460
H        -0.90480352    -0.06979566     1.80612068    -0.00058592     0.00027665     0.00035102
H        -1.00411720     0.03503159    -0.57574017     0.00031268     0.00007432     0.00028781
     6
  Step:     1            Position(A)                                  Velocity(au)
C        -0.04113762     0.01928048     0.01076997    -0.00005471    -0.00001833    -0.00005219
N        -0.04392069    -0.04910282     1.31035512     0.00013475    -0.00003950     0.00001884
H         0.93908455    -0.01774318    -0.51742426     0.00024418     0.00023918    -0.00044046
H         0.86182185    -0.16836216     1.83321412    -0.00097628     0.00020105    -0.00005110
H        -0.91299227    -0.06687060     1.81163238    -0.00086037     0.00026090     0.00062329
H        -1.00031604     0.03579960    -0.57287281     0.00037186     0.00006611     0.00022839
     6
  Step:     2            Position(A)                                  Velocity(au)
C        -0.04173986     0.01910122     0.00982579    -0.00005424    -0.00001454    -0.00011906
N        -0.04230691    -0.04954865     1.31087340     0.00015325    -0.00004174     0.00007582
H         0.94177805    -0.01507650    -0.52297173     0.00023867     0.00024898    -0.00056447
H         0.85017826    -0.16615891     1.83255726    -0.00110898     0.00019593    -0.00004377
H        -0.92362577    -0.06408788     1.81975641    -0.00102174     0.00025042     0.00082108
H        -0.99598205     0.03647789    -0.57074374     0.00040875     0.00005797     0.00015231
     6
  Step:     3            Position(A)                                  Velocity(au)
C        -0.04232421     0.01896236     0.00816523    -0.00005144    -0.00001101    -0.00018197
N        -0.04056807    -0.05001600     1.31201381     0.00015705    -0.00004328     0.00013125
H         0.94430583    -0.01229636    -0.52977319     0.00021424     0.00025985    -0.00066915
H         0.83756077    -0.16407585     1.83225660    -0.00114700     0.00017817     0.00001888
H        -0.93534476    -0.06139226     1.82959507    -0.00105786     0.00024450     0.00093555
H        -0.99137386     0.03706775    -0.56954068     0.00042117     0.00004997     0.00005907
     6
  Step:     4            Position(A)                                  Velocity(au)
C        -0.04286516     0.01886047     0.00584495    -0.00004632    -0.00000784    -0.00023864
N        -0.03887121    -0.05049545     1.31374484     0.00014587    -0.00004384     0.00018247
H         0.94646506    -0.00939176    -0.53761073     0.00017203     0.00027166    -0.00075377
H         0.82508536    -0.16226104     1.83297022    -0.00108079     0.00014665     0.00014337
H        -0.94676839    -0.05873898     1.84022333    -0.00097448     0.00024212     0.00096909
H        -0.98676817     0.03757118    -0.56945139     0.00040816     0.00004217    -0.00005072
     6
  Step:     5            Position(A)                                  Velocity(au)
C        -0.04333756     0.01879091     0.00294453    -0.00003895    -0.00000514    -0.00028723
N        -0.03737693    -0.05097515     1.31600568     0.00012110    -0.00004329     0.00022710
H         0.94806939    -0.00635333    -0.54626328     0.00011380     0.00028426    -0.00081841
H         0.81391646    -0.16086762     1.83539318    -0.00091323     0.00010183     0.00032842
H        -0.95666346    -0.05609545     1.85079576    -0.00078972     0.00024222     0.00093197
H        -0.98244457     0.03799021    -0.57065029     0.00037036     0.00003450    -0.00017514
     6
  Step:     6            Position(A)                                  Velocity(au)
C        -0.04371722     0.01874805    -0.00043885    -0.00002947    -0.00000299    -0.00032644
N        -0.03622188    -0.05144259     1.31871307     0.00008560    -0.00004166     0.00026360
H         0.94895469    -0.00317313    -0.55551495     0.00004176     0.00029753    -0.00086386
H         0.80510680    -0.16003337     1.84015494    -0.00066256     0.00004613     0.00056263
H        -0.96404496    -0.05343991     1.86061201    -0.00052808     0.00024395     0.00083876
H        -0.97866573     0.03832596    -0.57328293     0.00031040     0.00002685    -0.00031077
     6
  Step:     7            Position(A)                                  Velocity(au)
C        -0.04398219     0.01872559    -0.00419699    -0.00001815    -0.00000143    -0.00035554
N        -0.03550417    -0.05188657     1.32177250     0.00004339    -0.00003915     0.00029150
H         0.94898298     0.00015576    -0.56516186    -0.00004157     0.00031136    -0.00089148
H         0.79942168    -0.15985841     1.84770169    -0.00036194    -0.00001615     0.00082441
H        -0.96821618    -0.05075856     1.86914531    -0.00021625     0.00024675     0.00070568
H        -0.97565392     0.03857758    -0.57744894     0.00023299     0.00001905    -0.00045272
     6
  Step:     8            Position(A)                                  Velocity(au)
C        -0.04411421     0.01871686    -0.00821701    -0.00000540    -0.00000048    -0.00037439
N        -0.03527259    -0.05229910     1.32509015    -0.00000086    -0.00003610     0.00031124
H         0.94804537     0.00363841    -0.57501773    -0.00013340     0.00032571    -0.00090306
H         0.79718871    -0.16038668     1.85819048    -0.00005404    -0.00007949     0.00108494
H        -0.96877585    -0.04804181     1.87605002     0.00011905     0.00025036     0.00054922
H        -0.97356869     0.03874261    -0.58318707     0.00014471     0.00001076    -0.00059485
     6
  Step:     9            Position(A)                                  Velocity(au)
C        -0.04410043     0.01871517    -0.01238757     0.00000820    -0.00000013    -0.00038333
N        -0.03552296    -0.05267642     1.32858137    -0.00004244    -0.00003291     0.00032378
H         0.94606469     0.00728122    -0.58491792    -0.00023067     0.00034067    -0.00090074
H         0.79823946    -0.16159743     1.87143673     0.00021751    -0.00013820     0.00131354
H        -0.96561165    -0.04528149     1.88116063     0.00045179     0.00025482     0.00038575
H        -0.97248803     0.03881306    -0.59046239     0.00005344     0.00000154    -0.00073019
     6
  Step:    10            Position(A)                                  Velocity(au)
C        -0.04393475     0.01871410    -0.01660301     0.00002595     0.00000007    -0.00041913
N        -0.03620114    -0.05301915     1.33217347    -0.00007872    -0.00002970     0.00034995
H         0.94299894     0.01109116    -0.59472321    -0.00037385     0.00061574    -0.00082606
H         0.80194722    -0.16341002     1.88692679     0.00039983    -0.00047164     0.00148859
H        -0.95889219    -0.04246707     1.88448905     0.00077245     0.00053136     0.00027676
H        -0.97239955     0.03877623    -0.59916139    -0.00001382    -0.00026354    -0.00080798
     6
  Step:    11            Position(A)                                  Velocity(au)
C        -0.04353264     0.01871664    -0.02155685     0.00004783     0.00000353    -0.00053647
N        -0.03724504    -0.05332625     1.33623723    -0.00010790    -0.00002984     0.00043981
H         0.93788601     0.02075181    -0.60298946    -0.00057988     0.00101775    -0.00066219
H         0.80698650    -0.17191543     1.90400253     0.00045743    -0.00092882     0.00155009
H        -0.94871293    -0.03365695     1.88721521     0.00108616     0.00094231     0.00018286
H        -0.97279038     0.03304767    -0.60813841    -0.00003420    -0.00065872    -0.00078988
     6
  Step:    12            Position(A)                                  Velocity(au)
C        -0.04288835     0.01879126    -0.02833932     0.00006847     0.00001033    -0.00070418
N        -0.03856174    -0.05367185     1.34179510    -0.00012611    -0.00003418     0.00057832
H         0.93031297     0.03335641    -0.60920990    -0.00079200     0.00126087    -0.00047640
H         0.81195429    -0.18372968     1.92083801     0.00040087    -0.00119521     0.00148182
H        -0.93513033    -0.02185218     1.88848945     0.00135185     0.00119163     0.00006535
H        -0.97314766     0.02436536    -0.61644150    -0.00002413    -0.00090550    -0.00071627
     6
  Step:    13            Position(A)                                  Velocity(au)
C        -0.04203472     0.01894266    -0.03696211     0.00008533     0.00001704    -0.00086439
N        -0.04000396    -0.05407396     1.34888906    -0.00013008    -0.00003989     0.00071244
H         0.92055952     0.04833577    -0.61341153    -0.00096587     0.00146702    -0.00030262
H         0.81575626    -0.19806293     1.93642015     0.00025516    -0.00140578     0.00133288
H        -0.91913866    -0.00758784     1.88864489     0.00150644     0.00140929    -0.00000459
H        -0.97331826     0.01323814    -0.62380811    -0.00000493    -0.00111934    -0.00062592
     6
  Step:    14            Position(A)                                  Velocity(au)
C        -0.04102153     0.01916413    -0.04724953     0.00009694     0.00002285    -0.00100454
N        -0.04140750    -0.05454455     1.35738118    -0.00011884    -0.00004672     0.00082985
H         0.90918264     0.06545033    -0.61583029    -0.00107824     0.00165791    -0.00015852
H         0.81753650    -0.21448376     1.94999725     0.00004341    -0.00158363     0.00112641
H        -0.90217397     0.00897867     1.88838899     0.00151604     0.00162144     0.00000132
H        -0.97325542    -0.00012228    -0.63013475     0.00001515    -0.00131875    -0.00053097
     6
  Step:    15            Position(A)                                  Velocity(au)
C        -0.03991395     0.01944248    -0.05893833     0.00010197     0.00002721    -0.00111867
N        -0.04260391    -0.05509610     1.36704362    -0.00009279    -0.00005482     0.00092442
H         0.89697090     0.08460577    -0.61687943    -0.00110950     0.00184475    -0.00005914
H         0.81670596    -0.23270794     1.96106257    -0.00020953    -0.00173983     0.00088467
H        -0.88597245     0.02788422     1.88867377     0.00136324     0.00184364     0.00009863
H        -0.97298686    -0.01561201    -0.63542414     0.00003010    -0.00151109    -0.00044006
     6
  Step:    16            Position(A)                                  Velocity(au)
C        -0.03879073     0.01975947    -0.07172255     0.00009941     0.00002971    -0.00120425
N        -0.04343739    -0.05574384     1.37760455    -0.00005415    -0.00006439     0.00099378
H         0.88491022     0.10580783    -0.61712418    -0.00104498     0.00203611    -0.00001612
H         0.81295264    -0.25254590     1.96935105    -0.00047840    -0.00188240     0.00062941
H        -0.87235041     0.04931183     1.89054670     0.00105564     0.00208721     0.00028651
H        -0.97259691    -0.03318029    -0.63976186     0.00003570    -0.00170023    -0.00035985
     6
  Step:    17            Position(A)                                  Velocity(au)
C        -0.03773927     0.02009244    -0.08528354     0.00008887     0.00002997    -0.00126116
N        -0.04378854    -0.05650473     1.38878444    -0.00000749    -0.00007534     0.00103860
H         0.87410999     0.12914951    -0.61723210    -0.00087912     0.00223937    -0.00003515
H         0.80624013    -0.27388900     1.97483215    -0.00073825    -0.00201873     0.00038161
H        -0.86287839     0.07354596     1.89494174     0.00063261     0.00235767     0.00054390
H        -0.97220594    -0.05280775    -0.64329655     0.00002973    -0.00188846    -0.00029518
     6
  Step:    18            Position(A)                                  Velocity(au)
C        -0.03684643     0.02041509    -0.09931275     0.00007105     0.00002775    -0.00129115
N        -0.04360114    -0.05739212     1.40032600     0.00004053    -0.00008696     0.00106183
H         0.86567776     0.15479838    -0.61789322    -0.00062045     0.00246017    -0.00011325
H         0.79680203    -0.29670958     1.97769949    -0.00096509    -0.00215692     0.00016097
H        -0.85851081     0.10089027     1.90244552     0.00016328     0.00265167     0.00083113
H        -0.97194644    -0.07449403    -0.64621942     0.00001231    -0.00207724    -0.00024898
     6
  Step:    19            Position(A)                                  Velocity(au)
C        -0.03618481     0.02069944    -0.11353002     0.00004792     0.00002306    -0.00129742
N        -0.04290183    -0.05840704     1.41201403     0.00008223    -0.00009768     0.00106759
H         0.86053649     0.18297050    -0.61970971    -0.00029483     0.00270046    -0.00023724
H         0.78512685    -0.32107572     1.97835374    -0.00113729    -0.00230589    -0.00001503
H        -0.85930622     0.13155638     1.91312429    -0.00026772     0.00295529     0.00109900
H        -0.97193654    -0.09825131    -0.64874338    -0.00001397    -0.00226721    -0.00022224
     6
  Step:    20            Position(A)                                  Velocity(au)
C        -0.03579805     0.02091948    -0.12769627     0.00002262     0.00001631    -0.00128399
N        -0.04180210    -0.05952911     1.42368156     0.00011075    -0.00010535     0.00105999
H         0.85922781     0.21387622    -0.62308336     0.00005584     0.00295639    -0.00038512
H         0.77192160    -0.34715543     1.97737077    -0.00123828    -0.00247463    -0.00013298
H        -0.86436769     0.16554284     1.92648827    -0.00058204     0.00324586     0.00130221
H        -0.97225205    -0.12409356    -0.65108125    -0.00004405    -0.00245803    -0.00021404
     6
  Step:    21            Position(A)                                  Velocity(au)
C        -0.03569000     0.02105623    -0.14161977    -0.00000113     0.00000836    -0.00125512
N        -0.04047901    -0.06071178     1.43520338     0.00012166    -0.00010767     0.00104227
H         0.86175817     0.24764726    -0.62813504     0.00038066     0.00321747    -0.00053059
H         0.75803715    -0.37521297     1.97544445    -0.00126039    -0.00267069    -0.00018610
H        -0.87203942     0.20256574     1.94161257    -0.00072675     0.00349789     0.00141082
H        -0.97290014    -0.15202538    -0.65342584    -0.00007063    -0.00264823    -0.00022179
     6
  Step:    22            Position(A)                                  Velocity(au)
C        -0.03582287     0.02110244    -0.15515442    -0.00001994     0.00000040    -0.00121458
N        -0.03914058    -0.06188450     1.44648316     0.00011392    -0.00010287     0.00101653
H         0.86755557     0.28426451    -0.63469093     0.00063082     0.00346784    -0.00064933
H         0.74434811    -0.40558182     1.97329940    -0.00120893    -0.00289756    -0.00017685
H        -0.88026684     0.24206596     1.95735269    -0.00068258     0.00368955     0.00141473
H        -0.97379715    -0.18202865    -0.65593330    -0.00008477    -0.00283507    -0.00024162
     6
  Step:    23            Position(A)                                  Velocity(au)
C        -0.03612618     0.02106488    -0.16819096    -0.00003154    -0.00000637    -0.00116515
N        -0.03798687    -0.06296225     1.45744186     0.00008973    -0.00009027     0.00098406
H         0.87555866     0.32351285    -0.64234043     0.00077012     0.00368947    -0.00072446
H         0.73158960    -0.43860263     1.97157546    -0.00110439    -0.00315155    -0.00011839
H        -0.88697219     0.28328160     1.97256248    -0.00046011     0.00380683     0.00132085
H        -0.97475455    -0.21404795    -0.65871165    -0.00007677    -0.00301449    -0.00026891
     6
  Step:    24            Position(A)                                  Velocity(au)
C        -0.03651285     0.02096316    -0.18064430    -0.00003521    -0.00001094    -0.00110854
N        -0.03717749    -0.06385936     1.46801139     0.00005371    -0.00007047     0.00094585
H         0.88440336     0.36497875    -0.65053977     0.00078066     0.00386591    -0.00074875
H         0.72018754    -0.47452797     1.97070947    -0.00098077    -0.00341953    -0.00003324
H        -0.89033267     0.32534757     1.98624883    -0.00008931     0.00384445     0.00114657
H        -0.97547660    -0.24797629    -0.66181617    -0.00003734    -0.00318122    -0.00029896
     6
  Step:    25            Position(A)                                  Velocity(au)
C        -0.03689648     0.02082554    -0.19244246    -0.00003162    -0.00001278    -0.00104560
N        -0.03681194    -0.06450394     1.47813407     0.00001157    -0.00004525     0.00090286
H         0.89263705     0.40808712    -0.65872081     0.00066251     0.00398498    -0.00072376
H         0.71013339    -0.51341139     1.97084829    -0.00087928    -0.00367910     0.00005101
H        -0.88892602     0.36738627     1.99764587     0.00039145     0.00380426     0.00091325
H        -0.97557138    -0.28364331    -0.66525192     0.00004124    -0.00332914    -0.00032755
     6
  Step:    26            Position(A)                                  Velocity(au)
C        -0.03720457     0.02068357    -0.20351875    -0.00002235    -0.00001181    -0.00097652
N        -0.03692429    -0.06484922     1.48776315    -0.00003101    -0.00001717     0.00085596
H         0.89889703     0.45215786    -0.66637343     0.00042916     0.00403986    -0.00065693
H         0.70095169    -0.55501527     1.97182533    -0.00083880    -0.00390182     0.00010800
H        -0.88176889     0.40857301     2.00622784     0.00094288     0.00369302     0.00064201
H        -0.97457440    -0.32080766    -0.66898200     0.00016401    -0.00345180    -0.00035150
     6
  Step:    27            Position(A)                                  Velocity(au)
C        -0.03738539     0.02056709    -0.21380569    -0.00000934    -0.00000835    -0.00090114
N        -0.03749038    -0.06487948     1.49685973    -0.00006939     0.00001093     0.00080560
H         0.90202580     0.49646679    -0.67309252     0.00010168     0.00402852    -0.00055847
H         0.69178293    -0.59877110     1.97321108    -0.00088706    -0.00405878     0.00011838
H        -0.86829869     0.44817814     2.01169117     0.00152829     0.00352075     0.00035204
H        -0.97198335    -0.35915799    -0.67294161     0.00033262    -0.00354295    -0.00036888
     6
  Step:    28            Position(A)                                  Velocity(au)
C        -0.03740893     0.02050089    -0.22323280     0.00000555    -0.00000292    -0.00081917
N        -0.03844224    -0.06461006     1.50538716    -0.00010029     0.00003640     0.00075168
H         0.90112147     0.54028934    -0.67859103    -0.00029627     0.00395225    -0.00043883
H         0.68154551    -0.64380887     1.97441523    -0.00103555    -0.00412637     0.00007289
H        -0.84833469     0.48559620     2.01392942     0.00211429     0.00330009     0.00006052
H        -0.96729773    -0.39831657    -0.67705193     0.00054513    -0.00359699    -0.00037898
     6
  Step:    29            Position(A)                                  Velocity(au)
C        -0.03726404     0.02050321    -0.23172655     0.00002078     0.00000386    -0.00073043
N        -0.03968446    -0.06408326     1.51330420    -0.00012184     0.00005700     0.00069353
H         0.89554441     0.58292981    -0.68269280    -0.00074143     0.00381452    -0.00030740
H         0.66912833    -0.68904344     1.97480576    -0.00127945    -0.00408996    -0.00002775
H        -0.82204459     0.52037399     2.01301523     0.00267004     0.00304659    -0.00021649
H        -0.96005766    -0.43784905    -0.68123260     0.00079638    -0.00360934    -0.00038202
     6
  Step:    30            Position(A)                                  Velocity(au)
C        -0.03695432     0.02058540    -0.23921243     0.00003521     0.00001140    -0.00063501
N        -0.04110775    -0.06336307     1.52055945    -0.00013320     0.00007096     0.00063009
H         0.88490117     0.62373936    -0.68531593    -0.00121223     0.00362003    -0.00017196
H         0.65355506    -0.73328462     1.97380808    -0.00160129    -0.00394492    -0.00017524
H        -0.78992255     0.55224620     2.00919328     0.00316641     0.00277955    -0.00046316
H        -0.94987534    -0.47727774    -0.68540938     0.00107852    -0.00357666    -0.00037874
     6
  Step:    31            Position(A)                                  Velocity(au)
C        -0.03649378     0.02075254    -0.24561869     0.00005227     0.00002954    -0.00075165
N        -0.04259842    -0.06253080     1.52708860    -0.00014114     0.00006855     0.00069111
H         0.86902452     0.66212497    -0.68645474    -0.00236101     0.00431316     0.00021236
H         0.63409710    -0.77534616     1.97097198    -0.00278360    -0.00468214    -0.00023437
H        -0.75277323     0.58118190     2.00288282     0.00443768     0.00356302    -0.00040237
H        -0.93646288    -0.51609526    -0.68951824     0.00204542    -0.00449870    -0.00022290
     6
  Step:    32            Position(A)                                  Velocity(au)
C        -0.03584494     0.02112483    -0.25351298     0.00006530     0.00003849    -0.00069385
N        -0.04413208    -0.06178261     1.53430961    -0.00013469     0.00006337     0.00062904
H         0.84081895     0.70726722    -0.68294079    -0.00279508     0.00394007     0.00042709
H         0.60222652    -0.82462097     1.96785548    -0.00306867    -0.00430077    -0.00034183
H        -0.70290474     0.61853413     1.99801893     0.00464290     0.00330687    -0.00045149
H        -0.91267470    -0.56414883    -0.69132882     0.00231440    -0.00428552    -0.00010711
     6
  Step:    33            Position(A)                                  Velocity(au)
C        -0.03506516     0.02159464    -0.26079809     0.00007592     0.00004693    -0.00063809
N        -0.04554501    -0.06114447     1.54085000    -0.00012001     0.00004853     0.00056520
H         0.80787670     0.74832165    -0.67711130    -0.00322182     0.00357055     0.00063140
H         0.56696405    -0.86943376     1.96349388    -0.00339654    -0.00387029    -0.00045849
H        -0.65120101     0.65352596     1.99300564     0.00477932     0.00313517    -0.00043159
H        -0.88583091    -0.60984920    -0.69186148     0.00260205    -0.00406900     0.00000804
     6
  Step:    34            Position(A)                                  Velocity(au)
C        -0.03418408     0.02215143    -0.26747248     0.00008360     0.00005393    -0.00058018
N        -0.04675744    -0.06072100     1.54667438    -0.00009936     0.00002486     0.00049708
H         0.77033541     0.78537976    -0.66912770    -0.00362964     0.00321355     0.00081659
H         0.52792064    -0.90929094     1.95782512    -0.00375091    -0.00339938    -0.00057727
H        -0.59834802     0.68712193     1.98857699     0.00486243     0.00304695    -0.00035065
H        -0.85574986    -0.65316605    -0.69115287     0.00290265    -0.00384934     0.00011716
     6
  Step:    35            Position(A)                                  Velocity(au)
C        -0.03323622     0.02277457    -0.27349057     0.00009281     0.00006693    -0.00082000
N        -0.04771869    -0.06060059     1.55172455    -0.00006748    -0.00000853     0.00060540
H         0.72847146     0.81862410    -0.65924681    -0.00283514     0.00162976     0.00118525
H         0.48490569    -0.94380165     1.95086498    -0.00244397    -0.00207093    -0.00036892
H        -0.54482606     0.72018387     1.98533460     0.00311618     0.00206862    -0.00002115
H        -0.82232987    -0.69406085    -0.68929848     0.00199467    -0.00230643     0.00056312
     6
  Step:    36            Position(A)                                  Velocity(au)
C        -0.03221623     0.02352215    -0.28183908     0.00009190     0.00006813    -0.00070550
N        -0.04831864    -0.06087866     1.55786584    -0.00004291    -0.00004308     0.00051775
H         0.69593958     0.83442338    -0.64607271    -0.00307883     0.00127998     0.00120209
H         0.45646342    -0.96307721     1.94573043    -0.00274040    -0.00144810    -0.00056054
H        -0.51079905     0.74235601     1.98531435     0.00309895     0.00198919     0.00002418
H        -0.79919993    -0.71780136    -0.68317807     0.00222143    -0.00203441     0.00054616
     6
  Step:    37            Position(A)                                  Velocity(au)
C        -0.03122565     0.02426512    -0.28892478     0.00008722     0.00006552    -0.00058891
N        -0.04865741    -0.06154297     1.56305142    -0.00002078    -0.00007717     0.00043058
H         0.66111620     0.84662621    -0.63294870    -0.00324837     0.00098426     0.00117419
H         0.42495417    -0.97548170     1.93860220    -0.00299646    -0.00083375    -0.00072688
H        -0.47703065     0.76370121     1.98586348     0.00307518     0.00190923     0.00007779
H        -0.77373189    -0.73856737    -0.67735012     0.00241916    -0.00176819     0.00050890
     6
  Step:    38            Position(A)                                  Velocity(au)
C        -0.03030821     0.02495549    -0.29472268     0.00007838     0.00005795    -0.00046986
N        -0.04877328    -0.06256682     1.56728564    -0.00000302    -0.00010667     0.00034365
H         0.62487532     0.85595594    -0.62038514    -0.00333332     0.00076684     0.00109810
H         0.39091006    -0.98131700     1.92982852    -0.00319620    -0.00026829    -0.00085466
H        -0.44352360     0.78412410     1.98701622     0.00305539     0.00181223     0.00012994
H        -0.74627607    -0.75648389    -0.67204483     0.00258204    -0.00151908     0.00044990
     6
  Step:    39            Position(A)                                  Velocity(au)
C        -0.02951088     0.02553287    -0.29920379     0.00006529     0.00004444    -0.00034806
N        -0.04872342    -0.06387651     1.57056952     0.00000890    -0.00012723     0.00025656
H         0.58819354     0.86340231    -0.60892556    -0.00332689     0.00065013     0.00097187
H         0.35503121    -0.98135111     1.91990483    -0.00332519     0.00020310    -0.00093011
H        -0.41018820     0.80334732     1.98870613     0.00304568     0.00168333     0.00017264
H        -0.71724481    -0.77180010    -0.66750759     0.00270482    -0.00129818     0.00036793
     6
  Step:    40            Position(A)                                  Velocity(au)
C        -0.02887995     0.02592778    -0.30233720     0.00004830     0.00002456    -0.00022353
N        -0.04857867    -0.06535018     1.57289828     0.00001402    -0.00013463     0.00016867
H         0.55209317     0.87017869    -0.59912368    -0.00322950     0.00064954     0.00079641
H         0.31816525    -0.97687384     1.90948066    -0.00337206     0.00053209    -0.00093946
H        -0.37689351     0.82095017     1.99079295     0.00304765     0.00151243     0.00020071
H        -0.68710290    -0.78488414    -0.66399563     0.00278360    -0.00111593     0.00026214
     6
  Step:    41            Position(A)                                  Velocity(au)
C        -0.02845432     0.02607017    -0.30409401     0.00002848    -0.00000111    -0.00009671
N        -0.04841674    -0.06682177     1.57425940     0.00001213    -0.00012538     0.00007930
H         0.51754206     0.87761231    -0.59150261    -0.00305196     0.00076692     0.00057714
H         0.28126094    -0.96971053     1.89935236    -0.00333160     0.00067383    -0.00087113
H        -0.34351494     0.83643469     1.99309703     0.00305911     0.00129607     0.00021215
H        -0.65634830    -0.79621326    -0.66177279     0.00281648    -0.00098133     0.00013230
     6
  Step:    42            Position(A)                                  Velocity(au)
C        -0.02825680     0.02590358    -0.30445289     0.00000764    -0.00003057     0.00003142
N        -0.04831333    -0.06809317     1.57463304     0.00000391    -0.00009769    -0.00001201
H         0.48532568     0.88695664    -0.58649771    -0.00281645     0.00098490     0.00032492
H         0.24528019    -0.96213262     1.89042301    -0.00320860     0.00059940    -0.00071958
H        -0.30996972     0.84930422     1.99543416     0.00307531     0.00103793     0.00020795
H        -0.62548702    -0.80635256    -0.66110140     0.00280440    -0.00090047    -0.00002076
     6
  Step:    43            Position(A)                                  Velocity(au)
C        -0.02828713     0.02540134    -0.30340670    -0.00001201    -0.00006052     0.00015926
N        -0.04833129    -0.06895886     1.57399664    -0.00000898    -0.00005254    -0.00010510
H         0.45592691     0.89915879    -0.58439440    -0.00255379     0.00126578     0.00005578
H         0.21106660    -0.95659757     1.88361021    -0.00302055     0.00031200    -0.00049011
H        -0.27623663     0.85914137     1.99764633     0.00309046     0.00074831     0.00019159
H        -0.59499678    -0.81591276    -0.66222702     0.00275182    -0.00087478    -0.00019454
     6
  Step:    44            Position(A)                                  Velocity(au)
C        -0.02851952     0.02457950    -0.30096879    -0.00002836    -0.00008694     0.00028475
N        -0.04850987    -0.06924264     1.57233382    -0.00002409     0.00000548    -0.00019890
H         0.42945660     0.91464807    -0.58527735    -0.00229725     0.00155752    -0.00021099
H         0.17919987    -0.95530703     1.87970098    -0.00279611    -0.00014115    -0.00020222
H        -0.24236010     0.86567487     1.99962562     0.00309897     0.00044278     0.00016840
H        -0.56528566    -0.82549003    -0.66535725     0.00266703    -0.00089945    -0.00038428
     6