     6
  Step:   600            Position(A)                                  Velocity(au)
C        -0.33253714     0.00389590     0.04499506    -0.00159771    -0.00012323    -0.00259724
N         0.15400910    -0.05477095     1.27440754     0.00099841    -0.00008601     0.00196855
H         0.62620281    -0.62911640    -0.65260849     0.00256882     0.00497357     0.00417112
H         0.43273501    -1.02605214     1.64246158    -0.00183733    -0.00386337    -0.00020778
H         0.09414436     0.63099087     1.96497510     0.00321196     0.00292716     0.00130880
H        -0.54344437     1.06889209    -0.30880620     0.00122067    -0.00137379    -0.00167893
