     6
  Step:     0            Position(A)                                  Velocity(au)
C        -0.03454395    -0.00624896     0.02818438     0.00004196     0.00001141    -0.00024030
N        -0.05141580    -0.03589598     1.28108891     0.00000296     0.00000717     0.00021450
H         0.88679408     0.04724006    -0.49424963    -0.00040628    -0.00027356     0.00055098
H         0.85137876    -0.18698422     1.90535136    -0.00012164     0.00016139    -0.00043277
H        -0.84868208    -0.10315980     1.85531244     0.00012426    -0.00031020     0.00032096
H        -0.97630841     0.14641176    -0.51268119    -0.00013744     0.00018674    -0.00055655
     6
  Step:     1            Position(A)                                  Velocity(au)
C        -0.03414161    -0.00616281     0.02477623     0.00002840     0.00000432    -0.00037464
N        -0.05109287    -0.03581437     1.28429952     0.00005388     0.00000813     0.00036544
H         0.88418117     0.04450296    -0.48996652    -0.00004621    -0.00022684     0.00021665
H         0.84800214    -0.18498592     1.89897694    -0.00047683     0.00020120    -0.00071676
H        -0.84970513    -0.10691729     1.86047665    -0.00029951    -0.00037736     0.00061360
H        -0.97857738     0.14874706    -0.51975863    -0.00026447     0.00023845    -0.00072758
     6
  Step:     2            Position(A)                                  Velocity(au)
C        -0.03392272    -0.00615439     0.01998851     0.00000929    -0.00000270    -0.00049072
N        -0.05023717    -0.03571809     1.28908352     0.00009790     0.00000993     0.00049999
H         0.88578315     0.04227747    -0.48950998     0.00034528    -0.00018114    -0.00013640
H         0.84094718    -0.18258249     1.88967096    -0.00077879     0.00023288    -0.00095690
H        -0.85523445    -0.11141519     1.86873606    -0.00067684    -0.00044329     0.00086938
H        -0.98209413     0.15162840    -0.52859846    -0.00036077     0.00028575    -0.00087661
     6
  Step:     3            Position(A)                                  Velocity(au)
C        -0.03393827    -0.00622189     0.01404069    -0.00001324    -0.00000946    -0.00058585
N        -0.04895120    -0.03559719     1.29523767     0.00013033     0.00001274     0.00061412
H         0.89173477     0.04054015    -0.49295045     0.00072807    -0.00013862    -0.00048277
H         0.83096461    -0.17989123     1.87804284    -0.00099462     0.00025089    -0.00112873
H        -0.86451236    -0.11661520     1.87949609    -0.00096838    -0.00050376     0.00105863
H        -0.98646999     0.15499844    -0.53893611    -0.00041831     0.00032721    -0.00100021
     6
  Step:     4            Position(A)                                  Velocity(au)
C        -0.03421242    -0.00636140     0.00717189    -0.00003673    -0.00001579    -0.00065897
N        -0.04738603    -0.03543943     1.30251863     0.00014720     0.00001681     0.00070455
H         0.90171110     0.03924482    -0.50007141     0.00106245    -0.00010112    -0.00079785
H         0.81918787    -0.17709388     1.86497775    -0.00108868     0.00024920    -0.00120762
H        -0.87641956    -0.12243589     1.89189560    -0.00114930    -0.00055544     0.00116378
H        -0.99124550     0.15878683    -0.55047995    -0.00043225     0.00036189    -0.00109677
     6
  Step:     5            Position(A)                                  Velocity(au)
C        -0.03474186    -0.00656730    -0.00037546    -0.00005890    -0.00002156    -0.00071032
N        -0.04573097    -0.03522948     1.31065107     0.00014574     0.00002243     0.00076890
H         0.91497795     0.03832802    -0.51040500     0.00131658    -0.00006987    -0.00106209
H         0.80714761    -0.17443940     1.85162393    -0.00102790     0.00022218    -0.00117289
H        -0.88965546    -0.12876661     1.90495598    -0.00121099    -0.00059647     0.00118048
H        -0.99592636     0.16291559    -0.56293015    -0.00040105     0.00038936    -0.00116630
     6
  Step:     6            Position(A)                                  Velocity(au)
C        -0.03550095    -0.00683298    -0.00836761    -0.00007808    -0.00002670    -0.00074104
N        -0.04419775    -0.03494882     1.31933977     0.00012494     0.00002981     0.00080620
H         0.93051388     0.03771622    -0.52330666     0.00147132    -0.00004549    -0.00126350
H         0.79670062    -0.17223328     1.83931859    -0.00079206     0.00016617    -0.00101467
H        -0.90291219    -0.13548484     1.91772096    -0.00115873    -0.00062650     0.00111535
H        -1.00001914     0.16730476    -0.57599502    -0.00032628     0.00040967    -0.00121012
     6
  Step:     7            Position(A)                                  Velocity(au)
C        -0.03644999    -0.00715150    -0.01658717    -0.00009429    -0.00002708    -0.00082412
N        -0.04299774    -0.03457722     1.32828814     0.00008492     0.00003877     0.00086976
H         0.94716598     0.03733279    -0.53804647     0.00146346    -0.00024015    -0.00135211
H         0.78981982    -0.17080410     1.82942601    -0.00038457     0.00030191    -0.00071697
H        -0.91500489    -0.14247247     1.92935650    -0.00098911    -0.00086385     0.00095057
H        -1.00306433     0.17187799    -0.58940381    -0.00014619     0.00058592    -0.00114775
     6
  Step:     8            Position(A)                                  Velocity(au)
C        -0.03756377    -0.00742532    -0.02639678    -0.00010418    -0.00001992    -0.00099841
N        -0.04234003    -0.03410061     1.33836735     0.00003017     0.00004572     0.00099757
H         0.96252985     0.03246248    -0.55288663     0.00128386    -0.00053713    -0.00130557
H         0.78828752    -0.16562841     1.82363357     0.00011944     0.00050944    -0.00036622
H        -0.92455087    -0.15438331     1.93851656    -0.00070397    -0.00116322     0.00068437
H        -1.00321741     0.18012281    -0.60110419     0.00012289     0.00079289    -0.00097808
     6
  Step:     9            Position(A)                                  Velocity(au)
C        -0.03872905    -0.00758719    -0.03842924    -0.00010550    -0.00000951    -0.00118845
N        -0.04233779    -0.03357705     1.35011179    -0.00003217     0.00004992     0.00113676
H         0.97525284     0.02558198    -0.56660826     0.00100862    -0.00070907    -0.00118341
H         0.79243272    -0.15965914     1.82141415     0.00065604     0.00056479    -0.00003019
H        -0.93040564    -0.16792019     1.94432847    -0.00034988    -0.00129196     0.00037531
H        -1.00037597     0.18922391    -0.61080114     0.00038951     0.00085582    -0.00079701
     6
  Step:    10            Position(A)                                  Velocity(au)
C        -0.03987186    -0.00763345    -0.05239642    -0.00010028     0.00000090    -0.00134944
N        -0.04304386    -0.03300842     1.36323626    -0.00009519     0.00005379     0.00124921
H         0.98459535     0.01695016    -0.57877599     0.00067834    -0.00086387    -0.00103046
H         0.80263964    -0.15327263     1.82297315     0.00118851     0.00060009     0.00030436
H        -0.93220515    -0.18264743     1.94672710     0.00001880    -0.00139235     0.00007394
H        -0.99469603     0.19884543    -0.61854023     0.00063215     0.00089790    -0.00062737
     6
  Step:    11            Position(A)                                  Velocity(au)
C        -0.04092295    -0.00756746    -0.06795079    -0.00008885     0.00001074    -0.00147838
N        -0.04442022    -0.03240036     1.37744063    -0.00015070     0.00005705     0.00133546
H         0.99009283     0.00668326    -0.58915162     0.00031687    -0.00100997    -0.00086300
H         0.81843356    -0.14653092     1.82807259     0.00163957     0.00063723     0.00059841
H        -0.92999446    -0.19838058     1.94594613     0.00036511    -0.00148243    -0.00019393
H        -0.98654644     0.20886725    -0.62452598     0.00083150     0.00093430    -0.00048310
     6
  Step:    12            Position(A)                                  Velocity(au)
C        -0.04181570    -0.00739843    -0.08473881    -0.00007147     0.00001950    -0.00157574
N        -0.04634077    -0.03176028     1.39245200    -0.00019150     0.00005983     0.00139830
H         0.99152750    -0.00514487    -0.59765572    -0.00005369    -0.00115012    -0.00069472
H         0.83850834    -0.13933204     1.83606441     0.00194483     0.00068685     0.00082208
H        -0.92421773    -0.21507845     1.94248448     0.00065270    -0.00157490    -0.00040525
H        -0.97650538     0.21928505    -0.62910889     0.00096901     0.00097441    -0.00037676
     6
  Step:    13            Position(A)                                  Velocity(au)
C        -0.04248655    -0.00714088    -0.10242314    -0.00004855     0.00002671    -0.00164342
N        -0.04860964    -0.03109154     1.40803103    -0.00021247     0.00006276     0.00144052
H         0.98891823    -0.01847787    -0.60434997    -0.00041161    -0.00128570    -0.00053813
H         0.86098048    -0.13150466     1.84605714     0.00206767     0.00075186     0.00096203
H        -0.91571529    -0.23283454     1.93708048     0.00084684    -0.00168253    -0.00054008
H        -0.96534740     0.23018437    -0.63276829     0.00102820     0.00102594    -0.00031886
     6
  Step:    14            Position(A)                                  Velocity(au)
C        -0.04287788    -0.00681420    -0.12069167    -0.00002095     0.00003197    -0.00168381
N        -0.05098887    -0.03038723     1.42396620    -0.00021115     0.00006698     0.00146437
H         0.98252267    -0.03327204    -0.60942826    -0.00073467    -0.00141801    -0.00040505
H         0.88374266    -0.12288375     1.85711056     0.00200226     0.00082942     0.00102060
H        -0.90569150    -0.25188693     1.93066916     0.00091899    -0.00181861    -0.00058427
H        -0.95401159     0.24172945    -0.63608461     0.00099732     0.00109544    -0.00031638
     6
  Step:    15            Position(A)                                  Velocity(au)
C        -0.04294480    -0.00644139    -0.13925962     0.00000971     0.00003512    -0.00169933
N        -0.05322901    -0.02962632     1.44006687    -0.00018790     0.00007373     0.00147161
H         0.97284587    -0.04949950    -0.61321122    -0.00099960    -0.00154904    -0.00030701
H         0.90478384    -0.11335952     1.86838470     0.00176747     0.00091367     0.00101071
H        -0.89561061    -0.27262005     1.92429840     0.00085460    -0.00199519    -0.00053367
H        -0.94352911     0.25414915    -0.63968964     0.00087303     0.00118744    -0.00037087
     6
  Step:    16            Position(A)                                  Velocity(au)
C        -0.04266549    -0.00604579    -0.15786766     0.00004075     0.00003634    -0.00169218
N        -0.05509959    -0.02877430     1.45616052    -0.00014578     0.00008400     0.00146398
H         0.96065459    -0.06716033    -0.61614463    -0.00118260    -0.00168193    -0.00025495
H         0.92240953    -0.10289540     1.87922176     0.00139732     0.00099787     0.00095004
H        -0.88699545    -0.29553554     1.91899402     0.00066173    -0.00221933    -0.00039815
H        -0.93491232     0.26770695    -0.64419811     0.00066387     0.00130306    -0.00047694
     6
  Step:    17            Position(A)                                  Velocity(au)
C        -0.04205330    -0.00564645    -0.17627926     0.00006853     0.00003627    -0.00166443
N        -0.05641833    -0.02778866     1.47209432    -0.00009037     0.00009806     0.00144352
H         0.94697420    -0.08629485    -0.61878884    -0.00126158    -0.00182099    -0.00025831
H         0.93535280    -0.09152931     1.88916868     0.00093244     0.00107570     0.00085681
H        -0.88113389    -0.32117206     1.91558814     0.00037646    -0.00248845    -0.00020287
H        -0.92900560     0.28265614    -0.65012356     0.00039195     0.00143883    -0.00062183
     6
  Step:    18            Position(A)                                  Velocity(au)
C        -0.04116626    -0.00525239    -0.19428029     0.00008892     0.00003607    -0.00161842
N        -0.05707666    -0.02662898     1.48774019    -0.00002916     0.00011519     0.00141275
H         0.93305507    -0.10699794    -0.62179559    -0.00122042    -0.00197159    -0.00032317
H         0.94280849    -0.07936233     1.89796615     0.00041519     0.00114211     0.00074784
H        -0.87875969    -0.34997512     1.91455587     0.00005973    -0.00278733     0.00001543
H        -0.92633760     0.29918407    -0.65780187     0.00009105     0.00158625    -0.00078708
     6
  Step:    19            Position(A)                                  Velocity(au)
C        -0.04010791    -0.00485742    -0.21168519     0.00009834     0.00003723    -0.00155701
N        -0.05705616    -0.02526861     1.50300089     0.00002954     0.00013373     0.00137443
H         0.92027517    -0.12942723    -0.62585875    -0.00105533    -0.00213912    -0.00044986
H         0.94443598    -0.06654347     1.90552916    -0.00011211     0.00119343     0.00063835
H        -0.87982721    -0.38215017     1.91592566    -0.00021588    -0.00308912     0.00021707
H        -0.92701365     0.31735839    -0.66734248    -0.00019902     0.00173287    -0.00095187
     6
  Step:    20            Position(A)                                  Velocity(au)
C        -0.03901479    -0.00443799    -0.22834278     0.00009492     0.00004120    -0.00148350
N        -0.05643044    -0.02370348     1.51780857     0.00007789     0.00015148     0.00133081
H         0.90996772    -0.15379522    -0.63163703    -0.00078101    -0.00232701    -0.00063071
H         0.94035587    -0.05325370     1.91193120    -0.00060705     0.00122748     0.00054252
H        -0.88348239    -0.41755544     1.91930472    -0.00038485    -0.00336113     0.00036941
H        -0.93069150     0.33709394    -0.67862594    -0.00044046     0.00186468    -0.00109725
     6
  Step:    21            Position(A)                                  Velocity(au)
C        -0.03803138    -0.00395600    -0.24413966     0.00007934     0.00004897    -0.00140140
N        -0.05535226    -0.02195480     1.53211501     0.00010967     0.00016632     0.00128308
H         0.90318919    -0.18033501    -0.63965664    -0.00043355    -0.00253426    -0.00084930
H         0.93115557    -0.03969009     1.91739779    -0.00102663     0.00124352     0.00047420
H        -0.88824644    -0.45568142     1.92400722    -0.00040444    -0.00357310     0.00045358
H        -0.93664954     0.35815193    -0.69134695    -0.00060470     0.00196901    -0.00120943
     6
  Step:    22            Position(A)                                  Velocity(au)
C        -0.03727914    -0.00336663    -0.25900112     0.00005484     0.00006066    -0.00131413
N        -0.05403130    -0.02006492     1.54587829     0.00012077     0.00017669     0.00123127
H         0.90048305    -0.20923700    -0.65021704    -0.00006665    -0.00275348    -0.00108231
H         0.91789644    -0.02604937     1.92230525    -0.00132817     0.00124241     0.00044690
H        -0.89233018    -0.49572378     1.92922768    -0.00026078    -0.00370390     0.00046561
H        -0.94392048     0.38016974    -0.70508448    -0.00067617     0.00203673    -0.00128115
     6
  Step:    23            Position(A)                                  Velocity(au)
C        -0.03683161    -0.00262884    -0.27288878     0.00002629     0.00007550    -0.00122472
N        -0.05271013    -0.01808943     1.55905137     0.00010923     0.00018175     0.00117467
H         0.90173107    -0.24057274    -0.66333427     0.00025946    -0.00297093    -0.00130404
H         0.90209929    -0.01250990     1.92717448    -0.00147325     0.00122667     0.00047258
H        -0.89395151    -0.53671125     1.93419341     0.00003489    -0.00374435     0.00041288
H        -0.95144201     0.40270937    -0.71937450    -0.00065223     0.00206332    -0.00131120
     6
  Step:    24            Position(A)                                  Velocity(au)
C        -0.03670398    -0.00171495    -0.28579431    -0.00000128     0.00009201    -0.00113552
N        -0.05164173    -0.01608889     1.57157641     0.00007510     0.00018134     0.00111235
H         0.90615918    -0.27423177    -0.67874541     0.00049219    -0.00316890    -0.00149186
H         0.88566631     0.00078649     1.93264379    -0.00143544     0.00120032     0.00055899
H        -0.89156685    -0.57763865     1.93826025     0.00045527    -0.00369618     0.00030890
H        -0.95818921     0.42530876    -0.73376956    -0.00054027     0.00204844    -0.00130279
     6
  Step:    25            Position(A)                                  Velocity(au)
C        -0.03685970    -0.00061597    -0.29773040    -0.00002393     0.00010847    -0.00104797
N        -0.05106723    -0.01412237     1.58338613     0.00002059     0.00017582     0.00104378
H         0.91249875    -0.30989858    -0.69597155     0.00059763    -0.00332996    -0.00163042
H         0.87069633     0.01374946     1.93940354    -0.00121066     0.00116812     0.00070593
H        -0.88399167    -0.61757236     1.94095113     0.00096588    -0.00356899     0.00016886
H        -0.96326144     0.44752281    -0.74787550    -0.00035376     0.00199502    -0.00126159
     6
  Step:    26            Position(A)                                  Velocity(au)
C        -0.03722743     0.00065809    -0.30872057    -0.00003935     0.00012331    -0.00096266
N        -0.05119139    -0.01224257     1.59441117    -0.00004976     0.00016594     0.00096930
H         0.91923354    -0.34708096    -0.71441392     0.00056423    -0.00344061    -0.00171301
H         0.85918079     0.02634129     1.94808744    -0.00082634     0.00113420     0.00090176
H        -0.87043636    -0.65571707     1.94195440     0.00153147    -0.00337721     0.00000697
H        -0.96592834     0.46895357    -0.76136923    -0.00010890     0.00190813    -0.00119431
     6
  Step:    27            Position(A)                                  Velocity(au)
C        -0.03772054     0.00208177    -0.31879051    -0.00004683     0.00013535    -0.00087953
N        -0.05215590    -0.01049202     1.60459136    -0.00012917     0.00015284     0.00089021
H         0.92484232    -0.38516846    -0.73344697     0.00039943    -0.00349314    -0.00174028
H         0.85261860     0.03856230     1.95913119    -0.00034296     0.00110059     0.00112251
H        -0.85048782    -0.69145528     1.94110362     0.00211913    -0.00313832    -0.00016453
H        -0.96564394     0.48926680    -0.77400334     0.00017750     0.00179407    -0.00110782
     6
  Step:    28            Position(A)                                  Velocity(au)
C        -0.03825194     0.00361904    -0.32796205    -0.00004672     0.00014380    -0.00079808
N        -0.05401729    -0.00889882     1.61388616    -0.00020946     0.00013803     0.00080856
H         0.92797194    -0.42350009    -0.75248590     0.00012265    -0.00348553    -0.00171759
H         0.85167778     0.05041885     1.97264439     0.00015649     0.00106622     0.00133547
H        -0.82407624    -0.72437388     1.93835492     0.00269906    -0.00287214    -0.00033529
H        -0.96204516     0.50820232    -0.78560485     0.00048927     0.00165984    -0.00100868
     6
  Step:    29            Position(A)                                  Velocity(au)
C        -0.03874261     0.00522763    -0.33625008    -0.00003988     0.00014824    -0.00071762
N        -0.05673822    -0.00747241     1.62228014    -0.00028250     0.00012336     0.00072656
H         0.92752545    -0.46142114    -0.77102261    -0.00024169    -0.00342013    -0.00165248
H         0.85604211     0.06188788     1.98834723     0.00058686     0.00102745     0.00150657
H        -0.79144076    -0.75428884     1.93376851     0.00324448    -0.00260088    -0.00049639
H        -0.95494013     0.52557890    -0.79607019     0.00081126     0.00151285    -0.00090308
     6
  Step:    30            Position(A)                                  Velocity(au)
C        -0.03912433     0.00686204    -0.34366141    -0.00002727     0.00014845    -0.00063741
N        -0.06019744    -0.00620009     1.62978108    -0.00034176     0.00011093     0.00064597
H         0.92268445    -0.49832192    -0.78863709    -0.00066882    -0.00330208    -0.00155286
H         0.86451643     0.07289619     2.00560355     0.00088198     0.00097992     0.00160846
H        -0.75309707    -0.78127320     1.92749546     0.00373186    -0.00234925    -0.00064007
H        -0.94429740     0.54129882    -0.80536140     0.00112924     0.00136095    -0.00079688
     6
  Step:    31            Position(A)                                  Velocity(au)
C        -0.03933918     0.00847517    -0.35019462    -0.00000974     0.00014430    -0.00055671
N        -0.06421495    -0.00504561     1.63641207    -0.00038334     0.00010283     0.00056774
H         0.91289372    -0.53366036    -0.80499430    -0.00113616    -0.00313804    -0.00142604
H         0.87533710     0.08332541     2.02353547     0.00100741     0.00092075     0.00162588
H        -0.70979909    -0.80568309     1.91976584     0.00414198    -0.00214358    -0.00075983
H        -0.93023595     0.55535230    -0.81350347     0.00142987     0.00121240    -0.00069578
     6
  Step:    32            Position(A)                                  Velocity(au)
C        -0.03933738     0.01001899    -0.35584041     0.00001204     0.00013576    -0.00047479
N        -0.06858369    -0.00395058     1.64220139    -0.00040611     0.00010083     0.00049196
H         0.89782871    -0.56697261    -0.81983442    -0.00162385    -0.00293559    -0.00127859
H         0.88655536     0.09303926     2.04117270     0.00096091     0.00084994     0.00155636
H        -0.66248332    -0.82816822     1.91087279     0.00446223    -0.00200911    -0.00085123
H        -0.91301634     0.56782230    -0.82058301     0.00170065     0.00107585    -0.00060538
     6
  Step:    33            Position(A)                                  Velocity(au)
C        -0.03907575     0.01144517    -0.36058159     0.00003752     0.00012281    -0.00039094
N        -0.07309928    -0.00283978     1.64717460    -0.00041137     0.00010601     0.00041823
H         0.87736882    -0.59788204    -0.83296586    -0.00211433    -0.00270301    -0.00111650
H         0.89635888     0.10191957     2.05758393     0.00076411     0.00077061     0.00140748
H        -0.61217916    -0.84963627     1.90114351     0.00468965    -0.00196453    -0.00091318
H        -0.89303093     0.57888848    -0.82674739     0.00193010     0.00096026    -0.00053119
     6
  Step:    34            Position(A)                                  Velocity(au)
C        -0.03851662     0.01270569    -0.36439300     0.00006616     0.00010554    -0.00030442
N        -0.07758318    -0.00163131     1.65135089    -0.00040223     0.00011827     0.00034598
H         0.85157368    -0.62610605    -0.84425995    -0.00259180    -0.00244930    -0.00094550
H         0.90327169     0.10989779     2.07196408     0.00045171     0.00068821     0.00119274
H        -0.55988816    -0.87114603     1.89089520     0.00483294    -0.00201469    -0.00094919
H        -0.87079173     0.58882979    -0.83220379     0.00210829     0.00087453    -0.00047843
     6
  Step:    35            Position(A)                                  Velocity(au)
C        -0.03762835     0.01375410    -0.36724138     0.00009732     0.00008421    -0.00021449
N        -0.08189872    -0.00025232     1.65474354    -0.00038287     0.00013593     0.00027479
H         0.82066814    -0.65146527    -0.85365052    -0.00304152    -0.00218445    -0.00077152
H         0.90624101     0.11697553     2.08367733     0.00006301     0.00060951     0.00092812
H        -0.50644938    -0.89371156     1.88037808     0.00491152    -0.00214403    -0.00096782
H        -0.84690816     0.59802059    -0.83721396     0.00222796     0.00082666    -0.00045151
     6
  Step:    36            Position(A)                                  Velocity(au)
C        -0.03638765     0.01454785    -0.36908536     0.00013003     0.00005931    -0.00012041
N        -0.08595925     0.00134232     1.65736240    -0.00035791     0.00015569     0.00020443
H         0.78503459    -0.67389497    -0.86113836    -0.00344907    -0.00191950    -0.00060118
H         0.90465004     0.12323195     2.09226851    -0.00036289     0.00054134     0.00062992
H        -0.45243928    -0.91805077     1.86972233     0.00495036    -0.00231474    -0.00098142
H        -0.82205091     0.60691458    -0.84208151     0.00228580     0.00082255    -0.00045332
     6
  Step:    37            Position(A)                                  Velocity(au)
C        -0.03478364     0.01505161    -0.36987562     0.00016291     0.00003169    -0.00002147
N        -0.08972865     0.00315379     1.65921578    -0.00033167     0.00017329     0.00013476
H         0.74521313    -0.69345805    -0.86680245    -0.00379960    -0.00166637    -0.00044251
H         0.89830214     0.12881830     2.09745809    -0.00078807     0.00048915     0.00031348
H        -0.39815085    -0.94435095     1.85890755     0.00497169    -0.00247283    -0.00100355
H        -0.79690201     0.61601547    -0.84713112     0.00228379     0.00086436    -0.00048427
     6
  Step:    38            Position(A)                                  Velocity(au)
C        -0.03282377     0.01524107    -0.36955502     0.00019388     0.00000232     0.00008309
N        -0.09321510     0.00513330     1.66031045    -0.00030777     0.00018463     0.00006561
H         0.70191099    -0.71035010    -0.87081914    -0.00407535    -0.00143511    -0.00030591
H         0.88740947     0.13393314     2.09912654    -0.00117382     0.00045413    -0.00000857
H        -0.34367409    -0.97214855     1.84776777     0.00498613    -0.00256082    -0.00104571
H        -0.77208859     0.62582418    -0.85267589     0.00222971     0.00094842    -0.00054169
     6
  Step:    39            Position(A)                                  Velocity(au)
C        -0.03054219     0.01510242    -0.36805781     0.00022850    -0.00002524     0.00020553
N        -0.09646173     0.00719287     1.66065106    -0.00030302     0.00019445    -0.00000200
H         0.65605704    -0.72485379    -0.87349479    -0.00433882    -0.00130221    -0.00025388
H         0.87262260     0.13875327     2.09727065    -0.00147585     0.00040629    -0.00035295
H        -0.28906970    -1.00037368     1.83603060     0.00514142    -0.00258599    -0.00115862
H        -0.74812275     0.63676405    -0.85898170     0.00216139     0.00108055    -0.00065595
     6
  Step:    40            Position(A)                                  Velocity(au)
C        -0.02796864     0.01476830    -0.36542773     0.00024279    -0.00003527     0.00028905
N        -0.09947354     0.00908308     1.66018727    -0.00026193     0.00015340    -0.00008234
H         0.60779399    -0.73846539    -0.87475650    -0.00446845    -0.00123778    -0.00004503
H         0.85420731     0.14476146     2.09287526    -0.00180904     0.00065706    -0.00046977
H        -0.23417758    -1.02768587     1.82374063     0.00497767    -0.00237018    -0.00113890
H        -0.72514955     0.64939362    -0.86593019     0.00204666     0.00123948    -0.00064649
     6
  Step:    41            Position(A)                                  Velocity(au)
C        -0.02523068     0.01433089    -0.36173433     0.00025406    -0.00004205     0.00039123
N        -0.10219201     0.01054869     1.65884980    -0.00024146     0.00011052    -0.00016383
H         0.55830110    -0.75193262    -0.87447980    -0.00453759    -0.00126355     0.00005945
H         0.83304644     0.15312763     2.08699359    -0.00197824     0.00087728    -0.00058880
H        -0.18017359    -1.05222596     1.81111497     0.00489659    -0.00205686    -0.00118632
H        -0.70334814     0.66388003    -0.87312494     0.00194729     0.00140837    -0.00066962
     6
  Step:    42            Position(A)                                  Velocity(au)
C        -0.02241068     0.01384842    -0.35686878     0.00025703    -0.00004182     0.00050045
N        -0.10475585     0.01150083     1.65660310    -0.00023173     0.00005816    -0.00024985
H         0.50852558    -0.76610806    -0.87345594    -0.00452708    -0.00137107     0.00010241
H         0.81092942     0.16395369     2.07999410    -0.00198432     0.00112448    -0.00065732
H        -0.12705523    -1.07268363     1.79778755     0.00479786    -0.00163192    -0.00125551
H        -0.68254889     0.68020449    -0.88057943     0.00187098     0.00156862    -0.00068091
     6
  Step:    43            Position(A)                                  Velocity(au)
C        -0.01960773     0.01341591    -0.35078611     0.00025125    -0.00003274     0.00061234
N        -0.10726147     0.01182109     1.65338376    -0.00022991    -0.00000450    -0.00034217
H         0.45926246    -0.78192743    -0.87223930    -0.00445581    -0.00155787     0.00010266
H         0.78963571     0.17772783     2.07261351    -0.00183265     0.00142123    -0.00065448
H        -0.07521115    -1.08792731     1.78364839     0.00465854    -0.00111782    -0.00132934
H        -0.66241685     0.69819649    -0.88802122     0.00183094     0.00170715    -0.00066075
     6
  Step:    44            Position(A)                                  Velocity(au)
C        -0.01691417     0.01313219    -0.34347258     0.00023789    -0.00001554     0.00072417
N        -0.10978549     0.01140231     1.64911757    -0.00023366    -0.00007590    -0.00044113
H         0.41104628    -0.80018954    -0.87121008    -0.00434994    -0.00180198     0.00007953
H         0.77083667     0.19504576     2.06567611    -0.00154583     0.00177217    -0.00058077
H        -0.02514082    -1.09713817     1.76870562     0.00447261    -0.00054405    -0.00139877
H        -0.64249357     0.71755158    -0.89503468     0.00183549     0.00181369    -0.00059915
     6