     6
  Step:   300            Position(A)                                  Velocity(au)
C        -0.04562246     0.00051447     0.01445221     0.00004186    -0.00007978    -0.00002609
N        -0.03374249    -0.03568497     1.30046976    -0.00000987     0.00014075     0.00003298
H         0.87621941    -0.05818675    -0.55662397    -0.00036094     0.00040970    -0.00048492
H         0.81002850    -0.05451331     1.87760021    -0.00014073    -0.00091678     0.00025572
H        -0.89528420    -0.19622475     1.82724922     0.00000240    -0.00035487     0.00001197
H        -0.99137190     0.12891549    -0.50017405     0.00013755    -0.00014339     0.00006979
