     6
  Step:     0            Position(A)                                  Velocity(au)
C        -0.03798585     0.01136431     0.03833338     0.00009597    -0.00007567    -0.00019919
N        -0.03198207    -0.06311270     1.28384279     0.00008605    -0.00004687     0.00022193
H         0.88391258     0.03629064    -0.53414654     0.00000556     0.00030409    -0.00006492
H         0.79195545    -0.08353771     1.85109725    -0.00035823     0.00042454    -0.00034294
H        -0.99968507     0.02789384     1.81234457    -0.00085836     0.00019132     0.00025314
H        -0.99204554     0.09119424    -0.53476773    -0.00112839     0.00063312    -0.00055569
     6
  Step:     1            Position(A)                                  Velocity(au)
C        -0.03748118     0.01096617     0.03700515     0.00008790    -0.00007003    -0.00028527
N        -0.03158183    -0.06338218     1.28528453     0.00005938    -0.00005155     0.00030362
H         0.88420546     0.03797933    -0.53479248     0.00010131     0.00031366    -0.00017182
H         0.79031150    -0.08121126     1.84954414    -0.00023540     0.00042656    -0.00021922
H        -1.00373103     0.02890888     1.81349680    -0.00061615     0.00017923     0.00016584
H        -0.99822435     0.09465338    -0.53792830    -0.00112234     0.00063148    -0.00059460
     6
  Step:     2            Position(A)                                  Velocity(au)
C        -0.03702453     0.01059842     0.03521335     0.00007857    -0.00006460    -0.00036831
N        -0.03133264    -0.06367655     1.28716345     0.00003108    -0.00005598     0.00038147
H         0.88502061     0.03972110    -0.53602572     0.00019570     0.00032353    -0.00027913
H         0.78938088    -0.07887243     1.84869964    -0.00009914     0.00042923    -0.00008526
H        -1.00642388     0.02985412     1.81415834    -0.00036564     0.00016600     0.00007493
H        -1.00432057     0.09810077    -0.54127084    -0.00109907     0.00062893    -0.00062282
     6
  Step:     3            Position(A)                                  Velocity(au)
C        -0.03662198     0.01025974     0.03297739     0.00006822    -0.00005938    -0.00044702
N        -0.03124195    -0.06399434     1.28945627     0.00000169    -0.00006008     0.00045438
H         0.88634562     0.04151738    -0.53784499     0.00028673     0.00033335    -0.00038530
H         0.78922731    -0.07651721     1.84861170     0.00004668     0.00043236     0.00005578
H        -1.00772964     0.03072425     1.81431624    -0.00011075     0.00015184    -0.00001717
H        -1.01024368     0.10153134    -0.54473937    -0.00105913     0.00062496    -0.00064080
     6
  Step:     4            Position(A)                                  Velocity(au)
C        -0.03627824     0.00994884     0.03032335     0.00005711    -0.00005437    -0.00051994
N        -0.03131416    -0.06433375     1.29213398    -0.00002813    -0.00006377     0.00052106
H         0.88815716     0.04336764    -0.54024055     0.00037212     0.00034264    -0.00048841
H         0.78989155    -0.07414276     1.84930982     0.00019721     0.00043558     0.00019998
H        -1.00763540     0.03151512     1.81397053     0.00014401     0.00013698    -0.00010786
H        -1.01590650     0.10493730    -0.54828058    -0.00100301     0.00061891    -0.00064883
     6
  Step:     5            Position(A)                                  Velocity(au)
C        -0.03599669     0.00966453     0.02728498     0.00004551    -0.00004953    -0.00058539
N        -0.03154995    -0.06469256     1.29516092    -0.00005758    -0.00006697     0.00058004
H         0.89041964     0.04526868    -0.54319217     0.00044934     0.00035080    -0.00058612
H         0.79138640    -0.07174833     1.85080113     0.00034663     0.00043838     0.00034264
H        -1.00615302     0.03222393     1.81313532     0.00039315     0.00012169    -0.00019424
H        -1.02122483     0.10830736    -0.55184287    -0.00093128     0.00061004    -0.00064709
     6
  Step:     6            Position(A)                                  Velocity(au)
C        -0.03577926     0.00940573     0.02390475     0.00003370    -0.00004487    -0.00064158
N        -0.03194550    -0.06506803     1.29849388    -0.00008571    -0.00006955     0.00062975
H         0.89308400     0.04721398    -0.54666712     0.00051573     0.00035713    -0.00067577
H         0.79369216    -0.06933614     1.85306671     0.00048839     0.00044009     0.00047845
H        -1.00332468     0.03284943     1.81184076     0.00063004     0.00010634    -0.00027302
H        -1.02611766     0.11162617    -0.55537563    -0.00084484     0.00059757    -0.00063574
     6
  Step:     7            Position(A)                                  Velocity(au)
C        -0.03562631     0.00917148     0.02023459     0.00002203    -0.00004035    -0.00068668
N        -0.03249178    -0.06545681     1.30208132    -0.00011145    -0.00007140     0.00066859
H         0.89608713     0.04919326    -0.55061834     0.00056868     0.00036093    -0.00075450
H         0.79675335    -0.06691213     1.85605886     0.00061561     0.00043999     0.00060182
H        -0.99922940     0.03339247     1.81013504     0.00084698     0.00009137    -0.00034065
H        -1.03050891     0.11487418    -0.55882911    -0.00074508     0.00058081    -0.00061507
     6
  Step:     8            Position(A)                                  Velocity(au)
C        -0.03553649     0.00896093     0.01633585     0.00001081    -0.00003600    -0.00071914
N        -0.03317390    -0.06585501     1.30586337    -0.00013371    -0.00007244     0.00069520
H         0.89935226     0.05119235    -0.55498357     0.00060593     0.00036156    -0.00081957
H         0.80047766    -0.06448641     1.85970018     0.00072172     0.00043737     0.00070737
H        -0.99398895     0.03385652     1.80808596     0.00103566     0.00007735    -0.00039353
H        -1.03433027     0.11802814    -0.56215517    -0.00063415     0.00055930    -0.00058564
     6
  Step:     9            Position(A)                                  Velocity(au)
C        -0.03550667     0.00877323     0.01227800     0.00000041    -0.00003181    -0.00073794
N        -0.03397112    -0.06625825     1.30977300    -0.00015149    -0.00007261     0.00070870
H         0.90279111     0.05319361    -0.55968608     0.00062595     0.00035858    -0.00086877
H         0.80473851    -0.06207305     1.86388526     0.00080129     0.00043170     0.00079064
H        -0.98777083     0.03424829     1.80578106     0.00118811     0.00006493    -0.00042840
H        -1.03752518     0.12106226    -0.56530867    -0.00051500     0.00053294    -0.00054846
     6
  Step:    10            Position(A)                                  Velocity(au)
C        -0.03553198     0.00860746     0.00813563    -0.00000890    -0.00002783    -0.00074295
N        -0.03485735    -0.06666192     1.31373869    -0.00016405    -0.00007196     0.00070905
H         0.90630803     0.05517706    -0.56463765     0.00062836     0.00035189    -0.00090095
H         0.80938180    -0.05968917     1.86848605     0.00085083     0.00042278     0.00084878
H        -0.98078632     0.03457809     1.80332544     0.00129784     0.00005479    -0.00044285
H        -1.04005316     0.12395034    -0.56824989    -0.00039129     0.00050217    -0.00050508
     6
  Step:    11            Position(A)                                  Velocity(au)
C        -0.03560602     0.00846253     0.00398363    -0.00001688    -0.00002411    -0.00073525
N        -0.03580261    -0.06706160     1.31768888    -0.00017104    -0.00007059     0.00069730
H         0.90980612     0.05712218    -0.56974438     0.00061415     0.00034185    -0.00091650
H         0.81423727    -0.05735307     1.87336106     0.00086960     0.00041090     0.00088122
H        -0.97328163     0.03486002     1.80083709     0.00136129     0.00004758    -0.00043573
H        -1.04189362     0.12666856    -0.57094743    -0.00026706     0.00046805    -0.00045759
     6
  Step:    12            Position(A)                                  Velocity(au)
C        -0.03572128     0.00833707    -0.00010926    -0.00002344    -0.00002072    -0.00071715
N        -0.03677538    -0.06745355     1.32155801    -0.00017262    -0.00006874     0.00067565
H         0.91319500     0.05901053    -0.57491506     0.00058575     0.00032931    -0.00091757
H         0.81913328    -0.05508145     1.87836786     0.00085972     0.00039689     0.00088997
H        -0.96552107     0.03511165     1.79843926     0.00137872     0.00004383    -0.00040744
H        -1.04304787     0.12919890    -0.57338122    -0.00014610     0.00043215    -0.00040849
     6
  Step:    13            Position(A)                                  Velocity(au)
C        -0.03586982     0.00822937    -0.00408724    -0.00002861    -0.00001770    -0.00069189
N        -0.03774532    -0.06783524     1.32529278    -0.00016939    -0.00006669     0.00064716
H         0.91639824     0.06082832    -0.58007083     0.00054650     0.00031548    -0.00090779
H         0.82391272    -0.05288640     1.88337692     0.00082570     0.00038203     0.00087916
H        -0.95776530     0.03535329     1.79625175     0.00135400     0.00004394    -0.00035958
H        -1.04353782     0.13153202    -0.57554467    -0.00003130     0.00039634    -0.00036032
     6
  Step:    14            Position(A)                                  Velocity(au)
C        -0.03604397     0.00813742    -0.00791236    -0.00003254    -0.00001510    -0.00066294
N        -0.03868580    -0.06820571     1.32885664    -0.00016222    -0.00006475     0.00061503
H         0.91935843     0.06256846    -0.58515310     0.00049993     0.00030163    -0.00089145
H         0.82844542    -0.05077299     1.88828301     0.00077308     0.00036769     0.00085400
H        -0.95025078     0.03560716     1.79438390     0.00129323     0.00004815    -0.00029437
H        -1.04340090     0.13366881    -0.57744484     0.00007583     0.00036235    -0.00031520
     6
  Step:    15            Position(A)                                  Velocity(au)
C        -0.03623692     0.00805902    -0.01156563    -0.00003664    -0.00000948    -0.00069010
N        -0.03957530    -0.06856569     1.33223071    -0.00015233    -0.00006658     0.00062660
H         0.92203778     0.06423088    -0.59012686     0.00042487     0.00030896    -0.00082340
H         0.83263345    -0.04873863     1.89301053     0.00068886     0.00033854     0.00080114
H        -0.94317688     0.03589642     1.79293103     0.00122956     0.00008581    -0.00022778
H        -1.04268243     0.13561957    -0.57910026     0.00021013     0.00030495    -0.00023415
     6
  Step:    16            Position(A)                                  Velocity(au)
C        -0.03645671     0.00803058    -0.01568694    -0.00004081    -0.00000090    -0.00077157
N        -0.04040198    -0.06895579     1.33591587    -0.00014024    -0.00007205     0.00068063
H         0.92414494     0.06604918    -0.59442941     0.00032373     0.00032730    -0.00070864
H         0.83620604    -0.04695910     1.89730852     0.00057716     0.00030517     0.00072380
H        -0.93639869     0.03657391     1.79181776     0.00116417     0.00014491    -0.00016078
H        -1.04103357     0.13710434    -0.58008276     0.00036998     0.00023456    -0.00011866
     6
  Step:    17            Position(A)                                  Velocity(au)
C        -0.03669581     0.00804889    -0.02024159    -0.00004380     0.00000708    -0.00084623
N        -0.04115220    -0.06937582     1.33988418    -0.00012569    -0.00007748     0.00072906
H         0.92567801     0.06791127    -0.59809530     0.00022315     0.00033181    -0.00059962
H         0.83912345    -0.04530707     1.90114936     0.00045955     0.00028777     0.00064295
H        -0.93008625     0.03752589     1.79112312     0.00106845     0.00019110    -0.00007942
H        -1.03852211     0.13825713    -0.58043450     0.00051730     0.00018162    -0.00001145
     6
  Step:    18            Position(A)                                  Velocity(au)
C        -0.03694833     0.00811006    -0.02518627    -0.00004574     0.00001438    -0.00091246
N        -0.04181288    -0.06982549     1.34409991    -0.00010882    -0.00008280     0.00077048
H         0.92664985     0.06977394    -0.60116043     0.00012524     0.00033030    -0.00049634
H         0.84136473    -0.04372875     1.90452598     0.00033894     0.00027747     0.00056115
H        -0.92440488     0.03871908     1.79092625     0.00094324     0.00023354     0.00001574
H        -1.03522664     0.13914314    -0.58021125     0.00064978     0.00013799     0.00008556
     6
  Step:    19            Position(A)                                  Velocity(au)
C        -0.03720872     0.00821012    -0.03047270    -0.00004667     0.00002096    -0.00096891
N        -0.04237231    -0.07030422     1.34852330    -0.00008992    -0.00008791     0.00080387
H         0.92708230     0.07161483    -0.60366062     0.00003178     0.00032530    -0.00039898
H         0.84292388    -0.04219587     1.90744130     0.00021816     0.00027081     0.00048000
H        -0.91951005     0.04014446     1.79129959     0.00079090     0.00027501     0.00012284
H        -1.03123632     0.13980440    -0.57947516     0.00076482     0.00010072     0.00017097
     6
  Step:    20            Position(A)                                  Velocity(au)
C        -0.03747138     0.00834500    -0.03604631    -0.00004653     0.00002678    -0.00101423
N        -0.04282079    -0.07081079     1.35311003    -0.00006949    -0.00009265     0.00082831
H         0.92700601     0.07342003    -0.60563242    -0.00005537     0.00031788    -0.00030807
H         0.84380996    -0.04069335     1.90990608     0.00010031     0.00026594     0.00040111
H        -0.91554009     0.04180150     1.79230308     0.00061573     0.00031624     0.00023886
H        -1.02665414     0.14027205    -0.57829495     0.00085944     0.00006846     0.00024331
     6
  Step:    21            Position(A)                                  Velocity(au)
C        -0.03773043     0.00851037    -0.04184562    -0.00004528     0.00003177    -0.00104731
N        -0.04315158    -0.07134318     1.35781138    -0.00004820    -0.00009690     0.00084319
H         0.92646139     0.07517936    -0.60711506    -0.00013421     0.00030862    -0.00022445
H         0.84404868    -0.03921384     1.91193913    -0.00001126     0.00026177     0.00032622
H        -0.91260568     0.04369056     1.79397798     0.00042411     0.00035695     0.00035974
H        -1.02159917     0.14057207    -0.57674683     0.00093063     0.00004065     0.00030110
     6
  Step:    22            Position(A)                                  Velocity(au)
C        -0.03797969     0.00870162    -0.04780357    -0.00004290     0.00003589    -0.00106755
N        -0.04336184    -0.07189856     1.36257577    -0.00002683    -0.00010051     0.00084837
H         0.92549934     0.07688465    -0.60815211    -0.00020279     0.00029792    -0.00014918
H         0.84368360    -0.03775467     1.91356822    -0.00011312     0.00025773     0.00025715
H        -0.91077893     0.04580870     1.79634158     0.00022416     0.00039633     0.00048076
H        -1.01620677     0.14072838    -0.57491482     0.00097586     0.00001711     0.00034304
     6
  Step:    23            Position(A)                                  Velocity(au)
C        -0.03821286     0.00891394    -0.05385013    -0.00003941     0.00003912    -0.00107505
N        -0.04345332    -0.07247341     1.36735122    -0.00000628    -0.00010341     0.00084429
H         0.92418103     0.07852943    -0.60879259    -0.00025943     0.00028618    -0.00008332
H         0.84277661    -0.03631567     1.91483075    -0.00020211     0.00025357     0.00019573
H        -0.91008498     0.04814729     1.79938404     0.00002493     0.00043335     0.00059702
H        -1.01062573     0.14076445    -0.57288940     0.00099354    -0.00000218     0.00036835
     6
  Step:    24            Position(A)                                  Velocity(au)
C        -0.03842375     0.00914242    -0.05991610    -0.00003487     0.00004148    -0.00107065
N        -0.04343264    -0.07306373     1.37208838     0.00001261    -0.00010558     0.00083196
H         0.92257636     0.08010906    -0.60909090    -0.00030293     0.00027388    -0.00002772
H         0.84140644    -0.03489769     1.91577349    -0.00027564     0.00024930     0.00014351
H        -0.91049801     0.05069128     1.80306814    -0.00016454     0.00046705     0.00070403
H        -1.00501254     0.14070386    -0.57076467     0.00098332    -0.00001720     0.00037687
     6
  Step:    25            Position(A)                                  Velocity(au)
C        -0.03860650     0.00938218    -0.06593723    -0.00002937     0.00004299    -0.00105588
N        -0.04331094    -0.07366539     1.37674366     0.00002913    -0.00010705     0.00081286
H         0.92076114     0.08162134    -0.60910552    -0.00033266     0.00026152     0.00001712
H         0.83966473    -0.03350120     1.91645093    -0.00033199     0.00024512     0.00010167
H        -0.91194256     0.05342001     1.80733220    -0.00033626     0.00049668     0.00079824
H        -0.99952456     0.14057033    -0.56863473     0.00094608    -0.00002800     0.00036915
     6
  Step:    26            Position(A)                                  Velocity(au)
C        -0.03875594     0.00962867    -0.07185771    -0.00002307     0.00004376    -0.00103269
N        -0.04310316    -0.07427443     1.38128150     0.00004274    -0.00010790     0.00078870
H         0.91881406     0.08306673    -0.60889727    -0.00034859     0.00024962     0.00005107
H         0.83765171    -0.03212550     1.91692329    -0.00037030     0.00024133     0.00007089
H        -0.91430096     0.05630852     1.81209590    -0.00048404     0.00052180     0.00087726
H        -0.99431278     0.14038720    -0.56658976     0.00088383    -0.00003476     0.00034635
     6
  Step:    27            Position(A)                                  Velocity(au)
C        -0.03886774     0.00987776    -0.07763260    -0.00001611     0.00004387    -0.00100316
N        -0.04282689    -0.07488737     1.38567579     0.00005311    -0.00010824     0.00076120
H         0.91681335     0.08444828    -0.60852712    -0.00035112     0.00023862     0.00007439
H         0.83547107    -0.03076811     1.91725373    -0.00039050     0.00023827     0.00005138
H        -0.91742438     0.05932951     1.81726734    -0.00060382     0.00054227     0.00093993
H        -0.98951509     0.14017670    -0.56471230     0.00079936    -0.00003776     0.00031009
     6
  Step:    28            Position(A)                                  Velocity(au)
C        -0.03893857     0.01012592    -0.08322846    -0.00000868     0.00004343    -0.00096923
N        -0.04250114    -0.07550132     1.38990968     0.00006011    -0.00010819     0.00073188
H         0.91483412     0.08577144    -0.60805408    -0.00034103     0.00022887     0.00008762
H         0.83322536    -0.02942473     1.91750567    -0.00039323     0.00023624     0.00004292
H        -0.92114526     0.06245519     1.82274999    -0.00069358     0.00055818     0.00098608
H        -0.98525210     0.13995924    -0.56307492     0.00069588    -0.00003738     0.00026224
     6
  Step:    29            Position(A)                                  Velocity(au)
C        -0.03896615     0.01037023    -0.08862254    -0.00000095     0.00004255    -0.00093253
N        -0.04214527    -0.07611410     1.39397451     0.00006378    -0.00010785     0.00070195
H         0.91294643     0.08704342    -0.60753356    -0.00031928     0.00022060     0.00009153
H         0.83101230    -0.02808937     1.91774040    -0.00037955     0.00023548     0.00004494
H        -0.92528884     0.06565859     1.82844837    -0.00075301     0.00056972     0.00101626
H        -0.98162460     0.13975287    -0.56173876     0.00057683    -0.00003409     0.00020481
     6
  Step:    30            Position(A)                                  Velocity(au)
C        -0.03894929     0.01060839    -0.09380105     0.00000690     0.00004133    -0.00089432
N        -0.04177806    -0.07672412     1.39786806     0.00006426    -0.00010732     0.00067225
H         0.91121422     0.08827249    -0.60701635    -0.00028695     0.00021392     0.00008698
H         0.82892216    -0.02675492     1.91801512    -0.00035093     0.00023614     0.00005656
H        -0.92968258     0.06891443     1.83427191    -0.00078308     0.00057721     0.00103149
H        -0.97871229     0.13957272    -0.56075290     0.00044575    -0.00002841     0.00013984
     6
  Step:    31            Position(A)                                  Velocity(au)
C        -0.03888797     0.01083862    -0.09875712     0.00001466     0.00003985    -0.00085552
N        -0.04141706    -0.07733028     1.40159263     0.00006181    -0.00010665     0.00064336
H         0.90969467     0.08946762    -0.60654793    -0.00024516     0.00020888     0.00007489
H         0.82703548    -0.02541339     1.91838131    -0.00030912     0.00023829     0.00007669
H        -0.93416283     0.07219960     1.84013745    -0.00078566     0.00058097     0.00103307
H        -0.97657323     0.13943090    -0.56015412     0.00030628    -0.00002087     0.00006939
     6
  Step:    32            Position(A)                                  Velocity(au)
C        -0.03878330     0.01105965    -0.10348891     0.00002213     0.00003818    -0.00081679
N        -0.04107809    -0.07793187     1.40515346     0.00005675    -0.00010590     0.00061561
H         0.90843802     0.09063781    -0.60616827    -0.00019512     0.00020541     0.00005624
H         0.82542170    -0.02405656     1.91888359    -0.00025612     0.00024194     0.00010408
H        -0.93857942     0.07549333     1.84597039    -0.00076326     0.00058137     0.00102245
H        -0.97524394     0.13933634    -0.55996718     0.00016209    -0.00001202    -0.00000449
     6
  Step:    33            Position(A)                                  Velocity(au)
C        -0.03863756     0.01127059    -0.10799825     0.00002913     0.00003640    -0.00077861
N        -0.04077496    -0.07852845     1.40855756     0.00004944    -0.00010510     0.00058918
H         0.90748712     0.09179166    -0.60591164    -0.00013811     0.00020344     0.00003200
H         0.82413774    -0.02267607     1.91955882    -0.00019413     0.00024703     0.00013730
H        -0.94279833     0.07877719     1.85170534    -0.00071875     0.00057879     0.00100113
H        -0.97473939     0.13929492    -0.56020495     0.00001684    -0.00000242    -0.00007982
     6
  Step:    34            Position(A)                                  Velocity(au)
C        -0.03845409     0.01147102    -0.11228946     0.00003545     0.00003456    -0.00074132
N        -0.04051926    -0.07911980     1.41181283     0.00004027    -0.00010428     0.00056416
H         0.90687697     0.09293722    -0.60580659    -0.00007553     0.00020282     0.00000317
H         0.82322744    -0.02126441     1.92043549    -0.00012551     0.00025340     0.00017487
H        -0.94670337     0.08203533     1.85728596    -0.00065524     0.00057365     0.00097064
H        -0.97505356     0.13930902    -0.56086940    -0.00012583     0.00000735    -0.00015473
     6
  Step:    35            Position(A)                                  Velocity(au)
C        -0.03823726     0.01166086    -0.11636870     0.00004094     0.00003275    -0.00070518
N        -0.04032022    -0.07970587     1.41492757     0.00002966    -0.00010345     0.00054057
H         0.90663426     0.09408179    -0.60587583    -0.00000887     0.00020342    -0.00002922
H         0.82272059    -0.01981484     1.92153330    -0.00005275     0.00026090     0.00021520
H        -0.95019684     0.08525442     1.86266507    -0.00057593     0.00056638     0.00093253
H        -0.97616017     0.13937794    -0.56195205    -0.00026247     0.00001676    -0.00022745
     6
  Step:    36            Position(A)                                  Velocity(au)
C        -0.03799230     0.01184038    -0.12024351     0.00004545     0.00003099    -0.00067037
N        -0.04018472    -0.08028672     1.41791013     0.00001801    -0.00010265     0.00051839
H         0.90677696     0.09523169    -0.60613620     0.00006033     0.00020505    -0.00006416
H         0.82263248    -0.01832159     1.92286289     0.00002160     0.00026933     0.00025672
H        -0.95319957     0.08842375     1.86780440    -0.00048401     0.00055741     0.00088829
H        -0.97801405     0.13949810    -0.56343494    -0.00038988     0.00002534    -0.00029640
     6
  Step:    37            Position(A)                                  Velocity(au)
C        -0.03772509     0.01201010    -0.12392239     0.00004889     0.00002936    -0.00063705
N        -0.04011726    -0.08086250     1.42076875     0.00000574    -0.00010187     0.00049760
H         0.90731405     0.09639226    -0.60659877     0.00013045     0.00020753    -0.00010063
H         0.82296393    -0.01678006     1.92442599     0.00009499     0.00027848     0.00029786
H        -0.95565053     0.09153524     1.87267418    -0.00038257     0.00054720     0.00083936
H        -0.98055329     0.13966344    -0.56529186    -0.00050527     0.00003266    -0.00036022
     6
  Step:    38            Position(A)                                  Velocity(au)
C        -0.03744197     0.01217084    -0.12741450     0.00005118     0.00002787    -0.00060530
N        -0.04012007    -0.08143347     1.42351135    -0.00000676    -0.00010114     0.00047811
H         0.90824542     0.09756777    -0.60726899     0.00019989     0.00021067    -0.00013766
H         0.82370177    -0.01518691     1.92621576     0.00016502     0.00028810     0.00033714
H        -0.95750596     0.09458333     1.87725263    -0.00027458     0.00053619     0.00078708
H        -0.98370167     0.13986574    -0.56748972    -0.00060631     0.00003839    -0.00041778
     6
  Step:    39            Position(A)                                  Velocity(au)
C        -0.03714951     0.01232357    -0.13072943     0.00005231     0.00002658    -0.00057519
N        -0.04019325    -0.08199990     1.42614547    -0.00001913    -0.00010046     0.00045988
H         0.90956195     0.09876142    -0.60814687     0.00026705     0.00021428    -0.00017430
H         0.82481969    -0.01354016     1.92821736     0.00022944     0.00029796     0.00037320
H        -0.95873838     0.09756501     1.88152543    -0.00016285     0.00052480     0.00073273
H        -0.98737171     0.14009512    -0.56999005    -0.00069121     0.00004226    -0.00046824
     6
  Step:    40            Position(A)                                  Velocity(au)
C        -0.03685425     0.01246946    -0.13387700     0.00005230     0.00002549    -0.00054675
N        -0.04033495    -0.08256216     1.42867825    -0.00003102    -0.00009984     0.00044281
H         0.91124580     0.09997530    -0.60922732     0.00033041     0.00021817    -0.00020967
H         0.82627966    -0.01183916     1.93040882     0.00028630     0.00030782     0.00040486
H        -0.95933562     0.10047969     1.88548516    -0.00005001     0.00051348     0.00067750
H        -0.99146772     0.14034052    -0.57275056    -0.00075874     0.00004409    -0.00051102
     6
  Step:    41            Position(A)                                  Velocity(au)
C        -0.03656245     0.01260977    -0.13686711     0.00005120     0.00002464    -0.00051999
N        -0.04054153    -0.08312063     1.43111635    -0.00004216    -0.00009928     0.00042683
H         0.91327101     0.10121049    -0.61050057     0.00038857     0.00022216    -0.00024297
H         0.82803361    -0.01008461     1.93276216     0.00033395     0.00031745     0.00043112
H        -0.95929978     0.10332920     1.88913087     0.00006148     0.00050265     0.00062251
H        -0.99588911     0.14059011    -0.57572665    -0.00080823     0.00004378    -0.00054581
     6
  Step:    42            Position(A)                                  Velocity(au)
C        -0.03627998     0.01274584    -0.13970957     0.00004910     0.00002402    -0.00049490
N        -0.04080782    -0.08367575     1.43346588    -0.00005227    -0.00009880     0.00041185
H         0.91560422     0.10246721    -0.61195263     0.00044028     0.00022611    -0.00027350
H         0.83002545    -0.00827846     1.93524458     0.00037113     0.00032663     0.00045125
H        -0.95864605     0.10611777     1.89246760     0.00016934     0.00049274     0.00056879
H        -1.00053329     0.14083156    -0.57887272    -0.00083953     0.00004129    -0.00057253
     6
  Step:    43            Position(A)                                  Velocity(au)
C        -0.03601209     0.01287903    -0.14241400     0.00004613     0.00002365    -0.00047145
N        -0.04112738    -0.08422803     1.43573243    -0.00006115    -0.00009842     0.00039778
H         0.91820572     0.10374469    -0.61356598     0.00048450     0.00022984    -0.00030068
H         0.83219331    -0.00642371     1.93781977     0.00039700     0.00033520     0.00046471
H        -0.95740178     0.10885184     1.89550592     0.00027151     0.00048414     0.00051732
H        -1.00529860     0.14105289    -0.58214358    -0.00085299     0.00003669    -0.00059132
     6
  Step:    44            Position(A)                                  Velocity(au)
C        -0.03576331     0.01301072    -0.14498975     0.00004241     0.00002352    -0.00044959
N        -0.04149267    -0.08477805     1.43792104    -0.00006862    -0.00009814     0.00038454
H         0.92103057     0.10504142    -0.61532020     0.00052038     0.00023325    -0.00032404
H         0.83447180    -0.00452425     1.94044932     0.00041109     0.00034301     0.00047124
H        -0.95560521     0.11154012     1.89826154     0.00036610     0.00047727     0.00046898
H        -1.01008674     0.14124250    -0.58549550    -0.00084938     0.00003008    -0.00060253
     6