     6
  Step:     0            Position(A)                                  Velocity(au)
C        -0.03453665     0.02036895     0.01842540     0.00014010    -0.00012761     0.00026850
N        -0.04101673    -0.04846532     1.29838527     0.00008409     0.00012354    -0.00019548
H         0.90190596     0.02052907    -0.54120410    -0.00105904     0.00023641     0.00013624
H         0.81032598    -0.15162791     1.81860302    -0.00093103    -0.00025340    -0.00068197
H        -0.96809851    -0.11600290     1.86458592    -0.00056930    -0.00058390    -0.00010461
H        -0.97554779     0.00809684    -0.51232019    -0.00027862     0.00040461     0.00016729
     6
  Step:     1            Position(A)                                  Velocity(au)
C        -0.03376907     0.01971510     0.01953443     0.00013948    -0.00011152     0.00013645
N        -0.04061484    -0.04778729     1.29763893     0.00006172     0.00012459    -0.00007717
H         0.89628606     0.02167789    -0.54047543    -0.00098658     0.00018310     0.00012578
H         0.80565213    -0.15319717     1.81512216    -0.00076531    -0.00032257    -0.00058304
H        -0.97076862    -0.11929002     1.86370263    -0.00040327    -0.00061818    -0.00022065
H        -0.97731535     0.01017286    -0.51152883    -0.00036457     0.00035496     0.00012426
     6
  Step:     2            Position(A)                                  Velocity(au)
C        -0.03301116     0.01914934     0.01991773     0.00013664    -0.00009554     0.00000365
N        -0.04034176    -0.04710269     1.29754129     0.00003729     0.00012604     0.00004129
H         0.89111601     0.02253160    -0.53982845    -0.00089563     0.00012882     0.00010615
H         0.80195600    -0.15515578     1.81222655    -0.00057610    -0.00039571    -0.00046936
H        -0.97250894    -0.12276378     1.86217271    -0.00023131    -0.00065265    -0.00033985
H        -0.97953500     0.01197888    -0.51096123    -0.00044337     0.00030633     0.00008574
     6
  Step:     3            Position(A)                                  Velocity(au)
C        -0.03227525     0.01867065     0.01957435     0.00013155    -0.00007979    -0.00012896
N        -0.04020717    -0.04640937     1.29809031     0.00001137     0.00012789     0.00015907
H         0.88649458     0.02308618    -0.53931490    -0.00078720     0.00007395     0.00007691
H         0.79935395    -0.15752324     1.80999091    -0.00036806    -0.00047213    -0.00034328
H        -0.97329738    -0.12642504     1.85998723    -0.00005691    -0.00068738    -0.00045942
H        -0.98216247     0.01352177    -0.51059153    -0.00051342     0.00025910     0.00005203
     6
  Step:     4            Position(A)                                  Velocity(au)
C        -0.03157365     0.01827739     0.01850846     0.00012420    -0.00006437    -0.00026041
N        -0.04021746    -0.04570519     1.29927952    -0.00001540     0.00013009     0.00027532
H         0.88251376     0.02333974    -0.53898796    -0.00066244     0.00001887     0.00003794
H         0.79793394    -0.16031507     1.80847525    -0.00014667    -0.00055092    -0.00020769
H        -0.97313088    -0.13027527     1.85715227     0.00011642    -0.00072233    -0.00057651
H        -0.98514550     0.01481020    -0.51039270    -0.00057330     0.00021348     0.00002324
     6
  Step:     5            Position(A)                                  Velocity(au)
C        -0.03091847     0.01796749     0.01672967     0.00011463    -0.00004933    -0.00038951
N        -0.04037541    -0.04498826     1.30109794    -0.00004232     0.00013257     0.00038907
H         0.87925818     0.02329229    -0.53890049    -0.00052275    -0.00003606    -0.00001051
H         0.79775175    -0.16354141     1.80772217     0.00008177    -0.00063080    -0.00006602
H        -0.97202562    -0.13431570     1.85368946     0.00028492    -0.00075723    -0.00068802
H        -0.98842522     0.01585378    -0.51033771    -0.00062186     0.00016960    -0.00000073
     6
  Step:     6            Position(A)                                  Velocity(au)
C        -0.03032153     0.01773852     0.01425395     0.00010292    -0.00003475    -0.00051478
N        -0.04067969    -0.04425716     1.30352922    -0.00006856     0.00013519     0.00049904
H         0.87680392     0.02294583    -0.53910278    -0.00036993    -0.00009040    -0.00006768
H         0.79882712    -0.16720518     1.80775417     0.00031013    -0.00071013     0.00007770
H        -0.97001881    -0.13854632     1.84963718     0.00044426    -0.00079165    -0.00079054
H        -0.99193786     0.01666265    -0.51040063    -0.00065820     0.00012753    -0.00002013
     6
  Step:     7            Position(A)                                  Velocity(au)
C        -0.02979399     0.01758778     0.01110536     0.00008921    -0.00002070    -0.00063436
N        -0.04112442    -0.04351124     1.30655021    -0.00009318     0.00013777     0.00060362
H         0.87521652     0.02230467    -0.53963999    -0.00020632    -0.00014360    -0.00013232
H         0.80114006    -0.17129998     1.80857105     0.00053052    -0.00078680     0.00021892
H        -0.96717179    -0.14296489     1.84505241     0.00058944    -0.00082495    -0.00088023
H        -0.99561647     0.01724716    -0.51055768    -0.00068180     0.00008736    -0.00003545
     6
  Step:     8            Position(A)                                  Velocity(au)
C        -0.02934607     0.01751217     0.00731797     0.00007375    -0.00000727    -0.00074598
N        -0.04169855    -0.04275078     1.31012907    -0.00011518     0.00014012     0.00070083
H         0.87454804     0.02137576    -0.54054955    -0.00003502    -0.00019504    -0.00020263
H         0.80462779    -0.17580798     1.81014781     0.00073461    -0.00085837     0.00035279
H        -0.96357397    -0.14756619     1.84001292     0.00071464    -0.00085642    -0.00095290
H        -0.99939261     0.01761781    -0.51078820    -0.00069245     0.00004915    -0.00004728
     6
  Step:     9            Position(A)                                  Velocity(au)
C        -0.02898654     0.01750822     0.00293787     0.00005687     0.00000545    -0.00084708
N        -0.04238548    -0.04197714     1.31422345    -0.00013347     0.00014201     0.00078843
H         0.87483314     0.02016926    -0.54185852     0.00014004    -0.00024399    -0.00027632
H         0.80918307    -0.18069802     1.81243364     0.00091396    -0.00092210     0.00047437
H        -0.95934736    -0.15234159     1.83461938     0.00081350    -0.00088531    -0.00100419
H        -1.00319796     0.01778527    -0.51107538    -0.00069030     0.00001302    -0.00005639
     6
  Step:    10            Position(A)                                  Velocity(au)
C        -0.02872218     0.01757192    -0.00197532     0.00003903     0.00001731    -0.00093497
N        -0.04316291    -0.04119284     1.31877893    -0.00014705     0.00014322     0.00086399
H         0.87608438     0.01869899    -0.54358108     0.00031398    -0.00028963    -0.00035067
H         0.81465483    -0.18592436     1.81535217     0.00106071    -0.00097522     0.00057904
H        -0.95464907    -0.15727898     1.82899594     0.00087966    -0.00091094    -0.00103001
H        -1.00696594     0.01776061    -0.51140689    -0.00067588    -0.00002088    -0.00006359
     6
  Step:    11            Position(A)                                  Velocity(au)
C        -0.02855720     0.01769864    -0.00734789     0.00002079     0.00002819    -0.00100713
N        -0.04400324    -0.04040152     1.32372836    -0.00015507     0.00014359     0.00092524
H         0.87828730     0.01698297    -0.54571624     0.00048121    -0.00033114    -0.00042258
H         0.82085209    -0.19142650     1.81880370     0.00116833    -0.00101516     0.00066288
H        -0.94967013    -0.16236292     1.82328812     0.00090768    -0.00093273    -0.00102716
H        -1.01063342     0.01755560    -0.51177499    -0.00065014    -0.00005232    -0.00006971
     6
  Step:    12            Position(A)                                  Velocity(au)
C        -0.02849265     0.01788307    -0.01309283     0.00000281     0.00003795    -0.00106154
N        -0.04487464    -0.03960781     1.32899252    -0.00015695     0.00014297     0.00097035
H         0.88139640     0.01504362    -0.54824586     0.00063572    -0.00036771    -0.00048875
H         0.82755181    -0.19713052     1.82266955     0.00123243    -0.00103997     0.00072318
H        -0.94462940    -0.16757516     1.81765733     0.00089393    -0.00095036    -0.00099394
H        -1.01414273     0.01718303    -0.51217642    -0.00061451    -0.00008108    -0.00007549
     6
  Step:    13            Position(A)                                  Velocity(au)
C        -0.02852610     0.01811919    -0.01911293    -0.00001427     0.00004648    -0.00109721
N        -0.04574268    -0.03881694     1.33448274    -0.00015254     0.00014136     0.00099838
H         0.88533299     0.01290759    -0.55113309     0.00077175    -0.00039878    -0.00054596
H         0.83451112    -0.20295246     1.82681868     0.00125153    -0.00104869     0.00075883
H        -0.93976272    -0.17289573     1.81227226     0.00083741    -0.00096393    -0.00093070
H        -1.01744405     0.01665696    -0.51261169    -0.00057091    -0.00010695    -0.00008154
     6
  Step:    14            Position(A)                                  Velocity(au)
C        -0.02865152     0.01840045    -0.02530622    -0.00002984     0.00005374    -0.00111455
N        -0.04657257    -0.03803431     1.34010571    -0.00014215     0.00013883     0.00100966
H         0.88998698     0.01060469    -0.55432304     0.00088482    -0.00042412    -0.00059179
H         0.84148293    -0.20880380     1.83111626     0.00122743    -0.00104175     0.00077055
H        -0.93530793    -0.17830488     1.80729748     0.00074034    -0.00097409    -0.00084011
H        -1.02049770     0.01599253    -0.51308405    -0.00052168    -0.00012983    -0.00008824
     6
  Step:    15            Position(A)                                  Velocity(au)
C        -0.02885966     0.01872003    -0.03157339    -0.00004343     0.00005978    -0.00111558
N        -0.04733191    -0.03726482     1.34577052    -0.00012658     0.00013563     0.00100605
H         0.89522508     0.00816599    -0.55774924     0.00097263    -0.00044407    -0.00062529
H         0.84823361    -0.21459899     1.83543334     0.00116522    -0.00102111     0.00076098
H        -0.93148580    -0.18378584     1.80288003     0.00060819    -0.00098221    -0.00072708
H        -1.02327637     0.01520543    -0.51359815    -0.00046952    -0.00014985    -0.00009582
     6
  Step:    16            Position(A)                                  Velocity(au)
C        -0.02913891     0.01907136    -0.03782655    -0.00008730     0.00010313    -0.00175845
N        -0.04799323    -0.03651209     1.35139680    -0.00017039     0.00021045     0.00157838
H         0.90090299     0.00562083    -0.56134077     0.00164946    -0.00073207    -0.00103049
H         0.85456042    -0.22026397     1.83965691     0.00170838    -0.00157735     0.00116969
H        -0.92848213    -0.18932839     1.79913730     0.00071497    -0.00157760    -0.00095267
H        -1.02576719     0.01431072    -0.51415945    -0.00066467    -0.00026665    -0.00016659
     6
  Step:    17            Position(A)                                  Velocity(au)
C        -0.02963519     0.01963325    -0.04731811    -0.00005155     0.00005664    -0.00094675
N        -0.04888967    -0.03535235     1.35995518    -0.00008565     0.00011851     0.00085740
H         0.91040633     0.00162339    -0.56749917     0.00100453    -0.00040455    -0.00067270
H         0.86383605    -0.22890307     1.84611819     0.00092217    -0.00087427     0.00065554
H        -0.92500205    -0.19804667     1.79428377     0.00029760    -0.00089540    -0.00044917
H        -1.02965516     0.01285297    -0.51543765    -0.00041978    -0.00014762    -0.00016700
     6
  Step:    18            Position(A)                                  Velocity(au)
C        -0.02994828     0.01996479    -0.05260577    -0.00005822     0.00006034    -0.00092165
N        -0.04930007    -0.03469144     1.36472769    -0.00005907     0.00011538     0.00082901
H         0.91613543    -0.00069899    -0.57129381     0.00101253    -0.00041581    -0.00066539
H         0.86865070    -0.23372552     1.84967723     0.00077561    -0.00083024     0.00060027
H        -0.92389287    -0.20315725     1.79217207     0.00009299    -0.00091336    -0.00029793
H        -1.03187426     0.01197294    -0.51640303    -0.00036653    -0.00016300    -0.00017475
     6
  Step:    19            Position(A)                                  Velocity(au)
C        -0.03029378     0.02031580    -0.05774431    -0.00006355     0.00006406    -0.00090148
N        -0.04955791    -0.03404712     1.36933335    -0.00003243     0.00011350     0.00080516
H         0.92186058    -0.00308048    -0.57502634     0.00101182    -0.00042890    -0.00065627
H         0.87261014    -0.23829518     1.85290871     0.00062700    -0.00079162     0.00054517
H        -0.92395011    -0.20837899     1.79091347    -0.00011155    -0.00094133    -0.00015087
H        -1.03380153     0.01100902    -0.51741445    -0.00031937    -0.00017880    -0.00018479
     6
  Step:    20            Position(A)                                  Velocity(au)
C        -0.03066420     0.02068651    -0.06276185    -0.00006764     0.00006789    -0.00088600
N        -0.04966543    -0.03341277     1.37379863    -0.00000619     0.00011269     0.00078574
H         0.92753459    -0.00553095    -0.57868742     0.00100301    -0.00044386    -0.00064550
H         0.87571453    -0.24264400     1.85581918     0.00047787    -0.00075831     0.00049120
H        -0.92514956    -0.21376234     1.79047238    -0.00031101    -0.00097764    -0.00000975
H        -1.03547234     0.00995862    -0.51848484    -0.00027790    -0.00019534    -0.00019728
     6
  Step:    21            Position(A)                                  Velocity(au)
C        -0.03105271     0.02107755    -0.06768511    -0.00007049     0.00007180    -0.00087380
N        -0.04962731    -0.03278270     1.37814925     0.00001921     0.00011266     0.00076959
H         0.93311427    -0.00806055    -0.58226879     0.00098529    -0.00046013    -0.00063235
H         0.87797184    -0.24680332     1.85841997     0.00032903    -0.00072926     0.00043853
H        -0.92743956    -0.21934798     1.79080407    -0.00049986    -0.00101922     0.00012364
H        -1.03691949     0.00881732    -0.51962790    -0.00024140    -0.00021266    -0.00021209
     6
  Step:    22            Position(A)                                  Velocity(au)
C        -0.03145246     0.02148941    -0.07253296    -0.00007204     0.00007570    -0.00086320
N        -0.04945063    -0.03215294     1.38240442     0.00004322     0.00011307     0.00075534
H         0.93855239    -0.01067623    -0.58575853     0.00095749    -0.00047686    -0.00061595
H         0.87939381    -0.25079884     1.86072293     0.00018163    -0.00070339     0.00038726
H        -0.93073916    -0.22515960     1.79185494    -0.00067194    -0.00106253     0.00024710
H        -1.03817172     0.00758062    -0.52085647    -0.00020928    -0.00023060    -0.00022892
     6
  Step:    23            Position(A)                                  Velocity(au)
C        -0.03185638     0.02192208    -0.07731489    -0.00007224     0.00007950    -0.00085277
N        -0.04914520    -0.03152134     1.38657570     0.00006524     0.00011361     0.00074183
H         0.94379589    -0.01338038    -0.58914023     0.00091884    -0.00049325    -0.00059570
H         0.87999804    -0.25465019     1.86274020     0.00003751    -0.00067992     0.00033778
H        -0.93493560    -0.23120141     1.79356072    -0.00082103    -0.00110411     0.00035824
H        -1.03925424     0.00624482    -0.52218173    -0.00018117    -0.00024896    -0.00024744
     6
  Step:    24            Position(A)                                  Velocity(au)
C        -0.03225719     0.02237504    -0.08203247    -0.00007107     0.00008312    -0.00084144
N        -0.04872383    -0.03088733     1.39066811     0.00008471     0.00011406     0.00072823
H         0.94878790    -0.01617090    -0.59239436     0.00086916    -0.00050860    -0.00057136
H         0.87981170    -0.25837285     1.86448566    -0.00010093    -0.00065852     0.00029073
H        -0.93988509    -0.23745892     1.79584564    -0.00094163    -0.00114092     0.00045483
H        -1.04018989     0.00480732    -0.52361283    -0.00015683    -0.00026755    -0.00026727
     6
  Step:    25            Position(A)                                  Velocity(au)
C        -0.03264755     0.02284730    -0.08668142    -0.00006857     0.00008648    -0.00082857
N        -0.04820225    -0.03025163     1.39468197     0.00010111     0.00011425     0.00071401
H         0.95347094    -0.01904184    -0.59550027     0.00080889    -0.00052235    -0.00054305
H         0.87887459    -0.26198044     1.86597649    -0.00023102    -0.00063920     0.00024697
H        -0.94541739    -0.24390155     1.79862368    -0.00102958    -0.00117053     0.00053515
H        -1.04100004     0.00326659    -0.52515683    -0.00013615    -0.00028622    -0.00028806
     6
  Step:    26            Position(A)                                  Velocity(au)
C        -0.03302037     0.02333755    -0.09125379    -0.00006481     0.00008956    -0.00081378
N        -0.04759861    -0.02961580     1.39861456     0.00011404     0.00011407     0.00069889
H         0.95779026    -0.02198430    -0.59843811     0.00073899    -0.00053412    -0.00051120
H         0.87724058    -0.26548670     1.86723420    -0.00035009    -0.00062226     0.00020739
H        -0.95134358    -0.25048609     1.80180148    -0.00108237    -0.00119115     0.00059819
H        -1.04170509     0.00162187    -0.52681876    -0.00011899    -0.00030488    -0.00030948
     6
  Step:    27            Position(A)                                  Velocity(au)
C        -0.03336899     0.02384420    -0.09573962    -0.00005991     0.00009232    -0.00079697
N        -0.04693283    -0.02898192     1.40246139     0.00012328     0.00011347     0.00068275
H         0.96169670    -0.02498716    -0.60119044     0.00066083    -0.00054364    -0.00047644
H         0.87497766    -0.26890691     1.86828499    -0.00045564    -0.00060817     0.00017291
H        -0.95746534    -0.25716032     1.80528216    -0.00109927    -0.00120163     0.00064370
H        -1.04232456    -0.00012703    -0.52860163    -0.00010524    -0.00032347    -0.00033118
     6
  Step:    28            Position(A)                                  Velocity(au)
C        -0.03368743     0.02436554    -0.10012832    -0.00005399     0.00009475    -0.00077822
N        -0.04622583    -0.02835230     1.40621720     0.00012872     0.00011244     0.00066559
H         0.96514880    -0.02803789    -0.60374343     0.00057603    -0.00055076    -0.00043956
H         0.87216681    -0.27225889     1.86915965    -0.00054554    -0.00059749     0.00014432
H        -0.96358439    -0.26386669     1.80896934    -0.00108118    -0.00120145     0.00067217
H        -1.04287700    -0.00198012    -0.53050661    -0.00009471    -0.00034203    -0.00035288
     6
  Step:    29            Position(A)                                  Velocity(au)
C        -0.03397051     0.02489985    -0.10440972    -0.00004724     0.00009688    -0.00075775
N        -0.04549874    -0.02772919     1.40987666     0.00013041     0.00011104     0.00064752
H         0.96811422    -0.03112315    -0.60608759     0.00048639    -0.00055545    -0.00040145
H         0.86889980    -0.27556351     1.86989288    -0.00061816    -0.00059085     0.00012224
H        -0.96951073    -0.27054555     1.81277075    -0.00103040    -0.00119061     0.00068469
H        -1.04337971    -0.00393755    -0.53253308    -0.00008716    -0.00036063    -0.00037431
     6
  Step:    30            Position(A)                                  Velocity(au)
C        -0.03421396     0.02544543    -0.10857473    -0.00003981     0.00009872    -0.00073584
N        -0.04477220    -0.02711456     1.41343491     0.00012850     0.00010932     0.00062870
H         0.97057045    -0.03422932    -0.60821825     0.00039371    -0.00055771    -0.00036299
H         0.86527632    -0.27884491     1.87052227    -0.00067244    -0.00058886     0.00010708
H        -0.97506995    -0.27713810     1.81660144    -0.00095028    -0.00116957     0.00068286
H        -1.04384853    -0.00599994    -0.53467892    -0.00008230    -0.00037942    -0.00039522
     6
  Step:    31            Position(A)                                  Velocity(au)
C        -0.03441445     0.02600072    -0.11261586    -0.00003187     0.00010030    -0.00071285
N        -0.04406572    -0.02651000     1.41688790     0.00012325     0.00010738     0.00060932
H         0.97250489    -0.03734280    -0.61013564     0.00029974    -0.00055761    -0.00032507
H         0.86140070    -0.28213048     1.87108700    -0.00070794    -0.00059211     0.00009897
H        -0.98010830    -0.28358861     1.82038608    -0.00084489    -0.00113907     0.00066860
H        -1.04429755    -0.00816886    -0.53694060    -0.00007982    -0.00039863    -0.00041542
     6
  Step:    32            Position(A)                                  Velocity(au)
C        -0.03456955     0.02656436    -0.11652744    -0.00002359     0.00010166    -0.00068910
N        -0.04339721    -0.02591657     1.42023257     0.00011498     0.00010531     0.00058957
H         0.97391446    -0.04045016    -0.61184484     0.00020611    -0.00055517    -0.00028856
H         0.85737841    -0.28545066     1.87162639    -0.00072479    -0.00060115     0.00009779
H        -0.98449573    -0.28984587     1.82406046    -0.00071864    -0.00110004     0.00064399
H        -1.04473905    -0.01044718    -0.53931348    -0.00007940    -0.00041857    -0.00043475
     6
  Step:    33            Position(A)                                  Velocity(au)
C        -0.03467765     0.02713517    -0.12030557    -0.00001507     0.00010285    -0.00066490
N        -0.04278268    -0.02533482     1.42346693     0.00010405     0.00010321     0.00056964
H         0.97480485    -0.04353799    -0.61335567     0.00011425    -0.00055036    -0.00025427
H         0.85331280    -0.28883868     1.87217829    -0.00072369    -0.00061646     0.00010314
H        -0.98812762    -0.29586397     1.82757240    -0.00057609    -0.00105341     0.00061126
H        -1.04518354    -0.01283964    -0.54179198    -0.00008074    -0.00043963    -0.00045306
     6
  Step:    34            Position(A)                                  Velocity(au)
C        -0.03473779     0.02771219    -0.12394789    -0.00000643     0.00010390    -0.00064045
N        -0.04223601    -0.02476474     1.42658988     0.00009084     0.00010116     0.00054964
H         0.97518953    -0.04659227    -0.61468258     0.00002543    -0.00054295    -0.00022305
H         0.84930195    -0.29233049     1.87277747    -0.00070581    -0.00063857     0.00011430
H        -0.99092505    -0.30160214     1.83088223    -0.00042173    -0.00099999     0.00057263
H        -1.04564014    -0.01535357    -0.54436974    -0.00008368    -0.00046241    -0.00047025
     6
  Step:    35            Position(A)                                  Velocity(au)
C        -0.03474937     0.02829466    -0.12745289     0.00000233     0.00010483    -0.00061578
N        -0.04176891    -0.02420586     1.42960081     0.00007573     0.00009925     0.00052957
H         0.97508866    -0.04959720    -0.61584486    -0.00005928    -0.00053240    -0.00019583
H         0.84543615    -0.29596501     1.87345388    -0.00067273    -0.00066814     0.00013023
H        -0.99283406    -0.30702366     1.83396283    -0.00025982    -0.00094023     0.00053036
H        -1.04611744    -0.01800001    -0.54703985    -0.00008829    -0.00048774    -0.00048624
     6
  Step:    36            Position(A)                                  Velocity(au)
C        -0.03471176     0.02888190    -0.13081876     0.00001129     0.00010565    -0.00059063
N        -0.04139106    -0.02365727     1.43249884     0.00005903     0.00009755     0.00050924
H         0.97452813    -0.05253272    -0.61686760    -0.00013892    -0.00051745    -0.00017393
H         0.84179564    -0.29978552     1.87423055    -0.00062637    -0.00070626     0.00014942
H        -0.99382410    -0.31209314     1.83680002    -0.00009436    -0.00087380     0.00048690
H        -1.04662533    -0.02079576    -0.54979521    -0.00009521    -0.00051706    -0.00050112
     6
  Step:    37            Position(A)                                  Velocity(au)
C        -0.03462340     0.02947316    -0.13404129     0.00002079     0.00010629    -0.00056396
N        -0.04111043    -0.02311768     1.43528140     0.00004098     0.00009612     0.00048795
H         0.97353898    -0.05536930    -0.61778501    -0.00021239    -0.00049525    -0.00016000
H         0.83844898    -0.30384326     1.87512066    -0.00056883    -0.00075526     0.00016969
H        -0.99388666    -0.31677083     1.83939413     0.00007074    -0.00079869     0.00044529
H        -1.04717955    -0.02376780    -0.55262978    -0.00010669    -0.00055310    -0.00051556
     6
  Step:    38            Position(A)                                  Velocity(au)
C        -0.03447991     0.03006716    -0.13710741     0.00003170     0.00010648    -0.00053153
N        -0.04093415    -0.02258548     1.43793992     0.00002157     0.00009501     0.00046278
H         0.97215982    -0.05805520    -0.61865175    -0.00027604    -0.00045915    -0.00016194
H         0.83545264    -0.30820738     1.87612271    -0.00050183    -0.00081999     0.00018797
H        -0.99303523    -0.32099928     1.84176543     0.00023095    -0.00070902     0.00041052
H        -1.04781500    -0.02696333    -0.55554418    -0.00013054    -0.00060106    -0.00053372
     6
  Step:    39            Position(A)                                  Velocity(au)
C        -0.03427006     0.03066003    -0.13996587     0.00004399     0.00010530    -0.00047897
N        -0.04087004    -0.02205866     1.44043963     0.00000139     0.00009426     0.00042378
H         0.97046223    -0.06048712    -0.61959002    -0.00031200    -0.00040645    -0.00020052
H         0.83285553    -0.31298298     1.87721580    -0.00042541    -0.00089682     0.00020650
H        -0.99131241    -0.32467373     1.84396988     0.00037888    -0.00060342     0.00038690
H        -1.04863454    -0.03046727    -0.55857876    -0.00018502    -0.00065800    -0.00057449
     6
  Step:    40            Position(A)                                  Velocity(au)
C        -0.03398980     0.03124024    -0.14244340     0.00005403     0.00010253    -0.00040096
N        -0.04091865    -0.02153534     1.44266109    -0.00001734     0.00009373     0.00036723
H         0.96868394    -0.06258333    -0.62088566    -0.00030531    -0.00035852    -0.00027813
H         0.83071330    -0.31819844     1.87842324    -0.00034179    -0.00096026     0.00023582
H        -0.98881428    -0.32772173     1.84607570     0.00051020    -0.00050507     0.00036674
H        -1.04987620    -0.03429383    -0.56194435    -0.00026605    -0.00070053    -0.00064984
     6
  Step:    41            Position(A)                                  Velocity(au)
C        -0.03366848     0.03180161    -0.14443006     0.00005952     0.00009925    -0.00031231
N        -0.04106305    -0.02101503     1.44452835    -0.00003335     0.00009331     0.00030338
H         0.96706295    -0.06447883    -0.62268669    -0.00026951    -0.00033211    -0.00037034
H         0.82905013    -0.32367440     1.87984144    -0.00025711    -0.00099777     0.00027716
H        -0.98563194    -0.33029713     1.84805310     0.00062736    -0.00043132     0.00034176
H        -1.05159670    -0.03826692    -0.56581400    -0.00034661    -0.00071818    -0.00074291
     6
  Step:    42            Position(A)                                  Velocity(au)
C        -0.03332758     0.03234451    -0.14591824     0.00006181     0.00009613    -0.00022410
N        -0.04128966    -0.02049716     1.44603653    -0.00004712     0.00009299     0.00023988
H         0.96568538    -0.06627844    -0.62500615    -0.00022307    -0.00032083    -0.00046287
H         0.82785266    -0.32929971     1.88150690    -0.00017658    -0.00101940     0.00032187
H        -0.98183422    -0.33252067     1.84987813     0.00073228    -0.00037556     0.00031413
H        -1.05373257    -0.04228442    -0.57021007    -0.00041431    -0.00072192    -0.00083632
     6
  Step:    43            Position(A)                                  Velocity(au)
C        -0.03298130     0.03287037    -0.14692151     0.00006183     0.00009326    -0.00013858
N        -0.04158696    -0.01998122     1.44719533    -0.00005885     0.00009273     0.00017829
H         0.96458296    -0.06804578    -0.62783280    -0.00017301    -0.00031933    -0.00055279
H         0.82708690    -0.33500788     1.88341994    -0.00010343    -0.00103024     0.00036508
H        -0.97749053    -0.33447256     1.85154556     0.00082440    -0.00033271     0.00028638
H        -1.05620287    -0.04629309    -0.57511205    -0.00046698    -0.00071766    -0.00092489
     6
  Step:    44            Position(A)                                  Velocity(au)
C        -0.03264068     0.03338056    -0.14745785     0.00005999     0.00009060    -0.00005629
N        -0.04194341    -0.01946694     1.44801725    -0.00006843     0.00009249     0.00011889
H         0.96376330    -0.06982612    -0.63114741    -0.00012285    -0.00032526    -0.00063875
H         0.82670357    -0.34074527     1.88556284    -0.00004014    -0.00103143     0.00040422
H        -0.97267548    -0.33621692     1.85305964     0.00090266    -0.00030088     0.00025973
H        -1.05892049    -0.05025733    -0.58048522    -0.00050357    -0.00070741    -0.00100670
     6