|===============================================================================
|
|  DFTB+ release 20.1
|
|  Copyright (C) 2006 - 2020  DFTB+ developers group
|
|===============================================================================
|
|  When publishing results obtained with DFTB+, please cite the following
|  reference:
|
|  * DFTB+, a software package for efficient approximate density functional
|    theory based atomistic simulations, J. Chem. Phys. 152, 124101 (2020).
|    [doi: 10.1063/1.5143190]
|
|  You should also cite additional publications crediting the parametrization
|  data you use. Please consult the documentation of the SK-files for the
|  references.
|
|===============================================================================

Reading input file 'dftb_in.hsd'
Parser version: 8

--------------------------------------------------------------------------------
Reading SK-files:
Done.


Processed input in HSD format written to 'dftb_pin.hsd'

Starting initialization...
--------------------------------------------------------------------------------
OpenMP threads:              1
Chosen random seed:          452023799
Mode:                        Static calculation
Self consistent charges:     Yes
SCC-tolerance:                 0.100000E-05
Max. scc iterations:                   1000
Shell resolved Hubbard:      No
Spin polarisation:           No
Nr. of up electrons:             6.000000
Nr. of down electrons:           6.000000
Periodic boundaries:         No
Electronic solver:           Relatively robust
Maximal SCC-cycles:                    1000
Initial charges:             Set automatically (system chrg:   0.100E+01)
Included shells:             C:  s, p
                             N:  s, p
                             H:  s
Spin coupling constants:     C   1(s)-1(s):  -0.455900E-01
                             C   1(s)-2(p):  -0.293000E-01
                             C   2(p)-1(s):  -0.293000E-01
                             C   2(p)-2(p):  -0.275500E-01
                             N   1(s)-1(s):  -0.468700E-01
                             N   1(s)-2(p):  -0.317000E-01
                             N   2(p)-1(s):  -0.317000E-01
                             N   2(p)-2(p):  -0.307200E-01
                             H   1(s)-1(s):  -0.792500E-01
Range separated hybrid:      Yes
  Screening parameter omega:   0.300000E+00
  Range separated algorithm:   MatrixBased
Extra options:
                             Mulliken analysis
                             Force calculation
Force type                   original
                             Eigenvector printing


REKS Calcuation:             Yes
SSR(2,2) Calcuation:         Yes
Energy Functional:           (PPS+OSS)/2
Number of Core Orbitals:                  5
Number of Active Orbitals:                2
Number of Basis:                         12
Number of States:                         2
State-Averaging Weight:          0.500000
                                 0.500000
State of Interest:                        1
Initial Guess:               Diagonalize H0 matrix
Newton-Raphson for FON opt:  Yes
NR max. Iterations:                      50
Level Shifting:              Yes
Shift Value:                     0.300000
W Scale Factor:              C  =    3.200000
                             N  =    3.200000
                             H  =    3.200000
Transition Dipole:           No
Gradient of Microstate:      No
CP-REKS Solver:              Preconditioned Conjugate-Gradient
CG max. Iterations:                     100
CG Tolerance:                  0.100000E-07
Memory for A and Hxc:        Direct Updating Without Saving
Non-Adiabatic Coupling:      Yes

--------------------------------------------------------------------------------

***  Geometry step: 0

  iSCC       reks energy        Diff energy         x_a       SCC error   
    1       -6.2128809496       0.0000000000     0.999917    0.91450782
    2       -6.2226676249      -0.0097866753     0.999998    0.04207388
    3       -6.2246784698      -0.0020108449     1.000000    0.01763242
    4       -6.2252783199      -0.0005998501     1.000000    0.01085390
    5       -6.2255017706      -0.0002234507     1.000000    0.00704976
    6       -6.2255924130      -0.0000906424     1.000000    0.00454534
    7       -6.2256309549      -0.0000385419     1.000000    0.00291751
    8       -6.2256478733      -0.0000169184     1.000000    0.00187434
    9       -6.2256554753      -0.0000076020     1.000000    0.00120847
   10       -6.2256589526      -0.0000034773     1.000000    0.00078291
   11       -6.2256605655      -0.0000016129     1.000000    0.00050994
   12       -6.2256613221      -0.0000007566     1.000000    0.00033399
   13       -6.2256616803      -0.0000003582     1.000000    0.00021997
   14       -6.2256618513      -0.0000001709     1.000000    0.00015181
   15       -6.2256619334      -0.0000000821     1.000000    0.00010658
   16       -6.2256619731      -0.0000000397     1.000000    0.00007482
   17       -6.2256619923      -0.0000000193     1.000000    0.00005254
   18       -6.2256620017      -0.0000000094     1.000000    0.00003692
   19       -6.2256620064      -0.0000000046     1.000000    0.00002596
   20       -6.2256620086      -0.0000000023     1.000000    0.00001826
   21       -6.2256620098      -0.0000000011     1.000000    0.00001286
   22       -6.2256620103      -0.0000000006     1.000000    0.00000907
   23       -6.2256620106      -0.0000000003     1.000000    0.00000640
   24       -6.2256620107      -0.0000000001     1.000000    0.00000452
   25       -6.2256620108      -0.0000000001     1.000000    0.00000320
   26       -6.2256620108      -0.0000000000     1.000000    0.00000226
   27       -6.2256620109      -0.0000000000     1.000000    0.00000161
   28       -6.2256620109      -0.0000000000     1.000000    0.00000114
   29       -6.2256620109      -0.0000000000     1.000000    0.00000081
  
--------------------------------------------------
 Final SA-REKS(2,2) energy:      -6.22566201
  
 State     Energy      FON(1)    FON(2)   Spin
  PPS   -6.24489298   2.000000  0.000000  0.00
  OSS   -6.20643104   1.000000  1.000000  0.00
 Trip   -6.22458127   1.000000  1.000000  1.00
--------------------------------------------------

 Lagrangian Wab:   0.01759415  0.01759418

--------------------------------------------------
 SSR: 2SI-2SA-REKS(2,2) Hamiltonian matrix
               PPS           OSS
   PPS    -6.24489298    0.02487752
   OSS     0.02487752   -6.20643104
--------------------------------------------------

----------------------------------------------------------------
 SSR: 2SI-2SA-REKS(2,2) states
                    E_n       C_{PPS}    C_{OSS}
 SSR state  1   -6.25710595  -0.897662   0.440684
 SSR state  2   -6.19421807  -0.440684  -0.897662
----------------------------------------------------------------

 unrelaxed SSR FONs for S0:  1.805798  0.194202

Total Energy:                       -6.2571059483 H         -170.2645 eV
Extrapolated to 0:                  -6.2571059483 H         -170.2645 eV

----------------------------------------------------------------------------------
 Solving CP-REKS equation for  1 state vector...
----------------------------------------------------------------------------------
  CG solver: Constructing Y initial guess
  CG solver: Iteration    1    eps =    0.001057877742
  CG solver: Iteration    2    eps =    0.000050165405
  CG solver: Iteration    3    eps =    0.000001731772
  CG solver: Iteration    4    eps =    0.000000095100
  CG solver: Iteration    5    eps =    0.000000009495
  Convergence reached in CG solver after    5 iterations
  CG solver: Calculating converged R, Z, Q2 matrix
----------------------------------------------------------------------------------

----------------------------------------------------------------------------------
 Solving CP-REKS equation for SI between  1 and  2 state vectors...
----------------------------------------------------------------------------------
  CG solver: Constructing Y initial guess
  CG solver: Iteration    1    eps =    0.001716301756
  CG solver: Iteration    2    eps =    0.000683404354
  CG solver: Iteration    3    eps =    0.000009461456
  CG solver: Iteration    4    eps =    0.000000401323
  CG solver: Iteration    5    eps =    0.000000026738
  CG solver: Iteration    6    eps =    0.000000002810
  Convergence reached in CG solver after    6 iterations
  CG solver: Calculating converged R, Z, Q2 matrix
----------------------------------------------------------------------------------

--------------------------------------------------
 Gradient Information
--------------------------------------------------
           1 st state (SSR)
     0.04574825     0.00756679    -0.04555350
     0.04982117    -0.04663501     0.13664549
    -0.06342156    -0.04833050    -0.03663360
     0.00241355     0.02795204    -0.01048335
    -0.06815122    -0.00742915    -0.05214903
     0.03358981     0.06687583     0.00817399

           2 st state (SSR)
     0.02695472     0.01023281     0.03277733
     0.07290657    -0.05785855     0.07727730
    -0.07591420    -0.03133810    -0.03314178
    -0.02162786     0.00292919    -0.02106872
    -0.06137423     0.03454047    -0.05515204
     0.05905500     0.04149418    -0.00069209
--------------------------------------------------
 Coupling Information
--------------------------------------------------
 between  1 and  2 states
--------------------------------------------------
 g vector - difference gradient
     0.01056488    -0.00484512    -0.05067695
    -0.00389041     0.03117951     0.03718388
     0.00299114    -0.00258420     0.00180573
     0.00062419    -0.00734211     0.00597093
    -0.00275082    -0.02149944     0.00012494
    -0.00753897     0.00509135     0.00559146

 h vector - derivative coupling
    -0.00371012    -0.00206055     0.01032852
     0.01158200     0.01700958    -0.00877509
    -0.00558280     0.00874112     0.00360262
    -0.01471105    -0.02148946    -0.00207401
     0.00215643     0.00990412    -0.00180125
     0.01026554    -0.01210482    -0.00128079

 G vector - GDV
     0.00939677    -0.00133301    -0.03916542
    -0.01154270     0.00561177     0.02968409
     0.00624632    -0.00849620    -0.00174591
     0.01202070     0.01251142     0.00529269
    -0.00338849    -0.02098481     0.00150151
    -0.01273259     0.01269083     0.00443304

 H vector - DCV - non-adiabatic coupling
     0.09683149    -0.08099395    -0.53710250
     0.06369301     0.55767982     0.38245825
    -0.01666324     0.05249794     0.05775346
    -0.13521482    -0.30135722     0.05494813
    -0.01363539    -0.17415766    -0.01594568
     0.00498894    -0.05366894     0.05788833
--------------------------------------------------


--------------------------------------------------------------------------------
DFTB+ running times                          cpu [s]             wall clock [s]
--------------------------------------------------------------------------------
SCC                                    +     0.01  ( 55.2%)      0.01  ( 50.0%)
Post-SCC processing                    +     0.01  ( 39.6%)      0.01  ( 36.7%)
--------------------------------------------------------------------------------
Missing                                +     0.00  (  5.2%)      0.00  ( 13.3%)
Total                                  =     0.02  (100.0%)      0.03  (100.0%)
--------------------------------------------------------------------------------
