 Fermi distribution function

Calculation with static geometry


********************************************************************************
 iSCC Total electronic   Diff electronic      SCC error    
   15   -0.52881357E+01   -0.16999735E-11    0.14659897E-06
********************************************************************************

 Total charge:     1.00000000

 Atomic gross charges (e)
 Atom           Charge
    1       0.26843177
    2      -0.19754467
    3       0.18291341
    4       0.28258212
    5       0.28217274
    6       0.18144463

Nr. of electrons (up):     12.00000000
Atom populations (up)
 Atom       Population
    1       3.73156823
    2       5.19754467
    3       0.81708659
    4       0.71741788
    5       0.71782726
    6       0.81855537

l-shell populations (up)
 Atom Sh.   l       Population
    1   1   0       1.40372641
    1   2   1       2.32784182
    2   1   0       1.48948156
    2   2   1       3.70806311
    3   1   0       0.81708659
    4   1   0       0.71741788
    5   1   0       0.71782726
    6   1   0       0.81855537

Orbital populations (up)
 Atom Sh.   l   m       Population  Label
    1   1   0   0       1.40372641  s
    1   2   1  -1       0.52574074  p_y
    1   2   1   0       0.82982329  p_z
    1   2   1   1       0.97227779  p_x
    2   1   0   0       1.48948156  s
    2   2   1  -1       1.45456005  p_y
    2   2   1   0       1.05787560  p_z
    2   2   1   1       1.19562746  p_x
    3   1   0   0       0.81708659  s
    4   1   0   0       0.71741788  s
    5   1   0   0       0.71782726  s
    6   1   0   0       0.81855537  s

Fermi level:                        -0.4949640337 H          -13.4687 eV
Band energy:                        -8.6117407055 H         -234.3374 eV
TS:                                  0.0000000000 H            0.0000 eV
Band free energy (E-TS):            -8.6117407055 H         -234.3374 eV
Extrapolated E(0K):                 -8.6117407055 H         -234.3374 eV
Input / Output electrons (q):     12.0000000000     12.0000000000

Energy H0:                          -5.4176245853 H         -147.4211 eV
Energy SCC:                          0.1294888960 H            3.5236 eV
Total Electronic energy:            -5.2881356893 H         -143.8975 eV
Repulsive energy:                    0.1339177690 H            3.6441 eV
Total energy:                       -5.1542179203 H         -140.2534 eV
Extrapolated to 0:                  -5.1542179203 H         -140.2534 eV
Total Mermin free energy:           -5.1542179203 H         -140.2534 eV
Force related energy:               -5.1542179203 H         -140.2534 eV

SCC converged

Excitation Energy:                   0.1200403748 H            3.2665 eV

Total Forces
    1     -0.006076462497      0.000105730938      0.060529673262
    2      0.009540959726      0.010800317676     -0.053983891771
    3     -0.002485293528     -0.012596644780     -0.002029182905
    4     -0.022631348957      0.004446379974     -0.006969388897
    5      0.012973931094     -0.011124972596     -0.000207914503
    6      0.008678214162      0.008369188790      0.002660704814

Maximal derivative component:        0.605297E-01 au


