 Fermi distribution function

Calculation with static geometry


********************************************************************************
 iSCC Total electronic   Diff electronic      SCC error    
   13   -0.52694213E+01   -0.45581316E-10    0.74165332E-06
********************************************************************************

 Total charge:     1.00000000

 Atomic gross charges (e)
 Atom           Charge
    1       0.32517308
    2      -0.21277231
    3       0.17569612
    4       0.25704943
    5       0.27174710
    6       0.18310658

Nr. of electrons (up):     12.00000000
Atom populations (up)
 Atom       Population
    1       3.67482692
    2       5.21277231
    3       0.82430388
    4       0.74295057
    5       0.72825290
    6       0.81689342

l-shell populations (up)
 Atom Sh.   l       Population
    1   1   0       1.40286476
    1   2   1       2.27196216
    2   1   0       1.52255165
    2   2   1       3.69022066
    3   1   0       0.82430388
    4   1   0       0.74295057
    5   1   0       0.72825290
    6   1   0       0.81689342

Orbital populations (up)
 Atom Sh.   l   m       Population  Label
    1   1   0   0       1.40286476  s
    1   2   1  -1       0.43208080  p_y
    1   2   1   0       0.87013958  p_z
    1   2   1   1       0.96974178  p_x
    2   1   0   0       1.52255165  s
    2   2   1  -1       1.36273073  p_y
    2   2   1   0       1.06845143  p_z
    2   2   1   1       1.25903850  p_x
    3   1   0   0       0.82430388  s
    4   1   0   0       0.74295057  s
    5   1   0   0       0.72825290  s
    6   1   0   0       0.81689342  s

Fermi level:                        -0.5142641640 H          -13.9938 eV
Band energy:                        -8.6608960751 H         -235.6750 eV
TS:                                  0.0000000000 H            0.0000 eV
Band free energy (E-TS):            -8.6608960751 H         -235.6750 eV
Extrapolated E(0K):                 -8.6608960751 H         -235.6750 eV
Input / Output electrons (q):     12.0000000000     12.0000000000

Energy H0:                          -5.4063813902 H         -147.1151 eV
Energy SCC:                          0.1369600852 H            3.7269 eV
Total Electronic energy:            -5.2694213050 H         -143.3882 eV
Repulsive energy:                    0.1363325636 H            3.7098 eV
Total energy:                       -5.1330887414 H         -139.6785 eV
Extrapolated to 0:                  -5.1330887414 H         -139.6785 eV
Total Mermin free energy:           -5.1330887414 H         -139.6785 eV
Force related energy:               -5.1330887414 H         -139.6785 eV

SCC converged

Excitation Energy:                   0.0881090400 H            2.3976 eV

Total Forces
    1      0.003386708012      0.002057490767      0.051230274978
    2      0.006397993815      0.011124404568     -0.047814684277
    3     -0.006964514022      0.006532218503      0.001613306574
    4     -0.009867162875     -0.015635069745     -0.002742844268
    5      0.005922250133      0.009060479201      0.001080444420
    6      0.001124724937     -0.013139523294     -0.003366497427

Maximal derivative component:        0.512303E-01 au


