 Fermi distribution function

Calculation with static geometry


********************************************************************************
 iSCC Total electronic   Diff electronic      SCC error    
   10   -0.53885556E+01   -0.74162898E-12    0.34532818E-06
********************************************************************************

 Total charge:     1.00000000

 Atomic gross charges (e)
 Atom           Charge
    1       0.19433340
    2      -0.09832183
    3       0.13853525
    4       0.29048280
    5       0.27582437
    6       0.19914600

Nr. of electrons (up):     12.00000000
Atom populations (up)
 Atom       Population
    1       3.80566660
    2       5.09832183
    3       0.86146475
    4       0.70951720
    5       0.72417563
    6       0.80085400

l-shell populations (up)
 Atom Sh.   l       Population
    1   1   0       1.31404603
    1   2   1       2.49162057
    2   1   0       1.42065143
    2   2   1       3.67767040
    3   1   0       0.86146475
    4   1   0       0.70951720
    5   1   0       0.72417563
    6   1   0       0.80085400

Orbital populations (up)
 Atom Sh.   l   m       Population  Label
    1   1   0   0       1.31404603  s
    1   2   1  -1       0.59392999  p_y
    1   2   1   0       0.88725455  p_z
    1   2   1   1       1.01043603  p_x
    2   1   0   0       1.42065143  s
    2   2   1  -1       1.34114719  p_y
    2   2   1   0       1.09865117  p_z
    2   2   1   1       1.23787204  p_x
    3   1   0   0       0.86146475  s
    4   1   0   0       0.70951720  s
    5   1   0   0       0.72417563  s
    6   1   0   0       0.80085400  s

Fermi level:                        -0.4923825070 H          -13.3984 eV
Band energy:                        -8.8875948702 H         -241.8438 eV
TS:                                  0.0000000000 H            0.0000 eV
Band free energy (E-TS):            -8.8875948702 H         -241.8438 eV
Extrapolated E(0K):                 -8.8875948702 H         -241.8438 eV
Input / Output electrons (q):     12.0000000000     12.0000000000

Energy H0:                          -5.5215692312 H         -150.2495 eV
Energy SCC:                          0.1330136747 H            3.6195 eV
Total Electronic energy:            -5.3885555565 H         -146.6301 eV
Repulsive energy:                    0.1872210057 H            5.0945 eV
Total energy:                       -5.2013345508 H         -141.5355 eV
Extrapolated to 0:                  -5.2013345508 H         -141.5355 eV
Total Mermin free energy:           -5.2013345508 H         -141.5355 eV
Force related energy:               -5.2013345508 H         -141.5355 eV

SCC converged

Excitation Energy:                   0.1090325171 H            2.9669 eV

Total Forces
    1     -0.000928884797      0.012820104754      0.036023771981
    2     -0.015765229107     -0.007542632261     -0.037561512591
    3     -0.005214383887     -0.010602197306      0.000700853977
    4     -0.004862401060      0.007941528805      0.004192526327
    5      0.019146734856     -0.005086471040     -0.001211440368
    6      0.007624163994      0.002469667048     -0.002144199326

Maximal derivative component:        0.375615E-01 au


