     6
  Step:     0            Position(A)                                  Velocity(au)
C        -0.03804377     0.02654308     0.03343258    -0.00011828    -0.00001617    -0.00017244
N        -0.04238216    -0.06600361     1.28386690    -0.00015954     0.00003217     0.00017932
H         0.90453380    -0.03740148    -0.48818141     0.00025963     0.00000261    -0.00023405
H         0.79874727    -0.00566951     1.82050564     0.00166671    -0.00008242     0.00042690
H        -0.90197061    -0.03015932     1.88701685     0.00064448    -0.00028129    -0.00117568
H        -0.97195890     0.00437307    -0.56675033     0.00105563     0.00010674     0.00054567
     6
  Step:     1            Position(A)                                  Velocity(au)
C        -0.03871228     0.02648260     0.03227930    -0.00012496    -0.00000610    -0.00024751
N        -0.04329539    -0.06585337     1.28504860    -0.00017184     0.00002297     0.00025173
H         0.90627248    -0.03744475    -0.48981569     0.00037267    -0.00001808    -0.00036071
H         0.80827150    -0.00604160     1.82315535     0.00179327    -0.00005540     0.00052812
H        -0.89830633    -0.03168098     1.88047909     0.00068224    -0.00027455    -0.00120317
H        -0.96622956     0.00494299    -0.56390705     0.00102875     0.00010152     0.00048689
     6
  Step:     2            Position(A)                                  Velocity(au)
C        -0.03941092     0.02647636     0.03072460    -0.00012903     0.00000362    -0.00031844
N        -0.04426221    -0.06575232     1.28662106    -0.00017881     0.00001419     0.00032137
H         0.90861113    -0.03759929    -0.49212790     0.00047731    -0.00003796    -0.00048067
H         0.81836710    -0.00627564     1.82628365     0.00187328    -0.00003186     0.00060127
H        -0.89450630    -0.03316307     1.87385315     0.00069185    -0.00026653    -0.00120559
H        -0.96070359     0.00548383    -0.56142331     0.00097994     0.00009601     0.00041358
     6
  Step:     3            Position(A)                                  Velocity(au)
C        -0.04012477     0.02652220     0.02879347    -0.00013025     0.00001288    -0.00038414
N        -0.04525277    -0.06569800     1.28856651    -0.00018020     0.00000590     0.00038700
H         0.91149747    -0.03786027    -0.49507743     0.00057097    -0.00005683    -0.00059213
H         0.82877768    -0.00639035     1.82973724     0.00190607    -0.00001168     0.00064661
H        -0.89073283    -0.03459855     1.86728192     0.00067037    -0.00025714    -0.00118071
H        -0.95550248     0.00599399    -0.55937971     0.00090871     0.00009019     0.00032560
     6
  Step:     4            Position(A)                                  Velocity(au)
C        -0.04083775     0.02661746     0.02651648    -0.00012845     0.00002160    -0.00044362
N        -0.04623622    -0.06568770     1.29086059    -0.00017592    -0.00000186     0.00044745
H         0.91486595    -0.03822188    -0.49861451     0.00065137    -0.00007452    -0.00069348
H         0.83924765    -0.00640361     1.83336716     0.00189269     0.00000531     0.00066545
H        -0.88716260    -0.03597994     1.86091873     0.00061579    -0.00024634    -0.00112723
H        -0.95074889     0.00647186    -0.55785644     0.00081541     0.00008408     0.00022344
     6
  Step:     5            Position(A)                                  Velocity(au)
C        -0.04153318     0.02675901     0.02392925    -0.00012360     0.00002968    -0.00049607
N        -0.04718171    -0.06571843     1.29347274    -0.00016611    -0.00000905     0.00050167
H         0.91863964    -0.03867734    -0.50268125     0.00071671    -0.00009085    -0.00078339
H         0.84953062    -0.00633212     1.83703377     0.00183566     0.00001934     0.00065991
H        -0.88398090    -0.03729959     1.85492208     0.00052744    -0.00023416    -0.00104499
H        -0.94656169     0.00691590    -0.55692976     0.00070133     0.00007770     0.00010824
     6
  Step:     6            Position(A)                                  Velocity(au)
C        -0.04219445     0.02694324     0.02107148    -0.00011581     0.00003705    -0.00054085
N        -0.04805947    -0.06578698     1.29636705    -0.00015108    -0.00001561     0.00054879
H         0.92273275    -0.03921905    -0.50721324     0.00076567    -0.00010569    -0.00086087
H         0.85939639    -0.00619129     1.84061049     0.00173869     0.00003068     0.00063272
H        -0.88137324    -0.03855015     1.84944862     0.00040634    -0.00022071    -0.00093519
H        -0.94305090     0.00732472    -0.55666841     0.00056874     0.00007110    -0.00001819
     6
  Step:     7            Position(A)                                  Velocity(au)
C        -0.04280579     0.02716620     0.01798589    -0.00010530     0.00004366    -0.00057756
N        -0.04884194    -0.06588997     1.29950341    -0.00013136    -0.00002153     0.00058823
H         0.92705355    -0.03983878    -0.51214139     0.00079752    -0.00011895    -0.00092531
H         0.86863706    -0.00599502     1.84398678     0.00160643     0.00003960     0.00058707
H        -0.87951565    -0.03972492     1.84464527     0.00025531    -0.00020614    -0.00080048
H        -0.94031180     0.00769727    -0.55712968     0.00042094     0.00006436    -0.00015336
     6
  Step:     8            Position(A)                                  Velocity(au)
C        -0.04335297     0.02742365     0.01471690    -0.00009242     0.00004947    -0.00060607
N        -0.04950479    -0.06602384     1.30283901    -0.00010766    -0.00002678     0.00061967
H         0.93150738    -0.04052783    -0.51739396     0.00081208    -0.00013058    -0.00097647
H         0.87707108    -0.00575561     1.84706974     0.00144412     0.00004641     0.00052632
H        -0.87856420    -0.04081824     1.84064134     0.00007909    -0.00019071    -0.00064490
H        -0.93841956     0.00803285    -0.55835578     0.00026208     0.00005756    -0.00029423
     6
  Step:     9            Position(A)                                  Velocity(au)
C        -0.04382397     0.02771115     0.01130927    -0.00007764     0.00005444    -0.00062646
N        -0.05002792    -0.06618498     1.30632988    -0.00008081    -0.00003136     0.00064308
H         0.93599971    -0.04127729    -0.52289852     0.00080969    -0.00014056    -0.00101445
H         0.88454596    -0.00548371     1.84978488     0.00125734     0.00005143     0.00045388
H        -0.87864442    -0.04182579     1.83754089    -0.00011584    -0.00017466    -0.00047368
H        -0.93742463     0.00833133    -0.56037099     0.00009701     0.00005079    -0.00043732
     6
  Step:    10            Position(A)                                  Velocity(au)
C        -0.04420940     0.02802416     0.00780685    -0.00006147     0.00005858    -0.00063903
N        -0.05039618    -0.06636971     1.30993235    -0.00005180    -0.00003526     0.00065866
H         0.94043856    -0.04207823    -0.52858362     0.00079109    -0.00014891    -0.00103960
H         0.89093990    -0.00518829     1.85207624     0.00105178     0.00005497     0.00037312
H        -0.87984193    -0.04274480     1.83541653    -0.00032152    -0.00015831    -0.00029297
H        -0.93734954     0.00859310    -0.56317959    -0.00006905     0.00004417    -0.00057894
     6
  Step:    11            Position(A)                                  Velocity(au)
C        -0.04450290     0.02835817     0.00425160    -0.00004448     0.00006190    -0.00064424
N        -0.05059998    -0.06657442     1.31360439    -0.00002163    -0.00003851     0.00066685
H         0.94473673    -0.04292187    -0.53438027     0.00075739    -0.00015566    -0.00105258
H         0.89616214    -0.00487663     1.85390579     0.00083306     0.00005733     0.00028721
H        -0.88219544    -0.04357417     1.83430525    -0.00052910    -0.00014196    -0.00010941
H        -0.93818720     0.00881920    -0.56676498    -0.00023074     0.00003781    -0.00071535
     6
  Step:    12            Position(A)                                  Velocity(au)
C        -0.04470124     0.02870870     0.00068276    -0.00002722     0.00006442    -0.00064267
N        -0.05063541    -0.06679556     1.31730653     0.00000863    -0.00004112     0.00066821
H         0.94881392    -0.04379953    -0.54022328     0.00071003    -0.00016090    -0.00105421
H         0.90015203    -0.00455438     1.85525229     0.00060668     0.00005881     0.00019914
H        -0.88569280    -0.04431463     1.83420662    -0.00072938    -0.00012592     0.00007031
H        -0.93990114     0.00901120    -0.57109008    -0.00038295     0.00003181    -0.00084300
     6
  Step:    13            Position(A)                                  Velocity(au)
C        -0.04480425     0.02907145    -0.00286387    -0.00001023     0.00006618    -0.00063502
N        -0.05050442    -0.06702974     1.32100271     0.00003799    -0.00004314     0.00066344
H         0.95259802    -0.04470331    -0.54605226     0.00065065    -0.00016476    -0.00104550
H         0.90287921    -0.00422546     1.85611068     0.00037800     0.00005974     0.00011172
H        -0.89027103    -0.04496835     1.83508371    -0.00091359    -0.00011044     0.00023995
H        -0.94242717     0.00917138    -0.57609851    -0.00052105     0.00002629    -0.00095871
     6
  Step:    14            Position(A)                                  Velocity(au)
C        -0.04481462     0.02944234    -0.00635639     0.00000601     0.00006724    -0.00062207
N        -0.05021435    -0.06727375     1.32466072     0.00006552    -0.00004460     0.00065329
H         0.95602633    -0.04562593    -0.55181254     0.00058107    -0.00016740    -0.00102761
H         0.90434207    -0.00389216     1.85649073     0.00015203     0.00006040     0.00002750
H        -0.89581987    -0.04553890     1.83686640    -0.00107396    -0.00009576     0.00039408
H        -0.94567692     0.00930258    -0.58171722    -0.00064120     0.00002134    -0.00105987
     6
  Step:    15            Position(A)                                  Velocity(au)
C        -0.04473756     0.02981758    -0.00976703     0.00002110     0.00006764    -0.00060460
N        -0.04977739    -0.06752466     1.32825242     0.00009044    -0.00004556     0.00063855
H         0.95904623    -0.04656092    -0.55745582     0.00050316    -0.00016895    -0.00100180
H         0.90456634    -0.00355514     1.85641587    -0.00006650     0.00006111    -0.00005121
H        -0.90218890    -0.04603106     1.83945685    -0.00120429    -0.00008207     0.00052846
H        -0.94954263     0.00940814    -0.58786006    -0.00074053     0.00001703    -0.00114463
     6
  Step:    16            Position(A)                                  Velocity(au)
C        -0.04458029     0.03019370    -0.01307238     0.00003472     0.00006747    -0.00058345
N        -0.04920973    -0.06777984     1.33175387     0.00011214    -0.00004609     0.00062001
H         0.96161553    -0.04750270    -0.56294073     0.00041883    -0.00016963    -0.00096943
H         0.90360338    -0.00321336     1.85592191    -0.00027330     0.00006215    -0.00012234
H        -0.90919737    -0.04645053     1.84273659    -0.00130037    -0.00006950     0.00064021
H        -0.95390289     0.00949180    -0.59443196    -0.00081731     0.00001344    -0.00121193
     6
  Step:    17            Position(A)                                  Velocity(au)
C        -0.04435154     0.03056764    -0.01625349     0.00004669     0.00006680    -0.00055945
N        -0.04853064    -0.06803701     1.33514530     0.00013020    -0.00004625     0.00059843
H         0.96370249    -0.04844671    -0.56823337     0.00032990    -0.00016962    -0.00093192
H         0.90152791    -0.00286418     1.85505575    -0.00046457     0.00006384    -0.00018410
H        -0.91664567    -0.04680367     1.84657430    -0.00136008    -0.00005814     0.00072789
H        -0.95862894     0.00955758    -0.60133359    -0.00087088     0.00001059    -0.00126157
     6
  Step:    18            Position(A)                                  Velocity(au)
C        -0.04406094     0.03093681    -0.01929578     0.00005688     0.00006573    -0.00053337
N        -0.04776138    -0.06829432     1.33841096     0.00014435    -0.00004613     0.00057453
H         0.96528544    -0.04938953    -0.57330757     0.00023810    -0.00016914    -0.00089068
H         0.89843539    -0.00250324     1.85387394    -0.00063703     0.00006647    -0.00023495
H        -0.92432710    -0.04709725     1.85083376    -0.00138323    -0.00004803     0.00079137
H        -0.96359075     0.00960964    -0.60846587    -0.00090162     0.00000850    -0.00129406
     6
  Step:    19            Position(A)                                  Velocity(au)
C        -0.04371854     0.03129908    -0.02218881     0.00006753     0.00006568    -0.00055528
N        -0.04692430    -0.06855034     1.34153870     0.00015442    -0.00004799     0.00058698
H         0.96635201    -0.05032893    -0.57814487     0.00010623    -0.00020476    -0.00080924
H         0.89443905    -0.00212448     1.85244127    -0.00080920     0.00011736    -0.00028330
H        -0.93203828    -0.04733811     1.85538065    -0.00135579    -0.00008789     0.00081847
H        -0.96866223     0.00965222    -0.61573388    -0.00089180     0.00005946    -0.00126604
     6
  Step:    20            Position(A)                                  Velocity(au)
C        -0.04330936     0.03166780    -0.02547571     0.00007857     0.00006676    -0.00062647
N        -0.04604283    -0.06882837     1.34494362     0.00016024    -0.00005187     0.00063702
H         0.96646776    -0.05166836    -0.58231384    -0.00006286    -0.00026433    -0.00068847
H         0.88942950    -0.00119715     1.85072097    -0.00097824     0.00020348    -0.00032946
H        -0.93941611    -0.04807536     1.85994274    -0.00127862    -0.00016519     0.00080957
H        -0.97351583     0.01027143    -0.62255607    -0.00084323     0.00015133    -0.00117892
     6
  Step:    21            Position(A)                                  Velocity(au)
C        -0.04284411     0.03204213    -0.02916125     0.00008770     0.00006758    -0.00069608
N        -0.04514092    -0.06912767     1.34862859     0.00016181    -0.00005556     0.00068542
H         0.96565238    -0.05327079    -0.58580735    -0.00022648    -0.00030518    -0.00056842
H         0.88355155     0.00014016     1.84877443    -0.00111832     0.00027109    -0.00036229
H        -0.94626889    -0.04917662     1.86439087    -0.00117069    -0.00022434     0.00078061
H        -0.97804711     0.01133649    -0.62885496    -0.00077814     0.00022515    -0.00108035
     6
  Step:    22            Position(A)                                  Velocity(au)
C        -0.04233321     0.03242001    -0.03322312     0.00009499     0.00006801    -0.00076084
N        -0.04424190    -0.06944673     1.35257246     0.00015924    -0.00005896     0.00072927
H         0.96394702    -0.05506509    -0.58864045    -0.00038136    -0.00033540    -0.00045221
H         0.87698251     0.00182016     1.84668859    -0.00122456     0.00032898    -0.00037826
H        -0.95244607    -0.05057228     1.86863100    -0.00103852    -0.00027298     0.00073673
H        -0.98217663     0.01277739    -0.63458055    -0.00070043     0.00028835    -0.00097427
     6
  Step:    23            Position(A)                                  Velocity(au)
C        -0.04178678     0.03279907    -0.03762994     0.00010048     0.00006798    -0.00081954
N        -0.04336842    -0.06978391     1.35674586     0.00015269    -0.00006207     0.00076744
H         0.96140761    -0.05700402    -0.59084078    -0.00052496    -0.00035833    -0.00034190
H         0.86992138     0.00380196     1.84456411    -0.00129347     0.00038098    -0.00037526
H        -0.95782836    -0.05221511     1.87259112    -0.00088755    -0.00031419     0.00068159
H        -0.98584335     0.01454597    -0.63969927    -0.00061322     0.00034396    -0.00086337
     6
  Step:    24            Position(A)                                  Velocity(au)
C        -0.04121467     0.03317678    -0.04234581     0.00010423     0.00006752    -0.00087155
N        -0.04254228    -0.07013764     1.36111516     0.00014232    -0.00006491     0.00079935
H         0.95810350    -0.05905383    -0.59244623    -0.00065499    -0.00037603    -0.00023919
H         0.86258432     0.00606103     1.84251141    -0.00132253     0.00042948    -0.00035191
H        -0.96232573    -0.05406967     1.87621810    -0.00072287    -0.00034967     0.00061842
H        -0.98900266     0.01660611    -0.64419108    -0.00051934     0.00039377    -0.00074992
     6
  Step:    25            Position(A)                                  Velocity(au)
C        -0.04062644     0.03355070    -0.04733241     0.00010627     0.00006662    -0.00091653
N        -0.04178409    -0.07050656     1.36564452     0.00012838    -0.00006753     0.00082470
H         0.95411595    -0.06119019    -0.59350349    -0.00076936    -0.00038998    -0.00014559
H         0.85519845     0.00858316     1.84064653    -0.00131028     0.00047615    -0.00030752
H        -0.96587564    -0.05610781     1.87947559    -0.00054933    -0.00038054     0.00055010
H        -0.99162482     0.01892953    -0.64804769    -0.00042136     0.00043896    -0.00063594
     6
  Step:    26            Position(A)                                  Velocity(au)
C        -0.04003145     0.03391855    -0.05255015     0.00010665     0.00006534    -0.00095432
N        -0.04111299    -0.07088955     1.37029710     0.00011118    -0.00006997     0.00084341
H         0.94953769    -0.06339576    -0.59406717    -0.00086605    -0.00040130    -0.00006247
H         0.84799610     0.01136236     1.83908757    -0.00125652     0.00052227    -0.00024215
H        -0.96844182    -0.05830647     1.88234267    -0.00037155    -0.00040757     0.00047928
H        -0.99369388     0.02149332    -0.65127144    -0.00032168     0.00048037    -0.00052326
     6
  Step:    27            Position(A)                                  Velocity(au)
C        -0.03943891     0.03427825    -0.05795898     0.00010538     0.00006370    -0.00098488
N        -0.04054610    -0.07128569     1.37503604     0.00009113    -0.00007226     0.00085553
H         0.94447231    -0.06565876    -0.59419913    -0.00094313    -0.00041090     0.00000892
H         0.84120685     0.01439875     1.83795017    -0.00116256     0.00056877    -0.00015669
H        -0.97001288    -0.06064623     1.88481245    -0.00019388    -0.00043134     0.00040838
H        -0.99520675     0.02427850    -0.65387427    -0.00022253     0.00051859    -0.00041351
     6
  Step:    28            Position(A)                                  Velocity(au)
C        -0.03885787     0.03462797    -0.06351892     0.00010249     0.00006175    -0.00100824
N        -0.04009801    -0.07169431     1.37982527     0.00006876    -0.00007443     0.00086125
H         0.93903383    -0.06797206    -0.59396780    -0.00099884    -0.00041956     0.00006750
H         0.83504844     0.01769680     1.83734248    -0.00103142     0.00061624    -0.00005298
H        -0.97060115    -0.06311035     1.88689090    -0.00002052    -0.00045224     0.00033963
H        -0.99617221     0.02726896    -0.65587677    -0.00012599     0.00055408    -0.00030819
     6
  Step:    29            Position(A)                                  Velocity(au)
C        -0.03829725     0.03496617    -0.06919045     0.00009801     0.00005956    -0.00102452
N        -0.03978013    -0.07211487     1.38463010     0.00004469    -0.00007651     0.00086089
H         0.93334552    -0.07033254    -0.59344723    -0.00103166    -0.00042793     0.00011236
H         0.82971722     0.02126347     1.83735999    -0.00086787     0.00066496     0.00006622
H        -0.97024148    -0.06568408     1.88859579     0.00014456    -0.00047061     0.00027506
H        -0.99661024     0.03045073    -0.65730743    -0.00003402     0.00058717    -0.00020867
     6
  Step:    30            Position(A)                                  Velocity(au)
C        -0.03776573     0.03529158    -0.07493483     0.00009201     0.00005716    -0.00103388
N        -0.03960004    -0.07254688     1.38941790     0.00001967    -0.00007850     0.00085485
H         0.92753828    -0.07274032    -0.59271583    -0.00104040    -0.00043657     0.00014283
H         0.82537805     0.02510631     1.83808030    -0.00067844     0.00071489     0.00019724
H        -0.96899037    -0.06835420     1.88995577     0.00029758    -0.00048669     0.00021653
H        -0.99655124     0.03381158    -0.65820193     0.00005158     0.00061812    -0.00011617
     6
  Step:    31            Position(A)                                  Velocity(au)
C        -0.03727169     0.03560328    -0.08071440     0.00008454     0.00005462    -0.00103655
N        -0.03956092    -0.07298984     1.39415854    -0.00000548    -0.00008037     0.00084363
H         0.92174887    -0.07519872    -0.59185524    -0.00102427    -0.00044601     0.00015849
H         0.82215506     0.02923184     1.83955846    -0.00047115     0.00076564     0.00033570
H        -0.96692452    -0.07110888     1.89100928     0.00043502    -0.00050072     0.00016572
H        -0.99603527     0.03734048    -0.65860231     0.00012913     0.00064714    -0.00003178
     6
  Step:    32            Position(A)                                  Velocity(au)
C        -0.03682306     0.03590062    -0.08649288     0.00007572     0.00005199    -0.00103283
N        -0.03966112    -0.07344308     1.39882482    -0.00002986    -0.00008210     0.00082781
H         0.91611710    -0.07771359    -0.59094863    -0.00098312    -0.00045666     0.00015929
H         0.82012451     0.03364364     1.84182348    -0.00025502     0.00081658     0.00047672
H        -0.96413966    -0.07393754     1.89180367     0.00055363    -0.00051294     0.00012414
H        -0.99511131     0.04102748    -0.65855625     0.00019712     0.00067441     0.00004357
     6
  Step:    33            Position(A)                                  Velocity(au)
C        -0.03642703     0.03618326    -0.09223580     0.00006570     0.00004933    -0.00102311
N        -0.03989397    -0.07390571     1.40339287    -0.00005258    -0.00008364     0.00080801
H         0.91078200    -0.08029285    -0.59007840    -0.00091749    -0.00046886     0.00014557
H         0.81931032     0.03834087     1.84487638    -0.00003955     0.00086680     0.00061530
H        -0.96074874    -0.07683077     1.89239413     0.00065056    -0.00052352     0.00009307
H        -0.99383640     0.04486364    -0.65811633     0.00025420     0.00070011     0.00010908
     6
  Step:    34            Position(A)                                  Velocity(au)
C        -0.03608982     0.03645111    -0.09791082     0.00005469     0.00004666    -0.00100784
N        -0.04024789    -0.07437652     1.40784223    -0.00007280    -0.00008493     0.00078489
H         0.90587793    -0.08294601    -0.58932406    -0.00082868    -0.00048281     0.00011811
H         0.81968310     0.04331709     1.84869021     0.00016591     0.00091527     0.00074655
H        -0.95687945    -0.07978005     1.89284228     0.00072346    -0.00053272     0.00007352
H        -0.99227440     0.04884070    -0.65733893     0.00029928     0.00072443     0.00016416
     6
  Step:    35            Position(A)                                  Velocity(au)
C        -0.03581645     0.03670426    -0.10348821     0.00004293     0.00004403    -0.00098755
N        -0.04070676    -0.07485393     1.41215608    -0.00008978    -0.00008590     0.00075911
H         0.90152993    -0.08568341    -0.58875973    -0.00071884    -0.00049864     0.00007811
H         0.82116271     0.04855976     1.85321149     0.00035287     0.00096092     0.00086608
H        -0.95267145    -0.08277858     1.89321492     0.00077058    -0.00054085     0.00006623
H        -0.99049502     0.05295180    -0.65628352     0.00033144     0.00074762     0.00020838
     6
  Step:    36            Position(A)                                  Velocity(au)
C        -0.03561034     0.03694291    -0.10894125     0.00003073     0.00004144    -0.00096283
N        -0.04125067    -0.07533600     1.41632111    -0.00010293    -0.00008650     0.00073130
H         0.89784880    -0.08851564    -0.58845157    -0.00059098    -0.00051634     0.00002723
H         0.82362447     0.05405015     1.85836394     0.00051419     0.00100273     0.00097031
H        -0.94827243    -0.08582105     1.89358206     0.00079093    -0.00054818     0.00007160
H        -0.98857233     0.05719133    -0.65501142     0.00035010     0.00076995     0.00024154
     6
  Step:    37            Position(A)                                  Velocity(au)
C        -0.03547311     0.03716734    -0.11424658     0.00001842     0.00003891    -0.00093434
N        -0.04185690    -0.07582044     1.42032741    -0.00011186    -0.00008667     0.00070207
H         0.89492649    -0.09145286    -0.58845545    -0.00044881    -0.00053578    -0.00003254
H         0.82690809     0.05976401     1.86405345     0.00064450     0.00103984     0.00105659
H        -0.94383380    -0.08890375     1.89401491     0.00078433    -0.00055502     0.00008961
H        -0.98658310     0.06155498    -0.65358460     0.00035495     0.00079167     0.00026367
     6
  Step:    38            Position(A)                                  Velocity(au)
C        -0.03540443     0.03737784    -0.11938452     0.00000637     0.00003643    -0.00090277
N        -0.04250099    -0.07630472     1.42416830    -0.00011638    -0.00008638     0.00067199
H         0.89283242    -0.09450413    -0.58881526    -0.00029659    -0.00055672    -0.00009894
H         0.83082820     0.06567257     1.87017368     0.00074039     0.00107159     0.00112333
H        -0.93950585    -0.09202460     1.89458366     0.00075149    -0.00056169     0.00011987
H        -0.98460496     0.06604000    -0.65206431     0.00034605     0.00081311     0.00027503
     6
  Step:    39            Position(A)                                  Velocity(au)
C        -0.03540190     0.03757461    -0.12433920    -0.00000507     0.00003397    -0.00086881
N        -0.04315796    -0.07678614     1.42783995    -0.00011649    -0.00008561     0.00064152
H         0.89161067    -0.09767679    -0.58956157    -0.00013899    -0.00057883    -0.00016956
H         0.83518535     0.07174397     1.87661184     0.00080033     0.00109761     0.00116991
H        -0.93543246    -0.09518326     1.89535503     0.00069404    -0.00056850     0.00016153
H        -0.98271438     0.07064526    -0.65050984     0.00032379     0.00083458     0.00027611
     6
  Step:    40            Position(A)                                  Velocity(au)
C        -0.03546111     0.03775771    -0.12909859    -0.00001555     0.00003152    -0.00083313
N        -0.04380344    -0.07726193     1.43134106    -0.00011240    -0.00008436     0.00061109
H         0.89127840    -0.10097600    -0.59071108     0.00001923    -0.00060169    -0.00024194
H         0.83977661     0.07794482     1.88325428     0.00082457     0.00111777     0.00119661
H        -0.93174581    -0.09838096     1.89638975     0.00061453    -0.00057572     0.00021333
H        -0.98098473     0.07537132    -0.64897720     0.00028887     0.00085638     0.00026757
     6
  Step:    41            Position(A)                                  Velocity(au)
C        -0.03557574     0.03792701    -0.13365435    -0.00002475     0.00002902    -0.00079634
N        -0.04441468    -0.07772937     1.43467257    -0.00010447    -0.00008264     0.00058106
H         0.89182564    -0.10440428    -0.59226670     0.00017336    -0.00062482    -0.00031372
H         0.84440478     0.08424171     1.88999106     0.00081477     0.00113220     0.00120443
H        -0.92856149    -0.10162039     1.89774029     0.00051624    -0.00058359     0.00027362
H        -0.97948450     0.08022042    -0.64751814     0.00024233     0.00087881     0.00025028
     6
  Step:    42            Position(A)                                  Velocity(au)
C        -0.03573783     0.03808218    -0.13800152    -0.00003242     0.00002645    -0.00075900
N        -0.04497140    -0.07818587     1.43783718    -0.00009320    -0.00008049     0.00055169
H         0.89321658    -0.10796133    -0.59421841     0.00031906    -0.00064770    -0.00038272
H         0.84888557     0.09060255     1.89671962     0.00077368     0.00114120     0.00119490
H        -0.92597430    -0.10490535     1.89944878     0.00040319    -0.00059226     0.00034041
H        -0.97827554     0.08519629    -0.64617914     0.00018548     0.00090212     0.00022523
     6
  Step:    43            Position(A)                                  Velocity(au)
C        -0.03593812     0.03822264    -0.14213813    -0.00003836     0.00002375    -0.00072158
N        -0.04545638    -0.07862906     1.44083909    -0.00007915    -0.00007794     0.00052320
H         0.89539198    -0.11164394    -0.59654456     0.00045245    -0.00066982    -0.00044703
H         0.85305264     0.09699757     1.90334715     0.00070478     0.00114526     0.00116987
H        -0.92405482    -0.10824044     1.90154526     0.00027987    -0.00060185     0.00041144
H        -0.97741135     0.09030394    -0.64500063     0.00011992     0.00092650     0.00019356
     6
  Step:    44            Position(A)                                  Velocity(au)
C        -0.03616646     0.03834761    -0.14606476    -0.00004244     0.00002090    -0.00068448
N        -0.04585588    -0.07905685     1.44368361    -0.00006298    -0.00007505     0.00049576
H         0.89827244    -0.11544608    -0.59921368     0.00057029    -0.00069068    -0.00050507
H         0.85676099     0.10340010     1.90979218     0.00061198     0.00114494     0.00113139
H        -0.92284691    -0.11163062     1.90404638     0.00015114    -0.00061236     0.00048426
H        -0.97693553     0.09554928    -0.64401623     0.00004752     0.00095205     0.00015651
     6