 Fermi distribution function

Calculation with static geometry


********************************************************************************
 iSCC Total electronic   Diff electronic      SCC error    
   14   -0.52521223E+01   -0.26822988E-12    0.40116612E-08
********************************************************************************

 Total charge:     1.00000000

 Atomic gross charges (e)
 Atom           Charge
    1       0.29738271
    2      -0.18921003
    3       0.18421034
    4       0.26361471
    5       0.25882672
    6       0.18517554

Nr. of electrons (up):     12.00000000
Atom populations (up)
 Atom       Population
    1       3.70261729
    2       5.18921003
    3       0.81578966
    4       0.73638529
    5       0.74117328
    6       0.81482446

l-shell populations (up)
 Atom Sh.   l       Population
    1   1   0       1.42563266
    1   2   1       2.27698463
    2   1   0       1.53691434
    2   2   1       3.65229569
    3   1   0       0.81578966
    4   1   0       0.73638529
    5   1   0       0.74117328
    6   1   0       0.81482446

Orbital populations (up)
 Atom Sh.   l   m       Population  Label
    1   1   0   0       1.42563266  s
    1   2   1  -1       0.40897344  p_y
    1   2   1   0       0.85886104  p_z
    1   2   1   1       1.00915015  p_x
    2   1   0   0       1.53691434  s
    2   2   1  -1       1.43462750  p_y
    2   2   1   0       1.05763212  p_z
    2   2   1   1       1.16003607  p_x
    3   1   0   0       0.81578966  s
    4   1   0   0       0.73638529  s
    5   1   0   0       0.74117328  s
    6   1   0   0       0.81482446  s

Fermi level:                        -0.5161905601 H          -14.0463 eV
Band energy:                        -8.6064008611 H         -234.1921 eV
TS:                                  0.0000000000 H            0.0000 eV
Band free energy (E-TS):            -8.6064008611 H         -234.1921 eV
Extrapolated E(0K):                 -8.6064008611 H         -234.1921 eV
Input / Output electrons (q):     12.0000000000     12.0000000000

Energy H0:                          -5.3868675839 H         -146.5841 eV
Energy SCC:                          0.1347453326 H            3.6666 eV
Total Electronic energy:            -5.2521222513 H         -142.9175 eV
Repulsive energy:                    0.1263411635 H            3.4379 eV
Total energy:                       -5.1257810878 H         -139.4796 eV
Extrapolated to 0:                  -5.1257810878 H         -139.4796 eV
Total Mermin free energy:           -5.1257810878 H         -139.4796 eV
Force related energy:               -5.1257810878 H         -139.4796 eV

SCC converged

Excitation Energy:                   0.1028992783 H            2.8000 eV

Total Forces
    1     -0.001571830054      0.001486155870      0.007844097937
    2     -0.014530832542      0.011065534448     -0.005469515063
    3      0.001066212347     -0.003581124823     -0.001331650331
    4     -0.000601155020      0.001979063802     -0.001913733670
    5      0.011666119564     -0.011348658777     -0.003666150603
    6      0.003971485704      0.000399029480      0.004536951731

Maximal derivative component:        0.145308E-01 au


