 Fermi distribution function

Calculation with static geometry


********************************************************************************
 iSCC Total electronic   Diff electronic      SCC error    
   10   -0.53993771E+01   -0.11812773E-12    0.46572459E-07
********************************************************************************

 Total charge:     1.00000000

 Atomic gross charges (e)
 Atom           Charge
    1       0.15270780
    2      -0.04120928
    3       0.19859060
    4       0.27726042
    5       0.26618697
    6       0.14646349

Nr. of electrons (up):     12.00000000
Atom populations (up)
 Atom       Population
    1       3.84729220
    2       5.04120928
    3       0.80140940
    4       0.72273958
    5       0.73381303
    6       0.85353651

l-shell populations (up)
 Atom Sh.   l       Population
    1   1   0       1.32739957
    1   2   1       2.51989263
    2   1   0       1.43615231
    2   2   1       3.60505697
    3   1   0       0.80140940
    4   1   0       0.72273958
    5   1   0       0.73381303
    6   1   0       0.85353651

Orbital populations (up)
 Atom Sh.   l   m       Population  Label
    1   1   0   0       1.32739957  s
    1   2   1  -1       0.59217343  p_y
    1   2   1   0       0.87008355  p_z
    1   2   1   1       1.05763565  p_x
    2   1   0   0       1.43615231  s
    2   2   1  -1       1.30269468  p_y
    2   2   1   0       1.09869939  p_z
    2   2   1   1       1.20366289  p_x
    3   1   0   0       0.80140940  s
    4   1   0   0       0.72273958  s
    5   1   0   0       0.73381303  s
    6   1   0   0       0.85353651  s

Fermi level:                        -0.5007611177 H          -13.6264 eV
Band energy:                        -8.9317913554 H         -243.0464 eV
TS:                                  0.0000000000 H            0.0000 eV
Band free energy (E-TS):            -8.9317913554 H         -243.0464 eV
Extrapolated E(0K):                 -8.9317913554 H         -243.0464 eV
Input / Output electrons (q):     12.0000000000     12.0000000000

Energy H0:                          -5.5334065300 H         -150.5717 eV
Energy SCC:                          0.1340294715 H            3.6471 eV
Total Electronic energy:            -5.3993770585 H         -146.9245 eV
Repulsive energy:                    0.1860552747 H            5.0628 eV
Total energy:                       -5.2133217838 H         -141.8617 eV
Extrapolated to 0:                  -5.2133217838 H         -141.8617 eV
Total Mermin free energy:           -5.2133217838 H         -141.8617 eV
Force related energy:               -5.2133217838 H         -141.8617 eV

SCC converged

Excitation Energy:                   0.1315144832 H            3.5787 eV

Total Forces
    1      0.003008607656      0.008236065288      0.043228435798
    2      0.012832315296     -0.010605784766     -0.044731314515
    3     -0.003750188215      0.004265968880     -0.002729274488
    4     -0.009584128287     -0.002074842092     -0.000063872763
    5     -0.003302107628      0.006336916436      0.004675912532
    6      0.000795501179     -0.006158323747     -0.000379886564

Maximal derivative component:        0.447313E-01 au


