|===============================================================================
|
|  DFTB+ release 20.1
|
|  Copyright (C) 2006 - 2020  DFTB+ developers group
|
|===============================================================================
|
|  When publishing results obtained with DFTB+, please cite the following
|  reference:
|
|  * DFTB+, a software package for efficient approximate density functional
|    theory based atomistic simulations, J. Chem. Phys. 152, 124101 (2020).
|    [doi: 10.1063/1.5143190]
|
|  You should also cite additional publications crediting the parametrization
|  data you use. Please consult the documentation of the SK-files for the
|  references.
|
|===============================================================================

Reading input file 'dftb_in.hsd'
Parser version: 8

--------------------------------------------------------------------------------
Reading SK-files:
Done.


Processed input in HSD format written to 'dftb_pin.hsd'

Starting initialization...
--------------------------------------------------------------------------------
OpenMP threads:              1
Chosen random seed:          498557494
Mode:                        Static calculation
Self consistent charges:     Yes
SCC-tolerance:                 0.100000E-05
Max. scc iterations:                   1000
Shell resolved Hubbard:      No
Spin polarisation:           No
Nr. of up electrons:            16.000000
Nr. of down electrons:          16.000000
Periodic boundaries:         No
Electronic solver:           Relatively robust
Maximal SCC-cycles:                    1000
Initial charges:             Set automatically (system chrg:   0.100E+01)
Included shells:             C:  s, p
                             H:  s
                             N:  s, p
Spin coupling constants:     C   1(s)-1(s):  -0.455900E-01
                             C   1(s)-2(p):  -0.293000E-01
                             C   2(p)-1(s):  -0.293000E-01
                             C   2(p)-2(p):  -0.275500E-01
                             H   1(s)-1(s):  -0.792500E-01
                             N   1(s)-1(s):  -0.468700E-01
                             N   1(s)-2(p):  -0.317000E-01
                             N   2(p)-1(s):  -0.317000E-01
                             N   2(p)-2(p):  -0.307200E-01
Range separated hybrid:      Yes
  Screening parameter omega:   0.300000E+00
  Range separated algorithm:   MatrixBased
Extra options:
                             Mulliken analysis
                             Force calculation
Force type                   original
                             Eigenvector printing


REKS Calcuation:             Yes
SSR(2,2) Calcuation:         Yes
Energy Functional:           (PPS+OSS)/2
Number of Core Orbitals:                 15
Number of Active Orbitals:                2
Number of Basis:                         32
Number of States:                         2
State-Averaging Weight:          0.500000
                                 0.500000
State of Interest:                        1
Initial Guess:               Diagonalize H0 matrix
Newton-Raphson for FON opt:  Yes
NR max. Iterations:                      50
Level Shifting:              Yes
Shift Value:                     0.300000
W Scale Factor:              C  =    3.200000
                             H  =    3.200000
                             N  =    3.200000
Transition Dipole:           No
Gradient of Microstate:      No
CP-REKS Solver:              Preconditioned Conjugate-Gradient
CG max. Iterations:                     100
CG Tolerance:                  0.100000E-07
Memory for A and Hxc:        Direct Updating Without Saving
Non-Adiabatic Coupling:      Yes

--------------------------------------------------------------------------------

***  Geometry step: 0

  iSCC       reks energy        Diff energy         x_a       SCC error   
    1      -16.3930647401       0.0000000000     0.998267    1.19823657
    2      -16.4125330634      -0.0194683234     0.999764    0.05809905
    3      -16.4163173517      -0.0037842882     0.999915    0.01981753
    4      -16.4177109968      -0.0013936452     0.999955    0.00961772
    5      -16.4183565640      -0.0006455671     0.999971    0.00690423
    6      -16.4186915036      -0.0003349397     0.999979    0.00505161
    7      -16.4188802482      -0.0001887446     0.999983    0.00361198
    8      -16.4189947983      -0.0001145501     0.999985    0.00259048
    9      -16.4190695623      -0.0000747640     0.999987    0.00197297
   10      -16.4191219249      -0.0000523627     0.999988    0.00153372
   11      -16.4191610442      -0.0000391193     0.999989    0.00121792
   12      -16.4191919285      -0.0000308843     0.999989    0.00098831
   13      -16.4192174217      -0.0000254931     0.999989    0.00081935
   14      -16.4192392020      -0.0000217803     0.999989    0.00069833
   15      -16.4192583001      -0.0000190981     0.999990    0.00066479
   16      -16.4192753747      -0.0000170746     0.999990    0.00063168
   17      -16.4192908631      -0.0000154884     0.999990    0.00060029
   18      -16.4193050666      -0.0000142036     0.999990    0.00057123
   19      -16.4193182003      -0.0000131337     0.999990    0.00054469
   20      -16.4193304223      -0.0000122219     0.999990    0.00052063
   21      -16.4193418523      -0.0000114301     0.999990    0.00049889
   22      -16.4193525838      -0.0000107315     0.999990    0.00047961
   23      -16.4193626911      -0.0000101073     0.999990    0.00047425
   24      -16.4193722347      -0.0000095436     0.999990    0.00046836
   25      -16.4193812651      -0.0000090304     0.999990    0.00046210
   26      -16.4193898250      -0.0000085599     0.999990    0.00045557
   27      -16.4193979509      -0.0000081259     0.999990    0.00044887
   28      -16.4194056749      -0.0000077239     0.999990    0.00044204
   29      -16.4194130250      -0.0000073501     0.999990    0.00043513
   30      -16.4194200263      -0.0000070014     0.999990    0.00042818
   31      -16.4194267015      -0.0000066752     0.999990    0.00042122
   32      -16.4194330709      -0.0000063694     0.999990    0.00041427
   33      -16.4194391532      -0.0000060822     0.999990    0.00040736
   34      -16.4194449652      -0.0000058121     0.999990    0.00040049
   35      -16.4194505228      -0.0000055576     0.999990    0.00039369
   36      -16.4194558403      -0.0000053175     0.999990    0.00038696
   37      -16.4194609312      -0.0000050909     0.999990    0.00038032
   38      -16.4194658078      -0.0000048766     0.999990    0.00037378
   39      -16.4194704817      -0.0000046740     0.999990    0.00036733
   40      -16.4194749638      -0.0000044821     0.999990    0.00036099
   41      -16.4194792641      -0.0000043003     0.999990    0.00035476
   42      -16.4194833919      -0.0000041279     0.999990    0.00034864
   43      -16.4194873562      -0.0000039643     0.999990    0.00034264
   44      -16.4194911652      -0.0000038090     0.999990    0.00033675
   45      -16.4194948266      -0.0000036614     0.999990    0.00033099
   46      -16.4194983477      -0.0000035211     0.999990    0.00032534
   47      -16.4195017354      -0.0000033877     0.999990    0.00031981
   48      -16.4195049962      -0.0000032608     0.999990    0.00031441
   49      -16.4195081361      -0.0000031399     0.999990    0.00030911
   50      -16.4195111608      -0.0000030247     0.999990    0.00030394
   51      -16.4195140757      -0.0000029149     0.999990    0.00029888
   52      -16.4195168859      -0.0000028102     0.999990    0.00029394
   53      -16.4195195963      -0.0000027103     0.999990    0.00028910
   54      -16.4195222113      -0.0000026150     0.999990    0.00028438
   55      -16.4195247352      -0.0000025239     0.999990    0.00027976
   56      -16.4195271722      -0.0000024369     0.999990    0.00027525
   57      -16.4195295259      -0.0000023538     0.999990    0.00027084
   58      -16.4195318002      -0.0000022742     0.999990    0.00026653
   59      -16.4195339983      -0.0000021982     0.999990    0.00026232
   60      -16.4195361237      -0.0000021253     0.999990    0.00025820
   61      -16.4195381793      -0.0000020556     0.999990    0.00025418
   62      -16.4195401681      -0.0000019888     0.999990    0.00025025
   63      -16.4195420929      -0.0000019248     0.999990    0.00024641
   64      -16.4195439563      -0.0000018634     0.999990    0.00024266
   65      -16.4195457608      -0.0000018046     0.999990    0.00023899
   66      -16.4195475089      -0.0000017481     0.999990    0.00023540
   67      -16.4195492028      -0.0000016939     0.999990    0.00023189
   68      -16.4195508446      -0.0000016418     0.999990    0.00022846
   69      -16.4195524365      -0.0000015919     0.999990    0.00022510
   70      -16.4195539803      -0.0000015438     0.999990    0.00022182
   71      -16.4195554780      -0.0000014977     0.999990    0.00021861
   72      -16.4195569312      -0.0000014533     0.999990    0.00021547
   73      -16.4195583418      -0.0000014106     0.999990    0.00021240
   74      -16.4195597113      -0.0000013695     0.999990    0.00020940
   75      -16.4195610412      -0.0000013299     0.999990    0.00020646
   76      -16.4195623331      -0.0000012919     0.999990    0.00020358
   77      -16.4195635883      -0.0000012552     0.999990    0.00020076
   78      -16.4195648081      -0.0000012198     0.999990    0.00019800
   79      -16.4195659939      -0.0000011858     0.999990    0.00019530
   80      -16.4195671469      -0.0000011530     0.999990    0.00019265
   81      -16.4195682682      -0.0000011213     0.999990    0.00019006
   82      -16.4195693589      -0.0000010908     0.999990    0.00018752
   83      -16.4195704202      -0.0000010613     0.999990    0.00018503
   84      -16.4195714530      -0.0000010328     0.999990    0.00018260
   85      -16.4195724584      -0.0000010054     0.999990    0.00018021
   86      -16.4195734373      -0.0000009789     0.999990    0.00017787
   87      -16.4195743905      -0.0000009532     0.999990    0.00017557
   88      -16.4195753190      -0.0000009285     0.999990    0.00017332
   89      -16.4195762235      -0.0000009045     0.999990    0.00017112
   90      -16.4195771050      -0.0000008814     0.999990    0.00016896
   91      -16.4195779640      -0.0000008590     0.999990    0.00016684
   92      -16.4195788014      -0.0000008374     0.999990    0.00016476
   93      -16.4195796178      -0.0000008165     0.999990    0.00016272
   94      -16.4195804140      -0.0000007962     0.999990    0.00016072
   95      -16.4195811906      -0.0000007766     0.999991    0.00015875
   96      -16.4195819481      -0.0000007576     0.999991    0.00015682
   97      -16.4195826873      -0.0000007392     0.999991    0.00015493
   98      -16.4195834086      -0.0000007213     0.999991    0.00015308
   99      -16.4195841127      -0.0000007041     0.999991    0.00015125
  100      -16.4195848000      -0.0000006873     0.999991    0.00014946
  101      -16.4195854711      -0.0000006711     0.999991    0.00014771
  102      -16.4195861265      -0.0000006554     0.999991    0.00014598
  103      -16.4195867666      -0.0000006401     0.999991    0.00014429
  104      -16.4195873919      -0.0000006253     0.999991    0.00014262
  105      -16.4195880028      -0.0000006109     0.999991    0.00014099
  106      -16.4195885998      -0.0000005970     0.999991    0.00013938
  107      -16.4195891833      -0.0000005835     0.999991    0.00013780
  108      -16.4195897536      -0.0000005703     0.999991    0.00013625
  109      -16.4195903112      -0.0000005576     0.999991    0.00013473
  110      -16.4195908564      -0.0000005452     0.999991    0.00013323
  111      -16.4195913895      -0.0000005331     0.999991    0.00013175
  112      -16.4195919109      -0.0000005214     0.999991    0.00013031
  113      -16.4195924210      -0.0000005101     0.999991    0.00012888
  114      -16.4195929200      -0.0000004990     0.999991    0.00012748
  115      -16.4195934083      -0.0000004883     0.999991    0.00012611
  116      -16.4195938861      -0.0000004778     0.999991    0.00012475
  117      -16.4195943538      -0.0000004677     0.999991    0.00012342
  118      -16.4195948116      -0.0000004578     0.999991    0.00012211
  119      -16.4195952597      -0.0000004482     0.999991    0.00012082
  120      -16.4195956986      -0.0000004388     0.999991    0.00011955
  121      -16.4195961283      -0.0000004297     0.999991    0.00011830
  122      -16.4195965491      -0.0000004208     0.999991    0.00011708
  123      -16.4195969613      -0.0000004122     0.999991    0.00011587
  124      -16.4195973651      -0.0000004038     0.999991    0.00011468
  125      -16.4195977607      -0.0000003956     0.999991    0.00011351
  126      -16.4195981484      -0.0000003876     0.999991    0.00011235
  127      -16.4195985282      -0.0000003799     0.999991    0.00011122
  128      -16.4195989005      -0.0000003723     0.999991    0.00011010
  129      -16.4195992655      -0.0000003649     0.999991    0.00010900
  130      -16.4195996232      -0.0000003577     0.999991    0.00010791
  131      -16.4195999739      -0.0000003507     0.999991    0.00010685
  132      -16.4196003178      -0.0000003439     0.999991    0.00010579
  133      -16.4196006550      -0.0000003372     0.999991    0.00010476
  134      -16.4196009857      -0.0000003307     0.999991    0.00010374
  135      -16.4196013101      -0.0000003244     0.999991    0.00010273
  136      -16.4196016283      -0.0000003182     0.999991    0.00010174
  137      -16.4196019405      -0.0000003122     0.999991    0.00010076
  138      -16.4196022467      -0.0000003063     0.999991    0.00009980
  139      -16.4196025472      -0.0000003005     0.999991    0.00009885
  140      -16.4196028421      -0.0000002949     0.999991    0.00009792
  141      -16.4196031316      -0.0000002894     0.999991    0.00009700
  142      -16.4196034156      -0.0000002841     0.999991    0.00009609
  143      -16.4196036945      -0.0000002788     0.999991    0.00009519
  144      -16.4196039682      -0.0000002737     0.999991    0.00009431
  145      -16.4196042370      -0.0000002688     0.999991    0.00009344
  146      -16.4196045009      -0.0000002639     0.999991    0.00009258
  147      -16.4196047600      -0.0000002591     0.999991    0.00009174
  148      -16.4196050145      -0.0000002545     0.999991    0.00009090
  149      -16.4196052645      -0.0000002499     0.999991    0.00009008
  150      -16.4196055100      -0.0000002455     0.999991    0.00008926
  151      -16.4196057511      -0.0000002412     0.999991    0.00008846
  152      -16.4196059880      -0.0000002369     0.999991    0.00008767
  153      -16.4196062208      -0.0000002328     0.999991    0.00008689
  154      -16.4196064495      -0.0000002287     0.999991    0.00008612
  155      -16.4196066742      -0.0000002247     0.999991    0.00008536
  156      -16.4196068951      -0.0000002209     0.999991    0.00008461
  157      -16.4196071122      -0.0000002171     0.999991    0.00008387
  158      -16.4196073255      -0.0000002133     0.999991    0.00008314
  159      -16.4196075352      -0.0000002097     0.999991    0.00008242
  160      -16.4196077414      -0.0000002062     0.999991    0.00008171
  161      -16.4196079441      -0.0000002027     0.999991    0.00008101
  162      -16.4196081433      -0.0000001993     0.999991    0.00008032
  163      -16.4196083392      -0.0000001959     0.999991    0.00007963
  164      -16.4196085319      -0.0000001927     0.999991    0.00007896
  165      -16.4196087214      -0.0000001895     0.999991    0.00007829
  166      -16.4196089077      -0.0000001863     0.999991    0.00007763
  167      -16.4196090910      -0.0000001833     0.999991    0.00007698
  168      -16.4196092713      -0.0000001803     0.999991    0.00007634
  169      -16.4196094486      -0.0000001773     0.999991    0.00007570
  170      -16.4196096230      -0.0000001744     0.999991    0.00007508
  171      -16.4196097947      -0.0000001716     0.999991    0.00007446
  172      -16.4196099635      -0.0000001689     0.999991    0.00007385
  173      -16.4196101297      -0.0000001662     0.999991    0.00007324
  174      -16.4196102932      -0.0000001635     0.999991    0.00007265
  175      -16.4196104541      -0.0000001609     0.999991    0.00007206
  176      -16.4196106124      -0.0000001583     0.999991    0.00007147
  177      -16.4196107683      -0.0000001558     0.999991    0.00007090
  178      -16.4196109217      -0.0000001534     0.999991    0.00007033
  179      -16.4196110727      -0.0000001510     0.999991    0.00006977
  180      -16.4196112213      -0.0000001486     0.999991    0.00006921
  181      -16.4196113676      -0.0000001463     0.999991    0.00006866
  182      -16.4196115117      -0.0000001441     0.999991    0.00006812
  183      -16.4196116535      -0.0000001418     0.999991    0.00006758
  184      -16.4196117932      -0.0000001397     0.999991    0.00006705
  185      -16.4196119307      -0.0000001375     0.999991    0.00006653
  186      -16.4196120661      -0.0000001354     0.999991    0.00006601
  187      -16.4196121995      -0.0000001334     0.999991    0.00006550
  188      -16.4196123308      -0.0000001313     0.999991    0.00006499
  189      -16.4196124602      -0.0000001294     0.999991    0.00006449
  190      -16.4196125876      -0.0000001274     0.999991    0.00006400
  191      -16.4196127131      -0.0000001255     0.999991    0.00006351
  192      -16.4196128368      -0.0000001236     0.999991    0.00006302
  193      -16.4196129586      -0.0000001218     0.999991    0.00006254
  194      -16.4196130786      -0.0000001200     0.999991    0.00006207
  195      -16.4196131968      -0.0000001182     0.999991    0.00006160
  196      -16.4196133133      -0.0000001165     0.999991    0.00006114
  197      -16.4196134281      -0.0000001148     0.999991    0.00006068
  198      -16.4196135412      -0.0000001131     0.999991    0.00006023
  199      -16.4196136526      -0.0000001115     0.999991    0.00005978
  200      -16.4196137625      -0.0000001098     0.999991    0.00005934
  201      -16.4196138707      -0.0000001083     0.999991    0.00005890
  202      -16.4196139774      -0.0000001067     0.999991    0.00005846
  203      -16.4196140826      -0.0000001052     0.999991    0.00005803
  204      -16.4196141862      -0.0000001037     0.999991    0.00005761
  205      -16.4196142884      -0.0000001022     0.999991    0.00005719
  206      -16.4196143891      -0.0000001007     0.999991    0.00005677
  207      -16.4196144884      -0.0000000993     0.999991    0.00005636
  208      -16.4196145863      -0.0000000979     0.999991    0.00005595
  209      -16.4196146828      -0.0000000965     0.999991    0.00005555
  210      -16.4196147780      -0.0000000952     0.999991    0.00005515
  211      -16.4196148718      -0.0000000938     0.999991    0.00005476
  212      -16.4196149643      -0.0000000925     0.999991    0.00005436
  213      -16.4196150556      -0.0000000912     0.999991    0.00005398
  214      -16.4196151455      -0.0000000900     0.999991    0.00005359
  215      -16.4196152343      -0.0000000887     0.999991    0.00005321
  216      -16.4196153218      -0.0000000875     0.999991    0.00005284
  217      -16.4196154081      -0.0000000863     0.999991    0.00005247
  218      -16.4196154932      -0.0000000851     0.999991    0.00005210
  219      -16.4196155771      -0.0000000840     0.999991    0.00005174
  220      -16.4196156599      -0.0000000828     0.999991    0.00005137
  221      -16.4196157416      -0.0000000817     0.999991    0.00005102
  222      -16.4196158222      -0.0000000806     0.999991    0.00005066
  223      -16.4196159017      -0.0000000795     0.999991    0.00005031
  224      -16.4196159801      -0.0000000784     0.999991    0.00004997
  225      -16.4196160575      -0.0000000774     0.999991    0.00004962
  226      -16.4196161338      -0.0000000763     0.999991    0.00004928
  227      -16.4196162091      -0.0000000753     0.999991    0.00004895
  228      -16.4196162834      -0.0000000743     0.999991    0.00004861
  229      -16.4196163568      -0.0000000733     0.999991    0.00004828
  230      -16.4196164291      -0.0000000724     0.999991    0.00004796
  231      -16.4196165005      -0.0000000714     0.999991    0.00004763
  232      -16.4196165710      -0.0000000705     0.999991    0.00004731
  233      -16.4196166405      -0.0000000695     0.999991    0.00004699
  234      -16.4196167091      -0.0000000686     0.999991    0.00004668
  235      -16.4196167769      -0.0000000677     0.999991    0.00004637
  236      -16.4196168437      -0.0000000669     0.999991    0.00004606
  237      -16.4196169097      -0.0000000660     0.999991    0.00004575
  238      -16.4196169748      -0.0000000651     0.999991    0.00004545
  239      -16.4196170391      -0.0000000643     0.999991    0.00004515
  240      -16.4196171026      -0.0000000635     0.999991    0.00004485
  241      -16.4196171652      -0.0000000626     0.999991    0.00004455
  242      -16.4196172271      -0.0000000618     0.999991    0.00004426
  243      -16.4196172881      -0.0000000611     0.999991    0.00004397
  244      -16.4196173484      -0.0000000603     0.999991    0.00004368
  245      -16.4196174079      -0.0000000595     0.999991    0.00004340
  246      -16.4196174666      -0.0000000588     0.999991    0.00004312
  247      -16.4196175247      -0.0000000580     0.999991    0.00004284
  248      -16.4196175819      -0.0000000573     0.999991    0.00004256
  249      -16.4196176385      -0.0000000566     0.999991    0.00004228
  250      -16.4196176943      -0.0000000558     0.999991    0.00004201
  251      -16.4196177495      -0.0000000551     0.999991    0.00004174
  252      -16.4196178039      -0.0000000545     0.999991    0.00004148
  253      -16.4196178577      -0.0000000538     0.999991    0.00004121
  254      -16.4196179108      -0.0000000531     0.999991    0.00004095
  255      -16.4196179633      -0.0000000524     0.999991    0.00004069
  256      -16.4196180151      -0.0000000518     0.999992    0.00004043
  257      -16.4196180662      -0.0000000512     0.999992    0.00004017
  258      -16.4196181167      -0.0000000505     0.999992    0.00003992
  259      -16.4196181666      -0.0000000499     0.999992    0.00003967
  260      -16.4196182159      -0.0000000493     0.999992    0.00003942
  261      -16.4196182646      -0.0000000487     0.999992    0.00003917
  262      -16.4196183127      -0.0000000481     0.999992    0.00003893
  263      -16.4196183602      -0.0000000475     0.999992    0.00003868
  264      -16.4196184072      -0.0000000469     0.999992    0.00003844
  265      -16.4196184535      -0.0000000464     0.999992    0.00003820
  266      -16.4196184993      -0.0000000458     0.999992    0.00003797
  267      -16.4196185446      -0.0000000452     0.999992    0.00003773
  268      -16.4196185893      -0.0000000447     0.999992    0.00003750
  269      -16.4196186335      -0.0000000442     0.999992    0.00003727
  270      -16.4196186771      -0.0000000436     0.999992    0.00003704
  271      -16.4196187202      -0.0000000431     0.999992    0.00003681
  272      -16.4196187628      -0.0000000426     0.999992    0.00003659
  273      -16.4196188049      -0.0000000421     0.999992    0.00003636
  274      -16.4196188465      -0.0000000416     0.999992    0.00003614
  275      -16.4196188876      -0.0000000411     0.999992    0.00003592
  276      -16.4196189282      -0.0000000406     0.999992    0.00003570
  277      -16.4196189683      -0.0000000401     0.999992    0.00003549
  278      -16.4196190080      -0.0000000397     0.999992    0.00003527
  279      -16.4196190472      -0.0000000392     0.999992    0.00003506
  280      -16.4196190859      -0.0000000387     0.999992    0.00003485
  281      -16.4196191242      -0.0000000383     0.999992    0.00003464
  282      -16.4196191620      -0.0000000378     0.999992    0.00003443
  283      -16.4196191994      -0.0000000374     0.999992    0.00003422
  284      -16.4196192363      -0.0000000369     0.999992    0.00003402
  285      -16.4196192728      -0.0000000365     0.999992    0.00003382
  286      -16.4196193089      -0.0000000361     0.999992    0.00003362
  287      -16.4196193446      -0.0000000357     0.999992    0.00003342
  288      -16.4196193799      -0.0000000353     0.999992    0.00003322
  289      -16.4196194147      -0.0000000349     0.999992    0.00003302
  290      -16.4196194492      -0.0000000345     0.999992    0.00003283
  291      -16.4196194832      -0.0000000341     0.999992    0.00003263
  292      -16.4196195169      -0.0000000337     0.999992    0.00003244
  293      -16.4196195502      -0.0000000333     0.999992    0.00003225
  294      -16.4196195831      -0.0000000329     0.999992    0.00003206
  295      -16.4196196156      -0.0000000325     0.999992    0.00003187
  296      -16.4196196478      -0.0000000322     0.999992    0.00003169
  297      -16.4196196796      -0.0000000318     0.999992    0.00003150
  298      -16.4196197110      -0.0000000314     0.999992    0.00003132
  299      -16.4196197421      -0.0000000311     0.999992    0.00003114
  300      -16.4196197728      -0.0000000307     0.999992    0.00003096
  301      -16.4196198032      -0.0000000304     0.999992    0.00003078
  302      -16.4196198332      -0.0000000300     0.999992    0.00003060
  303      -16.4196198629      -0.0000000297     0.999992    0.00003042
  304      -16.4196198922      -0.0000000294     0.999992    0.00003025
  305      -16.4196199213      -0.0000000290     0.999992    0.00003008
  306      -16.4196199500      -0.0000000287     0.999992    0.00002990
  307      -16.4196199783      -0.0000000284     0.999992    0.00002973
  308      -16.4196200064      -0.0000000281     0.999992    0.00002956
  309      -16.4196200342      -0.0000000278     0.999992    0.00002939
  310      -16.4196200616      -0.0000000274     0.999992    0.00002923
  311      -16.4196200888      -0.0000000271     0.999992    0.00002906
  312      -16.4196201156      -0.0000000268     0.999992    0.00002890
  313      -16.4196201421      -0.0000000265     0.999992    0.00002873
  314      -16.4196201684      -0.0000000262     0.999992    0.00002857
  315      -16.4196201943      -0.0000000260     0.999992    0.00002841
  316      -16.4196202200      -0.0000000257     0.999992    0.00002825
  317      -16.4196202454      -0.0000000254     0.999992    0.00002809
  318      -16.4196202705      -0.0000000251     0.999992    0.00002793
  319      -16.4196202954      -0.0000000248     0.999992    0.00002777
  320      -16.4196203199      -0.0000000246     0.999992    0.00002762
  321      -16.4196203442      -0.0000000243     0.999992    0.00002746
  322      -16.4196203682      -0.0000000240     0.999992    0.00002731
  323      -16.4196203920      -0.0000000238     0.999992    0.00002716
  324      -16.4196204155      -0.0000000235     0.999992    0.00002701
  325      -16.4196204388      -0.0000000233     0.999992    0.00002686
  326      -16.4196204618      -0.0000000230     0.999992    0.00002671
  327      -16.4196204845      -0.0000000228     0.999992    0.00002656
  328      -16.4196205071      -0.0000000225     0.999992    0.00002641
  329      -16.4196205293      -0.0000000223     0.999992    0.00002627
  330      -16.4196205513      -0.0000000220     0.999992    0.00002612
  331      -16.4196205731      -0.0000000218     0.999992    0.00002598
  332      -16.4196205947      -0.0000000216     0.999992    0.00002584
  333      -16.4196206160      -0.0000000213     0.999992    0.00002569
  334      -16.4196206371      -0.0000000211     0.999992    0.00002555
  335      -16.4196206580      -0.0000000209     0.999992    0.00002541
  336      -16.4196206786      -0.0000000206     0.999992    0.00002527
  337      -16.4196206990      -0.0000000204     0.999992    0.00002514
  338      -16.4196207193      -0.0000000202     0.999992    0.00002500
  339      -16.4196207392      -0.0000000200     0.999992    0.00002486
  340      -16.4196207590      -0.0000000198     0.999992    0.00002473
  341      -16.4196207786      -0.0000000196     0.999992    0.00002459
  342      -16.4196207980      -0.0000000194     0.999992    0.00002446
  343      -16.4196208171      -0.0000000192     0.999992    0.00002433
  344      -16.4196208361      -0.0000000190     0.999992    0.00002420
  345      -16.4196208548      -0.0000000188     0.999992    0.00002407
  346      -16.4196208734      -0.0000000186     0.999992    0.00002394
  347      -16.4196208918      -0.0000000184     0.999992    0.00002381
  348      -16.4196209099      -0.0000000182     0.999992    0.00002368
  349      -16.4196209279      -0.0000000180     0.999992    0.00002355
  350      -16.4196209457      -0.0000000178     0.999992    0.00002343
  351      -16.4196209633      -0.0000000176     0.999992    0.00002330
  352      -16.4196209807      -0.0000000174     0.999992    0.00002318
  353      -16.4196209980      -0.0000000172     0.999992    0.00002305
  354      -16.4196210150      -0.0000000171     0.999992    0.00002293
  355      -16.4196210319      -0.0000000169     0.999992    0.00002281
  356      -16.4196210486      -0.0000000167     0.999992    0.00002269
  357      -16.4196210651      -0.0000000165     0.999992    0.00002257
  358      -16.4196210815      -0.0000000164     0.999992    0.00002245
  359      -16.4196210977      -0.0000000162     0.999992    0.00002233
  360      -16.4196211137      -0.0000000160     0.999992    0.00002221
  361      -16.4196211296      -0.0000000159     0.999992    0.00002209
  362      -16.4196211453      -0.0000000157     0.999992    0.00002198
  363      -16.4196211608      -0.0000000155     0.999992    0.00002186
  364      -16.4196211762      -0.0000000154     0.999992    0.00002174
  365      -16.4196211914      -0.0000000152     0.999992    0.00002163
  366      -16.4196212064      -0.0000000151     0.999992    0.00002152
  367      -16.4196212213      -0.0000000149     0.999992    0.00002140
  368      -16.4196212361      -0.0000000148     0.999992    0.00002129
  369      -16.4196212507      -0.0000000146     0.999992    0.00002118
  370      -16.4196212651      -0.0000000144     0.999992    0.00002107
  371      -16.4196212794      -0.0000000143     0.999992    0.00002096
  372      -16.4196212936      -0.0000000142     0.999992    0.00002085
  373      -16.4196213076      -0.0000000140     0.999992    0.00002074
  374      -16.4196213215      -0.0000000139     0.999992    0.00002063
  375      -16.4196213352      -0.0000000137     0.999992    0.00002053
  376      -16.4196213488      -0.0000000136     0.999992    0.00002042
  377      -16.4196213623      -0.0000000135     0.999992    0.00002031
  378      -16.4196213756      -0.0000000133     0.999992    0.00002021
  379      -16.4196213887      -0.0000000132     0.999992    0.00002010
  380      -16.4196214018      -0.0000000130     0.999992    0.00002000
  381      -16.4196214147      -0.0000000129     0.999992    0.00001990
  382      -16.4196214275      -0.0000000128     0.999992    0.00001980
  383      -16.4196214401      -0.0000000127     0.999992    0.00001969
  384      -16.4196214527      -0.0000000125     0.999992    0.00001959
  385      -16.4196214651      -0.0000000124     0.999992    0.00001949
  386      -16.4196214774      -0.0000000123     0.999992    0.00001939
  387      -16.4196214895      -0.0000000122     0.999992    0.00001929
  388      -16.4196215015      -0.0000000120     0.999992    0.00001919
  389      -16.4196215135      -0.0000000119     0.999992    0.00001910
  390      -16.4196215253      -0.0000000118     0.999992    0.00001900
  391      -16.4196215369      -0.0000000117     0.999992    0.00001890
  392      -16.4196215485      -0.0000000116     0.999992    0.00001880
  393      -16.4196215599      -0.0000000114     0.999992    0.00001871
  394      -16.4196215713      -0.0000000113     0.999992    0.00001861
  395      -16.4196215825      -0.0000000112     0.999992    0.00001852
  396      -16.4196215936      -0.0000000111     0.999992    0.00001843
  397      -16.4196216046      -0.0000000110     0.999992    0.00001833
  398      -16.4196216155      -0.0000000109     0.999992    0.00001824
  399      -16.4196216262      -0.0000000108     0.999992    0.00001815
  400      -16.4196216369      -0.0000000107     0.999992    0.00001806
  401      -16.4196216475      -0.0000000106     0.999992    0.00001796
  402      -16.4196216579      -0.0000000105     0.999992    0.00001787
  403      -16.4196216683      -0.0000000104     0.999992    0.00001778
  404      -16.4196216785      -0.0000000103     0.999992    0.00001769
  405      -16.4196216887      -0.0000000102     0.999992    0.00001760
  406      -16.4196216988      -0.0000000101     0.999992    0.00001752
  407      -16.4196217087      -0.0000000100     0.999992    0.00001743
  408      -16.4196217186      -0.0000000099     0.999992    0.00001734
  409      -16.4196217283      -0.0000000098     0.999992    0.00001725
  410      -16.4196217380      -0.0000000097     0.999992    0.00001717
  411      -16.4196217476      -0.0000000096     0.999992    0.00001708
  412      -16.4196217570      -0.0000000095     0.999992    0.00001700
  413      -16.4196217664      -0.0000000094     0.999992    0.00001691
  414      -16.4196217757      -0.0000000093     0.999992    0.00001683
  415      -16.4196217849      -0.0000000092     0.999992    0.00001674
  416      -16.4196217940      -0.0000000091     0.999992    0.00001666
  417      -16.4196218030      -0.0000000090     0.999992    0.00001658
  418      -16.4196218120      -0.0000000089     0.999992    0.00001650
  419      -16.4196218208      -0.0000000088     0.999992    0.00001641
  420      -16.4196218296      -0.0000000088     0.999992    0.00001633
  421      -16.4196218383      -0.0000000087     0.999992    0.00001625
  422      -16.4196218469      -0.0000000086     0.999992    0.00001617
  423      -16.4196218554      -0.0000000085     0.999992    0.00001609
  424      -16.4196218638      -0.0000000084     0.999992    0.00001601
  425      -16.4196218721      -0.0000000083     0.999992    0.00001593
  426      -16.4196218804      -0.0000000083     0.999992    0.00001585
  427      -16.4196218886      -0.0000000082     0.999992    0.00001578
  428      -16.4196218967      -0.0000000081     0.999992    0.00001570
  429      -16.4196219047      -0.0000000080     0.999992    0.00001562
  430      -16.4196219127      -0.0000000079     0.999992    0.00001554
  431      -16.4196219205      -0.0000000079     0.999992    0.00001547
  432      -16.4196219283      -0.0000000078     0.999992    0.00001539
  433      -16.4196219361      -0.0000000077     0.999992    0.00001532
  434      -16.4196219437      -0.0000000076     0.999992    0.00001524
  435      -16.4196219513      -0.0000000076     0.999992    0.00001517
  436      -16.4196219588      -0.0000000075     0.999992    0.00001509
  437      -16.4196219662      -0.0000000074     0.999992    0.00001502
  438      -16.4196219736      -0.0000000074     0.999992    0.00001495
  439      -16.4196219809      -0.0000000073     0.999992    0.00001487
  440      -16.4196219881      -0.0000000072     0.999992    0.00001480
  441      -16.4196219952      -0.0000000071     0.999992    0.00001473
  442      -16.4196220023      -0.0000000071     0.999992    0.00001466
  443      -16.4196220093      -0.0000000070     0.999992    0.00001459
  444      -16.4196220163      -0.0000000069     0.999992    0.00001452
  445      -16.4196220231      -0.0000000069     0.999992    0.00001444
  446      -16.4196220300      -0.0000000068     0.999992    0.00001437
  447      -16.4196220367      -0.0000000067     0.999992    0.00001431
  448      -16.4196220434      -0.0000000067     0.999992    0.00001424
  449      -16.4196220500      -0.0000000066     0.999992    0.00001417
  450      -16.4196220566      -0.0000000066     0.999992    0.00001410
  451      -16.4196220631      -0.0000000065     0.999992    0.00001403
  452      -16.4196220695      -0.0000000064     0.999992    0.00001396
  453      -16.4196220759      -0.0000000064     0.999992    0.00001390
  454      -16.4196220822      -0.0000000063     0.999992    0.00001383
  455      -16.4196220884      -0.0000000063     0.999992    0.00001376
  456      -16.4196220946      -0.0000000062     0.999992    0.00001370
  457      -16.4196221008      -0.0000000061     0.999992    0.00001363
  458      -16.4196221069      -0.0000000061     0.999992    0.00001356
  459      -16.4196221129      -0.0000000060     0.999992    0.00001350
  460      -16.4196221188      -0.0000000060     0.999992    0.00001343
  461      -16.4196221248      -0.0000000059     0.999992    0.00001337
  462      -16.4196221306      -0.0000000059     0.999992    0.00001331
  463      -16.4196221364      -0.0000000058     0.999992    0.00001324
  464      -16.4196221421      -0.0000000057     0.999992    0.00001318
  465      -16.4196221478      -0.0000000057     0.999992    0.00001312
  466      -16.4196221535      -0.0000000056     0.999992    0.00001305
  467      -16.4196221591      -0.0000000056     0.999992    0.00001299
  468      -16.4196221646      -0.0000000055     0.999992    0.00001293
  469      -16.4196221701      -0.0000000055     0.999992    0.00001287
  470      -16.4196221755      -0.0000000054     0.999992    0.00001281
  471      -16.4196221809      -0.0000000054     0.999992    0.00001275
  472      -16.4196221862      -0.0000000053     0.999992    0.00001269
  473      -16.4196221915      -0.0000000053     0.999992    0.00001262
  474      -16.4196221967      -0.0000000052     0.999992    0.00001256
  475      -16.4196222019      -0.0000000052     0.999992    0.00001251
  476      -16.4196222070      -0.0000000051     0.999992    0.00001245
  477      -16.4196222121      -0.0000000051     0.999992    0.00001239
  478      -16.4196222171      -0.0000000050     0.999992    0.00001233
  479      -16.4196222221      -0.0000000050     0.999992    0.00001227
  480      -16.4196222271      -0.0000000049     0.999992    0.00001221
  481      -16.4196222320      -0.0000000049     0.999992    0.00001215
  482      -16.4196222368      -0.0000000049     0.999992    0.00001210
  483      -16.4196222416      -0.0000000048     0.999992    0.00001204
  484      -16.4196222464      -0.0000000048     0.999992    0.00001198
  485      -16.4196222511      -0.0000000047     0.999992    0.00001193
  486      -16.4196222558      -0.0000000047     0.999992    0.00001187
  487      -16.4196222604      -0.0000000046     0.999992    0.00001181
  488      -16.4196222650      -0.0000000046     0.999992    0.00001176
  489      -16.4196222695      -0.0000000045     0.999992    0.00001170
  490      -16.4196222740      -0.0000000045     0.999992    0.00001165
  491      -16.4196222785      -0.0000000045     0.999992    0.00001159
  492      -16.4196222829      -0.0000000044     0.999992    0.00001154
  493      -16.4196222873      -0.0000000044     0.999992    0.00001149
  494      -16.4196222916      -0.0000000043     0.999992    0.00001143
  495      -16.4196222959      -0.0000000043     0.999992    0.00001138
  496      -16.4196223002      -0.0000000043     0.999992    0.00001132
  497      -16.4196223044      -0.0000000042     0.999992    0.00001127
  498      -16.4196223086      -0.0000000042     0.999992    0.00001122
  499      -16.4196223127      -0.0000000041     0.999992    0.00001117
  500      -16.4196223168      -0.0000000041     0.999992    0.00001111
  501      -16.4196223209      -0.0000000041     0.999992    0.00001106
  502      -16.4196223249      -0.0000000040     0.999992    0.00001101
  503      -16.4196223289      -0.0000000040     0.999992    0.00001096
  504      -16.4196223329      -0.0000000040     0.999992    0.00001091
  505      -16.4196223368      -0.0000000039     0.999992    0.00001086
  506      -16.4196223407      -0.0000000039     0.999992    0.00001081
  507      -16.4196223445      -0.0000000038     0.999992    0.00001076
  508      -16.4196223483      -0.0000000038     0.999992    0.00001071
  509      -16.4196223521      -0.0000000038     0.999992    0.00001066
  510      -16.4196223558      -0.0000000037     0.999992    0.00001061
  511      -16.4196223596      -0.0000000037     0.999992    0.00001056
  512      -16.4196223632      -0.0000000037     0.999992    0.00001051
  513      -16.4196223669      -0.0000000036     0.999992    0.00001046
  514      -16.4196223705      -0.0000000036     0.999992    0.00001041
  515      -16.4196223741      -0.0000000036     0.999992    0.00001036
  516      -16.4196223776      -0.0000000035     0.999992    0.00001032
  517      -16.4196223811      -0.0000000035     0.999992    0.00001027
  518      -16.4196223846      -0.0000000035     0.999992    0.00001022
  519      -16.4196223880      -0.0000000034     0.999992    0.00001017
  520      -16.4196223915      -0.0000000034     0.999992    0.00001013
  521      -16.4196223948      -0.0000000034     0.999992    0.00001008
  522      -16.4196223982      -0.0000000034     0.999992    0.00001003
  523      -16.4196224015      -0.0000000033     0.999992    0.00000999
  524      -16.4196224048      -0.0000000033     0.999992    0.00000994
  525      -16.4196224081      -0.0000000033     0.999992    0.00000990
  526      -16.4196224113      -0.0000000032     0.999992    0.00000985
  527      -16.4196224145      -0.0000000032     0.999992    0.00000981
  528      -16.4196224177      -0.0000000032     0.999992    0.00000976
  529      -16.4196224208      -0.0000000031     0.999992    0.00000972
  530      -16.4196224239      -0.0000000031     0.999992    0.00000967
  531      -16.4196224270      -0.0000000031     0.999992    0.00000963
  532      -16.4196224301      -0.0000000031     0.999992    0.00000958
  533      -16.4196224331      -0.0000000030     0.999992    0.00000954
  534      -16.4196224361      -0.0000000030     0.999992    0.00000949
  535      -16.4196224391      -0.0000000030     0.999992    0.00000945
  536      -16.4196224421      -0.0000000030     0.999992    0.00000941
  537      -16.4196224450      -0.0000000029     0.999992    0.00000936
  538      -16.4196224479      -0.0000000029     0.999992    0.00000932
  539      -16.4196224508      -0.0000000029     0.999992    0.00000928
  540      -16.4196224536      -0.0000000028     0.999992    0.00000924
  541      -16.4196224564      -0.0000000028     0.999992    0.00000919
  542      -16.4196224592      -0.0000000028     0.999992    0.00000915
  543      -16.4196224620      -0.0000000028     0.999992    0.00000911
  544      -16.4196224647      -0.0000000027     0.999992    0.00000907
  545      -16.4196224675      -0.0000000027     0.999992    0.00000903
  546      -16.4196224702      -0.0000000027     0.999992    0.00000899
  547      -16.4196224728      -0.0000000027     0.999992    0.00000895
  548      -16.4196224755      -0.0000000026     0.999992    0.00000891
  549      -16.4196224781      -0.0000000026     0.999992    0.00000886
  550      -16.4196224807      -0.0000000026     0.999992    0.00000882
  551      -16.4196224833      -0.0000000026     0.999992    0.00000878
  552      -16.4196224858      -0.0000000026     0.999992    0.00000874
  553      -16.4196224884      -0.0000000025     0.999992    0.00000870
  554      -16.4196224909      -0.0000000025     0.999992    0.00000867
  555      -16.4196224934      -0.0000000025     0.999992    0.00000863
  556      -16.4196224958      -0.0000000025     0.999992    0.00000859
  557      -16.4196224983      -0.0000000024     0.999992    0.00000855
  558      -16.4196225007      -0.0000000024     0.999992    0.00000851
  559      -16.4196225031      -0.0000000024     0.999992    0.00000847
  560      -16.4196225055      -0.0000000024     0.999992    0.00000843
  561      -16.4196225078      -0.0000000024     0.999992    0.00000839
  562      -16.4196225102      -0.0000000023     0.999992    0.00000836
  563      -16.4196225125      -0.0000000023     0.999992    0.00000832
  564      -16.4196225148      -0.0000000023     0.999992    0.00000828
  565      -16.4196225171      -0.0000000023     0.999992    0.00000824
  566      -16.4196225193      -0.0000000023     0.999992    0.00000821
  567      -16.4196225215      -0.0000000022     0.999992    0.00000817
  568      -16.4196225238      -0.0000000022     0.999992    0.00000813
  569      -16.4196225259      -0.0000000022     0.999992    0.00000810
  570      -16.4196225281      -0.0000000022     0.999992    0.00000806
  571      -16.4196225303      -0.0000000022     0.999992    0.00000802
  572      -16.4196225324      -0.0000000021     0.999992    0.00000799
  573      -16.4196225345      -0.0000000021     0.999992    0.00000795
  574      -16.4196225366      -0.0000000021     0.999992    0.00000791
  575      -16.4196225387      -0.0000000021     0.999992    0.00000788
  576      -16.4196225408      -0.0000000021     0.999992    0.00000784
  577      -16.4196225428      -0.0000000020     0.999992    0.00000781
  578      -16.4196225448      -0.0000000020     0.999992    0.00000777
  579      -16.4196225468      -0.0000000020     0.999992    0.00000774
  580      -16.4196225488      -0.0000000020     0.999992    0.00000770
  581      -16.4196225508      -0.0000000020     0.999992    0.00000767
  582      -16.4196225528      -0.0000000020     0.999992    0.00000763
  583      -16.4196225547      -0.0000000019     0.999992    0.00000760
  584      -16.4196225566      -0.0000000019     0.999992    0.00000757
  585      -16.4196225585      -0.0000000019     0.999992    0.00000753
  586      -16.4196225604      -0.0000000019     0.999992    0.00000750
  587      -16.4196225623      -0.0000000019     0.999992    0.00000747
  588      -16.4196225641      -0.0000000019     0.999992    0.00000743
  589      -16.4196225660      -0.0000000018     0.999992    0.00000740
  590      -16.4196225678      -0.0000000018     0.999992    0.00000737
  591      -16.4196225696      -0.0000000018     0.999992    0.00000733
  592      -16.4196225714      -0.0000000018     0.999992    0.00000730
  593      -16.4196225731      -0.0000000018     0.999992    0.00000727
  594      -16.4196225749      -0.0000000018     0.999992    0.00000724
  595      -16.4196225766      -0.0000000017     0.999992    0.00000720
  596      -16.4196225784      -0.0000000017     0.999992    0.00000717
  597      -16.4196225801      -0.0000000017     0.999992    0.00000714
  598      -16.4196225818      -0.0000000017     0.999992    0.00000711
  599      -16.4196225834      -0.0000000017     0.999992    0.00000708
  600      -16.4196225851      -0.0000000017     0.999992    0.00000704
  601      -16.4196225868      -0.0000000017     0.999992    0.00000701
  602      -16.4196225884      -0.0000000016     0.999992    0.00000698
  603      -16.4196225900      -0.0000000016     0.999992    0.00000695
  604      -16.4196225916      -0.0000000016     0.999992    0.00000692
  605      -16.4196225932      -0.0000000016     0.999992    0.00000689
  606      -16.4196225948      -0.0000000016     0.999992    0.00000686
  607      -16.4196225964      -0.0000000016     0.999992    0.00000683
  608      -16.4196225979      -0.0000000016     0.999992    0.00000680
  609      -16.4196225994      -0.0000000015     0.999992    0.00000677
  610      -16.4196226010      -0.0000000015     0.999992    0.00000674
  611      -16.4196226025      -0.0000000015     0.999992    0.00000671
  612      -16.4196226040      -0.0000000015     0.999992    0.00000668
  613      -16.4196226055      -0.0000000015     0.999992    0.00000665
  614      -16.4196226069      -0.0000000015     0.999992    0.00000662
  615      -16.4196226084      -0.0000000015     0.999992    0.00000659
  616      -16.4196226098      -0.0000000014     0.999992    0.00000656
  617      -16.4196226113      -0.0000000014     0.999992    0.00000653
  618      -16.4196226127      -0.0000000014     0.999992    0.00000650
  619      -16.4196226141      -0.0000000014     0.999992    0.00000647
  620      -16.4196226155      -0.0000000014     0.999992    0.00000644
  621      -16.4196226169      -0.0000000014     0.999992    0.00000642
  622      -16.4196226183      -0.0000000014     0.999992    0.00000639
  623      -16.4196226196      -0.0000000014     0.999992    0.00000636
  624      -16.4196226210      -0.0000000013     0.999992    0.00000633
  625      -16.4196226223      -0.0000000013     0.999992    0.00000630
  626      -16.4196226236      -0.0000000013     0.999992    0.00000628
  627      -16.4196226249      -0.0000000013     0.999992    0.00000625
  628      -16.4196226262      -0.0000000013     0.999992    0.00000622
  629      -16.4196226275      -0.0000000013     0.999992    0.00000619
  630      -16.4196226288      -0.0000000013     0.999992    0.00000617
  631      -16.4196226301      -0.0000000013     0.999992    0.00000614
  632      -16.4196226313      -0.0000000013     0.999992    0.00000611
  633      -16.4196226326      -0.0000000012     0.999992    0.00000608
  634      -16.4196226338      -0.0000000012     0.999992    0.00000606
  635      -16.4196226350      -0.0000000012     0.999992    0.00000603
  636      -16.4196226362      -0.0000000012     0.999992    0.00000600
  637      -16.4196226374      -0.0000000012     0.999992    0.00000598
  638      -16.4196226386      -0.0000000012     0.999992    0.00000595
  639      -16.4196226398      -0.0000000012     0.999992    0.00000593
  640      -16.4196226410      -0.0000000012     0.999992    0.00000590
  641      -16.4196226422      -0.0000000012     0.999992    0.00000587
  642      -16.4196226433      -0.0000000012     0.999992    0.00000585
  643      -16.4196226444      -0.0000000011     0.999992    0.00000582
  644      -16.4196226456      -0.0000000011     0.999992    0.00000580
  645      -16.4196226467      -0.0000000011     0.999992    0.00000577
  646      -16.4196226478      -0.0000000011     0.999992    0.00000575
  647      -16.4196226489      -0.0000000011     0.999992    0.00000572
  648      -16.4196226500      -0.0000000011     0.999992    0.00000570
  649      -16.4196226511      -0.0000000011     0.999992    0.00000567
  650      -16.4196226522      -0.0000000011     0.999992    0.00000565
  651      -16.4196226532      -0.0000000011     0.999992    0.00000562
  652      -16.4196226543      -0.0000000011     0.999992    0.00000560
  653      -16.4196226553      -0.0000000010     0.999992    0.00000557
  654      -16.4196226564      -0.0000000010     0.999992    0.00000555
  655      -16.4196226574      -0.0000000010     0.999992    0.00000552
  656      -16.4196226584      -0.0000000010     0.999992    0.00000550
  657      -16.4196226594      -0.0000000010     0.999992    0.00000547
  658      -16.4196226604      -0.0000000010     0.999992    0.00000545
  659      -16.4196226614      -0.0000000010     0.999992    0.00000543
  660      -16.4196226624      -0.0000000010     0.999992    0.00000540
  661      -16.4196226634      -0.0000000010     0.999992    0.00000538
  662      -16.4196226643      -0.0000000010     0.999992    0.00000536
  663      -16.4196226653      -0.0000000010     0.999992    0.00000533
  664      -16.4196226663      -0.0000000010     0.999992    0.00000531
  665      -16.4196226672      -0.0000000009     0.999992    0.00000529
  666      -16.4196226681      -0.0000000009     0.999992    0.00000526
  667      -16.4196226691      -0.0000000009     0.999992    0.00000524
  668      -16.4196226700      -0.0000000009     0.999992    0.00000522
  669      -16.4196226709      -0.0000000009     0.999992    0.00000519
  670      -16.4196226718      -0.0000000009     0.999992    0.00000517
  671      -16.4196226727      -0.0000000009     0.999992    0.00000515
  672      -16.4196226736      -0.0000000009     0.999992    0.00000513
  673      -16.4196226744      -0.0000000009     0.999992    0.00000510
  674      -16.4196226753      -0.0000000009     0.999992    0.00000508
  675      -16.4196226762      -0.0000000009     0.999992    0.00000506
  676      -16.4196226770      -0.0000000009     0.999992    0.00000504
  677      -16.4196226779      -0.0000000008     0.999992    0.00000502
  678      -16.4196226787      -0.0000000008     0.999992    0.00000499
  679      -16.4196226796      -0.0000000008     0.999992    0.00000497
  680      -16.4196226804      -0.0000000008     0.999992    0.00000495
  681      -16.4196226812      -0.0000000008     0.999992    0.00000493
  682      -16.4196226820      -0.0000000008     0.999992    0.00000491
  683      -16.4196226828      -0.0000000008     0.999992    0.00000489
  684      -16.4196226836      -0.0000000008     0.999992    0.00000487
  685      -16.4196226844      -0.0000000008     0.999992    0.00000484
  686      -16.4196226852      -0.0000000008     0.999992    0.00000482
  687      -16.4196226860      -0.0000000008     0.999992    0.00000480
  688      -16.4196226868      -0.0000000008     0.999992    0.00000478
  689      -16.4196226875      -0.0000000008     0.999992    0.00000476
  690      -16.4196226883      -0.0000000008     0.999992    0.00000474
  691      -16.4196226890      -0.0000000008     0.999992    0.00000472
  692      -16.4196226898      -0.0000000007     0.999992    0.00000470
  693      -16.4196226905      -0.0000000007     0.999992    0.00000468
  694      -16.4196226913      -0.0000000007     0.999992    0.00000466
  695      -16.4196226920      -0.0000000007     0.999992    0.00000464
  696      -16.4196226927      -0.0000000007     0.999992    0.00000462
  697      -16.4196226934      -0.0000000007     0.999992    0.00000460
  698      -16.4196226941      -0.0000000007     0.999992    0.00000458
  699      -16.4196226948      -0.0000000007     0.999992    0.00000456
  700      -16.4196226955      -0.0000000007     0.999992    0.00000454
  701      -16.4196226962      -0.0000000007     0.999992    0.00000452
  702      -16.4196226969      -0.0000000007     0.999992    0.00000450
  703      -16.4196226976      -0.0000000007     0.999992    0.00000448
  704      -16.4196226983      -0.0000000007     0.999992    0.00000446
  705      -16.4196226989      -0.0000000007     0.999992    0.00000444
  706      -16.4196226996      -0.0000000007     0.999992    0.00000442
  707      -16.4196227002      -0.0000000007     0.999992    0.00000440
  708      -16.4196227009      -0.0000000006     0.999992    0.00000438
  709      -16.4196227015      -0.0000000006     0.999992    0.00000437
  710      -16.4196227022      -0.0000000006     0.999992    0.00000435
  711      -16.4196227028      -0.0000000006     0.999992    0.00000433
  712      -16.4196227034      -0.0000000006     0.999992    0.00000431
  713      -16.4196227041      -0.0000000006     0.999992    0.00000429
  714      -16.4196227047      -0.0000000006     0.999992    0.00000427
  715      -16.4196227053      -0.0000000006     0.999992    0.00000425
  716      -16.4196227059      -0.0000000006     0.999992    0.00000424
  717      -16.4196227065      -0.0000000006     0.999992    0.00000422
  718      -16.4196227071      -0.0000000006     0.999992    0.00000420
  719      -16.4196227077      -0.0000000006     0.999992    0.00000418
  720      -16.4196227083      -0.0000000006     0.999992    0.00000416
  721      -16.4196227088      -0.0000000006     0.999992    0.00000414
  722      -16.4196227094      -0.0000000006     0.999992    0.00000413
  723      -16.4196227100      -0.0000000006     0.999992    0.00000411
  724      -16.4196227106      -0.0000000006     0.999992    0.00000409
  725      -16.4196227111      -0.0000000006     0.999992    0.00000407
  726      -16.4196227117      -0.0000000006     0.999992    0.00000406
  727      -16.4196227122      -0.0000000006     0.999992    0.00000404
  728      -16.4196227128      -0.0000000005     0.999992    0.00000402
  729      -16.4196227133      -0.0000000005     0.999992    0.00000400
  730      -16.4196227139      -0.0000000005     0.999992    0.00000399
  731      -16.4196227144      -0.0000000005     0.999992    0.00000397
  732      -16.4196227149      -0.0000000005     0.999992    0.00000395
  733      -16.4196227154      -0.0000000005     0.999992    0.00000394
  734      -16.4196227160      -0.0000000005     0.999992    0.00000392
  735      -16.4196227165      -0.0000000005     0.999992    0.00000390
  736      -16.4196227170      -0.0000000005     0.999992    0.00000389
  737      -16.4196227175      -0.0000000005     0.999992    0.00000387
  738      -16.4196227180      -0.0000000005     0.999992    0.00000385
  739      -16.4196227185      -0.0000000005     0.999992    0.00000384
  740      -16.4196227190      -0.0000000005     0.999992    0.00000382
  741      -16.4196227195      -0.0000000005     0.999992    0.00000380
  742      -16.4196227200      -0.0000000005     0.999992    0.00000379
  743      -16.4196227204      -0.0000000005     0.999992    0.00000377
  744      -16.4196227209      -0.0000000005     0.999992    0.00000375
  745      -16.4196227214      -0.0000000005     0.999992    0.00000374
  746      -16.4196227219      -0.0000000005     0.999992    0.00000372
  747      -16.4196227223      -0.0000000005     0.999992    0.00000371
  748      -16.4196227228      -0.0000000005     0.999992    0.00000369
  749      -16.4196227233      -0.0000000005     0.999992    0.00000367
  750      -16.4196227237      -0.0000000005     0.999992    0.00000366
  751      -16.4196227242      -0.0000000004     0.999992    0.00000364
  752      -16.4196227246      -0.0000000004     0.999992    0.00000363
  753      -16.4196227250      -0.0000000004     0.999992    0.00000361
  754      -16.4196227255      -0.0000000004     0.999992    0.00000360
  755      -16.4196227259      -0.0000000004     0.999992    0.00000358
  756      -16.4196227263      -0.0000000004     0.999992    0.00000357
  757      -16.4196227268      -0.0000000004     0.999992    0.00000355
  758      -16.4196227272      -0.0000000004     0.999992    0.00000354
  759      -16.4196227276      -0.0000000004     0.999992    0.00000352
  760      -16.4196227280      -0.0000000004     0.999992    0.00000350
  761      -16.4196227284      -0.0000000004     0.999992    0.00000349
  762      -16.4196227289      -0.0000000004     0.999992    0.00000348
  763      -16.4196227293      -0.0000000004     0.999992    0.00000346
  764      -16.4196227297      -0.0000000004     0.999992    0.00000345
  765      -16.4196227301      -0.0000000004     0.999992    0.00000343
  766      -16.4196227305      -0.0000000004     0.999992    0.00000342
  767      -16.4196227309      -0.0000000004     0.999992    0.00000340
  768      -16.4196227312      -0.0000000004     0.999992    0.00000339
  769      -16.4196227316      -0.0000000004     0.999992    0.00000337
  770      -16.4196227320      -0.0000000004     0.999992    0.00000336
  771      -16.4196227324      -0.0000000004     0.999992    0.00000334
  772      -16.4196227328      -0.0000000004     0.999992    0.00000333
  773      -16.4196227331      -0.0000000004     0.999992    0.00000332
  774      -16.4196227335      -0.0000000004     0.999992    0.00000330
  775      -16.4196227339      -0.0000000004     0.999992    0.00000329
  776      -16.4196227342      -0.0000000004     0.999992    0.00000327
  777      -16.4196227346      -0.0000000004     0.999992    0.00000326
  778      -16.4196227350      -0.0000000004     0.999992    0.00000325
  779      -16.4196227353      -0.0000000004     0.999992    0.00000323
  780      -16.4196227357      -0.0000000004     0.999992    0.00000322
  781      -16.4196227360      -0.0000000003     0.999992    0.00000320
  782      -16.4196227364      -0.0000000003     0.999992    0.00000319
  783      -16.4196227367      -0.0000000003     0.999992    0.00000318
  784      -16.4196227370      -0.0000000003     0.999992    0.00000316
  785      -16.4196227374      -0.0000000003     0.999992    0.00000315
  786      -16.4196227377      -0.0000000003     0.999992    0.00000314
  787      -16.4196227380      -0.0000000003     0.999992    0.00000312
  788      -16.4196227384      -0.0000000003     0.999992    0.00000311
  789      -16.4196227387      -0.0000000003     0.999992    0.00000310
  790      -16.4196227390      -0.0000000003     0.999992    0.00000308
  791      -16.4196227393      -0.0000000003     0.999992    0.00000307
  792      -16.4196227396      -0.0000000003     0.999992    0.00000306
  793      -16.4196227400      -0.0000000003     0.999992    0.00000304
  794      -16.4196227403      -0.0000000003     0.999992    0.00000303
  795      -16.4196227406      -0.0000000003     0.999992    0.00000302
  796      -16.4196227409      -0.0000000003     0.999992    0.00000301
  797      -16.4196227412      -0.0000000003     0.999992    0.00000299
  798      -16.4196227415      -0.0000000003     0.999992    0.00000298
  799      -16.4196227418      -0.0000000003     0.999992    0.00000297
  800      -16.4196227421      -0.0000000003     0.999992    0.00000295
  801      -16.4196227424      -0.0000000003     0.999992    0.00000294
  802      -16.4196227427      -0.0000000003     0.999992    0.00000293
  803      -16.4196227430      -0.0000000003     0.999992    0.00000292
  804      -16.4196227432      -0.0000000003     0.999992    0.00000290
  805      -16.4196227435      -0.0000000003     0.999992    0.00000289
  806      -16.4196227438      -0.0000000003     0.999992    0.00000288
  807      -16.4196227441      -0.0000000003     0.999992    0.00000287
  808      -16.4196227444      -0.0000000003     0.999992    0.00000286
  809      -16.4196227446      -0.0000000003     0.999992    0.00000284
  810      -16.4196227449      -0.0000000003     0.999992    0.00000283
  811      -16.4196227452      -0.0000000003     0.999992    0.00000282
  812      -16.4196227455      -0.0000000003     0.999992    0.00000281
  813      -16.4196227457      -0.0000000003     0.999992    0.00000280
  814      -16.4196227460      -0.0000000003     0.999992    0.00000278
  815      -16.4196227462      -0.0000000003     0.999992    0.00000277
  816      -16.4196227465      -0.0000000003     0.999992    0.00000276
  817      -16.4196227468      -0.0000000003     0.999992    0.00000275
  818      -16.4196227470      -0.0000000003     0.999992    0.00000274
  819      -16.4196227473      -0.0000000003     0.999992    0.00000273
  820      -16.4196227475      -0.0000000003     0.999992    0.00000271
  821      -16.4196227478      -0.0000000002     0.999992    0.00000270
  822      -16.4196227480      -0.0000000002     0.999992    0.00000269
  823      -16.4196227483      -0.0000000002     0.999992    0.00000268
  824      -16.4196227485      -0.0000000002     0.999992    0.00000267
  825      -16.4196227487      -0.0000000002     0.999992    0.00000266
  826      -16.4196227490      -0.0000000002     0.999992    0.00000265
  827      -16.4196227492      -0.0000000002     0.999992    0.00000263
  828      -16.4196227494      -0.0000000002     0.999992    0.00000262
  829      -16.4196227497      -0.0000000002     0.999992    0.00000261
  830      -16.4196227499      -0.0000000002     0.999992    0.00000260
  831      -16.4196227501      -0.0000000002     0.999992    0.00000259
  832      -16.4196227504      -0.0000000002     0.999992    0.00000258
  833      -16.4196227506      -0.0000000002     0.999992    0.00000257
  834      -16.4196227508      -0.0000000002     0.999992    0.00000256
  835      -16.4196227510      -0.0000000002     0.999992    0.00000255
  836      -16.4196227512      -0.0000000002     0.999992    0.00000254
  837      -16.4196227515      -0.0000000002     0.999992    0.00000252
  838      -16.4196227517      -0.0000000002     0.999992    0.00000251
  839      -16.4196227519      -0.0000000002     0.999992    0.00000250
  840      -16.4196227521      -0.0000000002     0.999992    0.00000249
  841      -16.4196227523      -0.0000000002     0.999992    0.00000248
  842      -16.4196227525      -0.0000000002     0.999992    0.00000247
  843      -16.4196227527      -0.0000000002     0.999992    0.00000246
  844      -16.4196227529      -0.0000000002     0.999992    0.00000245
  845      -16.4196227531      -0.0000000002     0.999992    0.00000244
  846      -16.4196227533      -0.0000000002     0.999992    0.00000243
  847      -16.4196227535      -0.0000000002     0.999992    0.00000242
  848      -16.4196227537      -0.0000000002     0.999992    0.00000241
  849      -16.4196227539      -0.0000000002     0.999992    0.00000240
  850      -16.4196227541      -0.0000000002     0.999992    0.00000239
  851      -16.4196227543      -0.0000000002     0.999992    0.00000238
  852      -16.4196227545      -0.0000000002     0.999992    0.00000237
  853      -16.4196227547      -0.0000000002     0.999992    0.00000236
  854      -16.4196227549      -0.0000000002     0.999992    0.00000235
  855      -16.4196227551      -0.0000000002     0.999992    0.00000234
  856      -16.4196227553      -0.0000000002     0.999992    0.00000233
  857      -16.4196227554      -0.0000000002     0.999992    0.00000232
  858      -16.4196227556      -0.0000000002     0.999992    0.00000231
  859      -16.4196227558      -0.0000000002     0.999992    0.00000230
  860      -16.4196227560      -0.0000000002     0.999992    0.00000229
  861      -16.4196227562      -0.0000000002     0.999992    0.00000228
  862      -16.4196227563      -0.0000000002     0.999992    0.00000227
  863      -16.4196227565      -0.0000000002     0.999992    0.00000226
  864      -16.4196227567      -0.0000000002     0.999992    0.00000225
  865      -16.4196227568      -0.0000000002     0.999992    0.00000224
  866      -16.4196227570      -0.0000000002     0.999992    0.00000223
  867      -16.4196227572      -0.0000000002     0.999992    0.00000222
  868      -16.4196227573      -0.0000000002     0.999992    0.00000221
  869      -16.4196227575      -0.0000000002     0.999992    0.00000221
  870      -16.4196227577      -0.0000000002     0.999992    0.00000220
  871      -16.4196227578      -0.0000000002     0.999992    0.00000219
  872      -16.4196227580      -0.0000000002     0.999992    0.00000218
  873      -16.4196227582      -0.0000000002     0.999992    0.00000217
  874      -16.4196227583      -0.0000000002     0.999992    0.00000216
  875      -16.4196227585      -0.0000000002     0.999992    0.00000215
  876      -16.4196227586      -0.0000000002     0.999992    0.00000214
  877      -16.4196227588      -0.0000000002     0.999992    0.00000213
  878      -16.4196227589      -0.0000000002     0.999992    0.00000212
  879      -16.4196227591      -0.0000000002     0.999992    0.00000211
  880      -16.4196227592      -0.0000000002     0.999992    0.00000211
  881      -16.4196227594      -0.0000000001     0.999992    0.00000210
  882      -16.4196227595      -0.0000000001     0.999992    0.00000209
  883      -16.4196227597      -0.0000000001     0.999992    0.00000208
  884      -16.4196227598      -0.0000000001     0.999992    0.00000207
  885      -16.4196227600      -0.0000000001     0.999992    0.00000206
  886      -16.4196227601      -0.0000000001     0.999992    0.00000205
  887      -16.4196227603      -0.0000000001     0.999992    0.00000204
  888      -16.4196227604      -0.0000000001     0.999992    0.00000204
  889      -16.4196227605      -0.0000000001     0.999992    0.00000203
  890      -16.4196227607      -0.0000000001     0.999992    0.00000202
  891      -16.4196227608      -0.0000000001     0.999992    0.00000201
  892      -16.4196227610      -0.0000000001     0.999992    0.00000200
  893      -16.4196227611      -0.0000000001     0.999992    0.00000199
  894      -16.4196227612      -0.0000000001     0.999992    0.00000198
  895      -16.4196227614      -0.0000000001     0.999992    0.00000198
  896      -16.4196227615      -0.0000000001     0.999992    0.00000197
  897      -16.4196227616      -0.0000000001     0.999992    0.00000196
  898      -16.4196227618      -0.0000000001     0.999992    0.00000195
  899      -16.4196227619      -0.0000000001     0.999992    0.00000194
  900      -16.4196227620      -0.0000000001     0.999992    0.00000194
  901      -16.4196227621      -0.0000000001     0.999992    0.00000193
  902      -16.4196227623      -0.0000000001     0.999992    0.00000192
  903      -16.4196227624      -0.0000000001     0.999992    0.00000191
  904      -16.4196227625      -0.0000000001     0.999992    0.00000190
  905      -16.4196227626      -0.0000000001     0.999992    0.00000189
  906      -16.4196227628      -0.0000000001     0.999992    0.00000189
  907      -16.4196227629      -0.0000000001     0.999992    0.00000188
  908      -16.4196227630      -0.0000000001     0.999992    0.00000187
  909      -16.4196227631      -0.0000000001     0.999992    0.00000186
  910      -16.4196227632      -0.0000000001     0.999992    0.00000186
  911      -16.4196227633      -0.0000000001     0.999992    0.00000185
  912      -16.4196227635      -0.0000000001     0.999992    0.00000184
  913      -16.4196227636      -0.0000000001     0.999992    0.00000183
  914      -16.4196227637      -0.0000000001     0.999992    0.00000182
  915      -16.4196227638      -0.0000000001     0.999992    0.00000182
  916      -16.4196227639      -0.0000000001     0.999992    0.00000181
  917      -16.4196227640      -0.0000000001     0.999992    0.00000180
  918      -16.4196227641      -0.0000000001     0.999992    0.00000179
  919      -16.4196227642      -0.0000000001     0.999992    0.00000179
  920      -16.4196227644      -0.0000000001     0.999992    0.00000178
  921      -16.4196227645      -0.0000000001     0.999992    0.00000177
  922      -16.4196227646      -0.0000000001     0.999992    0.00000176
  923      -16.4196227647      -0.0000000001     0.999992    0.00000176
  924      -16.4196227648      -0.0000000001     0.999992    0.00000175
  925      -16.4196227649      -0.0000000001     0.999992    0.00000174
  926      -16.4196227650      -0.0000000001     0.999992    0.00000173
  927      -16.4196227651      -0.0000000001     0.999992    0.00000173
  928      -16.4196227652      -0.0000000001     0.999992    0.00000172
  929      -16.4196227653      -0.0000000001     0.999992    0.00000171
  930      -16.4196227654      -0.0000000001     0.999992    0.00000171
  931      -16.4196227655      -0.0000000001     0.999992    0.00000170
  932      -16.4196227656      -0.0000000001     0.999992    0.00000169
  933      -16.4196227657      -0.0000000001     0.999992    0.00000168
  934      -16.4196227658      -0.0000000001     0.999992    0.00000168
  935      -16.4196227659      -0.0000000001     0.999992    0.00000167
  936      -16.4196227660      -0.0000000001     0.999992    0.00000166
  937      -16.4196227661      -0.0000000001     0.999992    0.00000166
  938      -16.4196227661      -0.0000000001     0.999992    0.00000165
  939      -16.4196227662      -0.0000000001     0.999992    0.00000164
  940      -16.4196227663      -0.0000000001     0.999992    0.00000164
  941      -16.4196227664      -0.0000000001     0.999992    0.00000163
  942      -16.4196227665      -0.0000000001     0.999992    0.00000162
  943      -16.4196227666      -0.0000000001     0.999992    0.00000162
  944      -16.4196227667      -0.0000000001     0.999992    0.00000161
  945      -16.4196227668      -0.0000000001     0.999992    0.00000160
  946      -16.4196227669      -0.0000000001     0.999992    0.00000160
  947      -16.4196227669      -0.0000000001     0.999992    0.00000159
  948      -16.4196227670      -0.0000000001     0.999992    0.00000158
  949      -16.4196227671      -0.0000000001     0.999992    0.00000158
  950      -16.4196227672      -0.0000000001     0.999992    0.00000157
  951      -16.4196227673      -0.0000000001     0.999992    0.00000156
  952      -16.4196227674      -0.0000000001     0.999992    0.00000156
  953      -16.4196227674      -0.0000000001     0.999992    0.00000155
  954      -16.4196227675      -0.0000000001     0.999992    0.00000154
  955      -16.4196227676      -0.0000000001     0.999992    0.00000154
  956      -16.4196227677      -0.0000000001     0.999992    0.00000153
  957      -16.4196227678      -0.0000000001     0.999992    0.00000152
  958      -16.4196227678      -0.0000000001     0.999992    0.00000152
  959      -16.4196227679      -0.0000000001     0.999992    0.00000151
  960      -16.4196227680      -0.0000000001     0.999992    0.00000150
  961      -16.4196227681      -0.0000000001     0.999992    0.00000150
  962      -16.4196227682      -0.0000000001     0.999992    0.00000149
  963      -16.4196227682      -0.0000000001     0.999992    0.00000149
  964      -16.4196227683      -0.0000000001     0.999992    0.00000148
  965      -16.4196227684      -0.0000000001     0.999992    0.00000147
  966      -16.4196227684      -0.0000000001     0.999992    0.00000147
  967      -16.4196227685      -0.0000000001     0.999992    0.00000146
  968      -16.4196227686      -0.0000000001     0.999992    0.00000145
  969      -16.4196227687      -0.0000000001     0.999992    0.00000145
  970      -16.4196227687      -0.0000000001     0.999992    0.00000144
  971      -16.4196227688      -0.0000000001     0.999992    0.00000144
  972      -16.4196227689      -0.0000000001     0.999992    0.00000143
  973      -16.4196227689      -0.0000000001     0.999992    0.00000142
  974      -16.4196227690      -0.0000000001     0.999992    0.00000142
  975      -16.4196227691      -0.0000000001     0.999992    0.00000141
  976      -16.4196227692      -0.0000000001     0.999992    0.00000141
  977      -16.4196227692      -0.0000000001     0.999992    0.00000140
  978      -16.4196227693      -0.0000000001     0.999992    0.00000140
  979      -16.4196227694      -0.0000000001     0.999992    0.00000139
  980      -16.4196227694      -0.0000000001     0.999992    0.00000138
  981      -16.4196227695      -0.0000000001     0.999992    0.00000138
  982      -16.4196227695      -0.0000000001     0.999992    0.00000137
  983      -16.4196227696      -0.0000000001     0.999992    0.00000137
  984      -16.4196227697      -0.0000000001     0.999992    0.00000136
  985      -16.4196227697      -0.0000000001     0.999992    0.00000135
  986      -16.4196227698      -0.0000000001     0.999992    0.00000135
  987      -16.4196227699      -0.0000000001     0.999992    0.00000134
  988      -16.4196227699      -0.0000000001     0.999992    0.00000134
  989      -16.4196227700      -0.0000000001     0.999992    0.00000133
  990      -16.4196227700      -0.0000000001     0.999992    0.00000133
  991      -16.4196227701      -0.0000000001     0.999992    0.00000132
  992      -16.4196227702      -0.0000000001     0.999992    0.00000132
  993      -16.4196227702      -0.0000000001     0.999992    0.00000131
  994      -16.4196227703      -0.0000000001     0.999992    0.00000130
  995      -16.4196227703      -0.0000000001     0.999992    0.00000130
  996      -16.4196227704      -0.0000000001     0.999992    0.00000129
  997      -16.4196227704      -0.0000000001     0.999992    0.00000129
  998      -16.4196227705      -0.0000000001     0.999992    0.00000128
  999      -16.4196227706      -0.0000000001     0.999992    0.00000128
 1000      -16.4196227706      -0.0000000001     0.999992    0.00000127

Total Energy:                      -16.4196227706 H         -446.8007 eV
Extrapolated to 0:                 -16.3886141484 H         -445.9569 eV

----------------------------------------------------------------------------------
 Solving CP-REKS equation for  1 state vector...
----------------------------------------------------------------------------------
  CG solver: Constructing Y initial guess
  CG solver: Iteration    1    eps =    0.080964696084
  CG solver: Iteration    2    eps =    0.006829943868
  CG solver: Iteration    3    eps =    0.002579946209
  CG solver: Iteration    4    eps =    0.007622460804
  CG solver: Iteration    5    eps =    0.006727190395
  CG solver: Iteration    6    eps =    0.017484986404
  CG solver: Iteration    7    eps =    0.015939781727
  CG solver: Iteration    8    eps =    0.004097911893
  CG solver: Iteration    9    eps =    0.002044264228
  CG solver: Iteration   10    eps =    0.000277677575
  CG solver: Iteration   11    eps =    0.000046019362
  CG solver: Iteration   12    eps =    0.000005135535
  CG solver: Iteration   13    eps =    0.000000389839
  CG solver: Iteration   14    eps =    0.000000066771
  CG solver: Iteration   15    eps =    0.000000010600
  CG solver: Iteration   16    eps =    0.000000001987
  Convergence reached in CG solver after   16 iterations
  CG solver: Calculating converged R, Z, Q2 matrix
----------------------------------------------------------------------------------

----------------------------------------------------------------------------------
 Solving CP-REKS equation for SI between  1 and  2 state vectors...
----------------------------------------------------------------------------------
  CG solver: Constructing Y initial guess
  CG solver: Iteration    1    eps =    0.041596816474
  CG solver: Iteration    2    eps =    0.001415994097
  CG solver: Iteration    3    eps =    0.000425652956
  CG solver: Iteration    4    eps =    0.000043401443
  CG solver: Iteration    5    eps =    0.000004628680
  CG solver: Iteration    6    eps =    0.000002667263
  CG solver: Iteration    7    eps =    0.000000178629
  CG solver: Iteration    8    eps =    0.000000024094
  CG solver: Iteration    9    eps =    0.000000149385
  CG solver: Iteration   10    eps =    0.000000332730
  CG solver: Iteration   11    eps =    0.000000569731
  CG solver: Iteration   12    eps =    0.000000104281
  CG solver: Iteration   13    eps =    0.000000007260
  Convergence reached in CG solver after   13 iterations
  CG solver: Calculating converged R, Z, Q2 matrix
----------------------------------------------------------------------------------

--------------------------------------------------
 Gradient Information
--------------------------------------------------
           1 st state (SSR)
     0.00000000     0.00000000     0.00000000
     0.00000000     0.00000000     0.00000000
     0.00000000     0.00000000     0.00000000
     0.00000000     0.00000000     0.00000000
     0.00000000     0.00000000     0.00000000
     0.00000000     0.00000000     0.00000000
     0.00000000     0.00000000     0.00000000
     0.00000000     0.00000000     0.00000000
     0.00000000     0.00000000     0.00000000
     0.00000000     0.00000000     0.00000000
     0.00000000     0.00000000     0.00000000
     0.00000000     0.00000000     0.00000000
     0.00000000     0.00000000     0.00000000
     0.00000000     0.00000000     0.00000000

           2 st state (SSR)
     0.00000000     0.00000000     0.00000000
     0.00000000     0.00000000     0.00000000
     0.00000000     0.00000000     0.00000000
     0.00000000     0.00000000     0.00000000
     0.00000000     0.00000000     0.00000000
     0.00000000     0.00000000     0.00000000
     0.00000000     0.00000000     0.00000000
     0.00000000     0.00000000     0.00000000
     0.00000000     0.00000000     0.00000000
     0.00000000     0.00000000     0.00000000
     0.00000000     0.00000000     0.00000000
     0.00000000     0.00000000     0.00000000
     0.00000000     0.00000000     0.00000000
     0.00000000     0.00000000     0.00000000
--------------------------------------------------
 Coupling Information
--------------------------------------------------
 between  1 and  2 states
--------------------------------------------------
 g vector - difference gradient
     0.04448589     0.08755839     0.30003184
     0.07336958    -0.43776143    -0.37537316
     0.03702678    -0.05237743     0.01628957
    -0.05832772     0.05729342    -0.04180630
     0.05738525     0.10147904    -0.21646716
    -0.09630158     0.29945524     0.15250281
    -0.01299294    -0.01735840     0.48271859
     0.01086109     0.01934614     0.11689502
     0.11677929    -0.14357433    -0.16579575
    -0.20395982    -0.02887987    -0.33467643
    -0.00172571    -0.02683200     0.03634526
     0.02448153     0.10840799     0.04698505
     0.01712230     0.00531688     0.00618857
    -0.00820394     0.02792637    -0.02383792

 h vector - derivative coupling
    -0.00006208     0.00210374     0.00353207
    -0.00367497    -0.01242469     0.00017481
    -0.00017851     0.00056378    -0.00102641
    -0.00038277    -0.00083261     0.00032459
     0.00020101     0.00294911    -0.00409176
     0.03304695     0.02085418     0.00174663
    -0.02523681    -0.02177784    -0.00034184
    -0.00663441     0.00546306    -0.00306674
     0.00304498    -0.00573124    -0.00047989
    -0.01402733     0.00885685     0.00576711
     0.00130012    -0.00175022    -0.00006421
     0.01355935     0.00199424    -0.00269069
     0.00003388    -0.00208294    -0.00007865
    -0.00098940     0.00181458     0.00029499

 G vector - GDV
     0.00000000     0.00000000     0.00000000
     0.00000000     0.00000000     0.00000000
     0.00000000     0.00000000     0.00000000
     0.00000000     0.00000000     0.00000000
     0.00000000     0.00000000     0.00000000
     0.00000000     0.00000000     0.00000000
     0.00000000     0.00000000     0.00000000
     0.00000000     0.00000000     0.00000000
     0.00000000     0.00000000     0.00000000
     0.00000000     0.00000000     0.00000000
     0.00000000     0.00000000     0.00000000
     0.00000000     0.00000000     0.00000000
     0.00000000     0.00000000     0.00000000
     0.00000000     0.00000000     0.00000000

 H vector - DCV - non-adiabatic coupling
     0.00000000     0.00000000     0.00000000
     0.00000000     0.00000000     0.00000000
     0.00000000     0.00000000     0.00000000
     0.00000000     0.00000000     0.00000000
     0.00000000     0.00000000     0.00000000
     0.00000000     0.00000000     0.00000000
     0.00000000     0.00000000     0.00000000
     0.00000000     0.00000000     0.00000000
     0.00000000     0.00000000     0.00000000
     0.00000000     0.00000000     0.00000000
     0.00000000     0.00000000     0.00000000
     0.00000000     0.00000000     0.00000000
     0.00000000     0.00000000     0.00000000
     0.00000000     0.00000000     0.00000000
--------------------------------------------------

WARNING!
-> SCC is NOT converged, maximal SCC iterations exceeded

--------------------------------------------------------------------------------
DFTB+ running times                          cpu [s]             wall clock [s]
--------------------------------------------------------------------------------
SCC                                    +     1.39  ( 79.2%)      1.40  ( 79.1%)
      Sparse to dense                        0.07  (  3.9%)      0.06  (  3.4%)
      Dense to sparse                        0.24  ( 13.8%)      0.24  ( 13.5%)
      Range separated Hamiltonian            0.13  (  7.2%)      0.13  (  7.3%)
  Density matrix creation                    0.15  (  8.6%)      0.15  (  8.5%)
  Force calculation                          0.36  ( 20.7%)      0.37  ( 20.7%)
--------------------------------------------------------------------------------
Missing                                +     0.37  ( 20.8%)      0.37  ( 20.9%)
Total                                  =     1.76  (100.0%)      1.77  (100.0%)
--------------------------------------------------------------------------------
