|===============================================================================
|
|  DFTB+ release 20.1
|
|  Copyright (C) 2006 - 2020  DFTB+ developers group
|
|===============================================================================
|
|  When publishing results obtained with DFTB+, please cite the following
|  reference:
|
|  * DFTB+, a software package for efficient approximate density functional
|    theory based atomistic simulations, J. Chem. Phys. 152, 124101 (2020).
|    [doi: 10.1063/1.5143190]
|
|  You should also cite additional publications crediting the parametrization
|  data you use. Please consult the documentation of the SK-files for the
|  references.
|
|===============================================================================

Reading input file 'dftb_in.hsd'
Parser version: 8

--------------------------------------------------------------------------------
Reading SK-files:
Done.


Processed input in HSD format written to 'dftb_pin.hsd'

Starting initialization...
--------------------------------------------------------------------------------
WARNING!
-> Excited state forces are not implemented yet for fractional occupations, kT=  0.3158E-02K
OpenMP threads:              1
Chosen random seed:          506122466
Mode:                        Static calculation
Self consistent charges:     Yes
SCC-tolerance:                 0.100000E-05
Max. scc iterations:                    100
Shell resolved Hubbard:      No
Spin polarisation:           No
Nr. of up electrons:             6.000000
Nr. of down electrons:           6.000000
Periodic boundaries:         No
Electronic solver:           Relatively robust
Mixer:                       Broyden mixer
Mixing parameter:                  0.200000
Maximal SCC-cycles:                     100
Nr. of chrg. vec. in memory:              0
Electronic temperature:        0.100000E-07 H      0.272114E-06 eV
Initial charges:             Set automatically (system chrg:   0.100E+01)
Included shells:             C:  s, p
                             N:  s, p
                             H:  s
Extra options:
                             Mulliken analysis
                             Force calculation
Force type                   original
                             Eigenvector printing

--------------------------------------------------------------------------------

***  Geometry step: 0

 iSCC Total electronic   Diff electronic      SCC error    
    1   -0.52006212E+01    0.00000000E+00    0.11454096E+01
    2   -0.52331761E+01   -0.32554821E-01    0.68662955E+00
    3   -0.52410716E+01   -0.78955885E-02    0.35534947E+00
    4   -0.47730716E+01    0.46799999E+00    0.21163926E+01
    5   -0.52308627E+01   -0.45779102E+00    0.39913998E+00
    6   -0.52489787E+01   -0.18116030E-01    0.16561703E-01
    7   -0.52489995E+01   -0.20772993E-04    0.52376286E-02
    8   -0.52489888E+01    0.10634017E-04    0.11949918E-01
    9   -0.52490033E+01   -0.14446326E-04    0.11211269E-02
   10   -0.52490030E+01    0.25712338E-06    0.20162850E-02
   11   -0.52490034E+01   -0.40156636E-06    0.40848318E-03
   12   -0.52490034E+01   -0.14910999E-07    0.13983517E-03
   13   -0.52490034E+01   -0.19159456E-08    0.19937707E-05
   14   -0.52490034E+01   -0.40500936E-12    0.12163977E-07
>> Charges saved for restart in charges.bin

Total Energy:                       -5.0285992291 H         -136.8351 eV
Extrapolated to 0:                  -5.1200755003 H         -139.3243 eV
Total Mermin free energy:           -5.0285992291 H         -136.8351 eV
Force related energy:               -5.1200755003 H         -139.3243 eV

--------------------------------------------------------------------------------
DFTB+ running times                          cpu [s]             wall clock [s]
--------------------------------------------------------------------------------
SCC                                    +     0.02  ( 62.3%)      0.09  ( 82.7%)
Post-SCC processing                    +     0.01  ( 32.0%)      0.01  ( 13.6%)
--------------------------------------------------------------------------------
Missing                                +     0.00  (  5.7%)      0.00  (  3.6%)
Total                                  =     0.03  (100.0%)      0.11  (100.0%)
--------------------------------------------------------------------------------
