     6
  Step:     0            Position(A)                                  Velocity(au)
C        -0.02952388     0.01872086    -0.00301579    -0.00003439    -0.00015241     0.00008344
N        -0.03812036    -0.06183461     1.31194170     0.00011957     0.00009944    -0.00011245
H         0.89083496    -0.01096861    -0.50002376     0.00016396     0.00071385     0.00040749
H         0.79419136    -0.09969597     1.83456391    -0.00147785    -0.00048719    -0.00033538
H        -0.98531418    -0.00526602     1.86867115     0.00012235    -0.00014285     0.00070041
H        -1.03110804     0.08234946    -0.50643725    -0.00006027     0.00035036    -0.00020408
     6
  Step:     1            Position(A)                                  Velocity(au)
C        -0.03014774     0.01715237    -0.00357665    -0.00007751    -0.00014124    -0.00005937
N        -0.03716902    -0.06082134     1.31206277     0.00005092     0.00009244     0.00002743
H         0.89431017    -0.00256123    -0.49673545     0.00053165     0.00076803     0.00010397
H         0.77986360    -0.10567471     1.83224194    -0.00102034    -0.00056069     0.00001632
H        -0.98086820    -0.00631703     1.87479689     0.00062242    -0.00010389     0.00045577
H        -1.03048777     0.08558013    -0.50852777     0.00008235     0.00029482    -0.00024961
     6
  Step:     2            Position(A)                                  Velocity(au)
C        -0.03121959     0.01563098    -0.00431471    -0.00011596    -0.00013748    -0.00007611
N        -0.03700649    -0.05981222     1.31254170    -0.00002190     0.00009260     0.00005772
H         0.90246574     0.00583356    -0.49774925     0.00092802     0.00077156    -0.00027052
H         0.77186945    -0.11196203     1.83492103    -0.00041079    -0.00059594     0.00048964
H        -0.97169755    -0.00753874     1.87864190     0.00103422    -0.00011796     0.00025191
H        -1.02930637     0.08879925    -0.51189786     0.00013468     0.00029361    -0.00036619
     6
  Step:     3            Position(A)                                  Velocity(au)
C        -0.03268458     0.01414480    -0.00524167    -0.00014753    -0.00013476    -0.00009441
N        -0.03764816    -0.05879553     1.31332558    -0.00009134     0.00009354     0.00008461
H         0.91461228     0.01431804    -0.50265362     0.00124096     0.00078356    -0.00059554
H         0.77087672    -0.11871201     1.84295370     0.00020787    -0.00064181     0.00095929
H        -0.95824271    -0.00889770     1.88030791     0.00139013    -0.00012811     0.00006759
H        -1.02754129     0.09200350    -0.51653894     0.00018835     0.00029210    -0.00048196
     6
  Step:     4            Position(A)                                  Velocity(au)
C        -0.03444718     0.01268294    -0.00638020    -0.00016937    -0.00013294    -0.00011485
N        -0.03900471    -0.05776579     1.31439262    -0.00014830     0.00009463     0.00011055
H         0.92961401     0.02297540    -0.51077782     0.00143974     0.00080172    -0.00085300
H         0.77641699    -0.12600283     1.85590739     0.00073919    -0.00069037     0.00135774
H        -0.94128575    -0.01034133     1.88012057     0.00165820    -0.00013260    -0.00007563
H        -1.02518595     0.09518958    -0.52244162     0.00024195     0.00029031    -0.00059670
     6
  Step:     5            Position(A)                                  Velocity(au)
C        -0.03638996     0.01123648    -0.00775429    -0.00018032    -0.00013184    -0.00013712
N        -0.04089248    -0.05672538     1.31574408    -0.00018549     0.00009518     0.00013676
H         0.94610932     0.03185722    -0.52131457     0.00151336     0.00082306    -0.00103564
H         0.78704793    -0.13381527     1.87265692     0.00111240    -0.00073315     0.00163383
H        -0.92196641    -0.01179865     1.87865337     0.00180623    -0.00012987    -0.00015472
H        -1.02224807     0.09835459    -0.52959289     0.00029437     0.00028826    -0.00070991
     6
  Step:     6            Position(A)                                  Velocity(au)
C        -0.03839204     0.00979872    -0.00937992    -0.00018070    -0.00013126    -0.00016019
N        -0.04306267    -0.05568363     1.31738443    -0.00019865     0.00009467     0.00016260
H         0.96272163     0.04098144    -0.53343437     0.00146737     0.00084475    -0.00114513
H         0.80075292    -0.14204196     1.89165062     0.00129557    -0.00076355     0.00176301
H        -0.90177096    -0.01318259     1.87673577     0.00180588    -0.00011869    -0.00014782
H        -1.01874604     0.10149579    -0.53797232     0.00034486     0.00028592    -0.00082071
     6
  Step:     7            Position(A)                                  Velocity(au)
C        -0.04034301     0.00836489    -0.01125873    -0.00017182    -0.00013105    -0.00018265
N        -0.04523831    -0.05465427     1.31930125    -0.00018684     0.00009286     0.00018610
H         0.97821079     0.05033783    -0.54636654     0.00131783     0.00086456    -0.00118880
H         0.81539101    -0.15051938     1.91122625     0.00129271    -0.00077815     0.00174650
H        -0.88245941    -0.01439529     1.87541945     0.00164008    -0.00009848    -0.00003953
H        -1.01470366     0.10460964    -0.54754753     0.00039317     0.00028320    -0.00092780
     6
  Step:     8            Position(A)                                  Velocity(au)
C        -0.04215087     0.00693168    -0.01337577    -0.00015550    -0.00013110    -0.00020309
N        -0.04715017    -0.05365216     1.32145583    -0.00015225     0.00008977     0.00020513
H         0.99155164     0.05989535    -0.55944162     0.00108534     0.00088105    -0.00117640
H         0.82903349    -0.15906550     1.92985873     0.00113150    -0.00077663     0.00160329
H        -0.86589115    -0.01533697     1.87587099     0.00131234    -0.00006968     0.00017204
H        -1.01014479     0.10769133    -0.55826981     0.00043954     0.00027985    -0.00102946
     6
  Step:     9            Position(A)                                  Velocity(au)
C        -0.04374485     0.00549689    -0.01570162    -0.00013367    -0.00013130    -0.00022033
N        -0.04856916    -0.05269040     1.32378889    -0.00009976     0.00008566     0.00021858
H         1.00195468     0.06961251    -0.57210262     0.00079088     0.00089353    -0.00111799
H         0.84014480    -0.16750958     1.94630122     0.00084972    -0.00076085     0.00136064
H        -0.85374950    -0.01591972     1.87918313     0.00085393    -0.00003401     0.00046899
H        -1.00508791     0.11073193    -0.57006887     0.00048459     0.00027547    -0.00112355
     6
  Step:    10            Position(A)                                  Velocity(au)
C        -0.04507515     0.00405922    -0.01819587    -0.00010818    -0.00013159    -0.00023356
N        -0.04933262    -0.05177821     1.32623760    -0.00003621     0.00008094     0.00022700
H         1.00885372     0.07944302    -0.58389973     0.00045400     0.00090178    -0.00102294
H         0.84762284    -0.17571050     1.95962524     0.00048560    -0.00073396     0.00104699
H        -0.84720984    -0.01608099     1.88613114     0.00032357     0.00000583     0.00081247
H        -0.99954352     0.11371769    -0.58284964     0.00052908     0.00026956    -0.00120772
     6
  Step:    11            Position(A)                                  Velocity(au)
C        -0.04611158     0.00261813    -0.02081130    -0.00008072    -0.00013190    -0.00024232
N        -0.04936122    -0.05091978     1.32875489     0.00003064     0.00007608     0.00023233
H         1.01188680     0.08934058    -0.59448130     0.00009227     0.00090606    -0.00089971
H         0.85076814    -0.18356638     1.96920616     0.00007380    -0.00069971     0.00068879
H        -0.84667082    -0.01579223     1.89695745    -0.00020364     0.00004658     0.00114949
H        -0.99351334     0.11662915    -0.59649010     0.00057361     0.00026152    -0.00127953
     6
  Step:    12            Position(A)                                  Velocity(au)
C        -0.04684105     0.00117358    -0.02349701    -0.00005274    -0.00013221    -0.00024635
N        -0.04866227    -0.05011384     1.33132017     0.00009341     0.00007158     0.00023689
H         1.01087240     0.09926487    -0.60358258    -0.00027858     0.00090709    -0.00075591
H         0.84923740    -0.19101802     1.97469374    -0.00035476    -0.00066226     0.00031002
H        -0.85166490    -0.01506207     1.91127851    -0.00065459     0.00008521     0.00142612
H        -0.98699479     0.11943896    -0.61084180     0.00061832     0.00025060    -0.00133665
     6
  Step:    13            Position(A)                                  Velocity(au)
C        -0.04726531    -0.00027417    -0.02620058    -0.00002549    -0.00013249    -0.00024555
N        -0.04731777    -0.04935393     1.33393736     0.00014622     0.00006789     0.00024230
H         1.00579228     0.10918502    -0.61101820    -0.00064419     0.00090593    -0.00059859
H         0.84300710    -0.19805451     1.97598853    -0.00077117    -0.00062643    -0.00006651
H        -0.86099115    -0.01392803     1.92815649    -0.00097563     0.00011970     0.00160101
H        -0.97998641     0.12211161    -0.62573179     0.00066276     0.00023605    -0.00137701
     6
  Step:    14            Position(A)                                  Velocity(au)
C        -0.04739869    -0.00172489    -0.02886888    -0.00000005    -0.00013277    -0.00023987
N        -0.04546338    -0.04862864     1.33662105     0.00018517     0.00006548     0.00024869
H         0.99677946     0.11908393    -0.61667781    -0.00099095     0.00090408    -0.00043460
H         0.83236663    -0.20472246     1.97323874    -0.00114577    -0.00059820    -0.00041735
H        -0.87300867    -0.01244339     1.94630361    -0.00114155     0.00014924     0.00165341
H        -0.97249574     0.12460295    -0.64096663     0.00070570     0.00021704    -0.00139901
     6
  Step:    15            Position(A)                                  Velocity(au)
C        -0.04726642    -0.00317883    -0.03144823     0.00002264    -0.00013312    -0.00022924
N        -0.04326687    -0.04792152     1.33937802     0.00020802     0.00006483     0.00025460
H         0.98411341     0.12896350    -0.62052599    -0.00130539     0.00090356    -0.00027099
H         0.81794115    -0.21114130     1.96685822    -0.00144621    -0.00058517    -0.00071695
H        -0.88596479    -0.01066315     1.96432807    -0.00115403     0.00017418     0.00158320
H        -0.96454785     0.12685975    -0.65633784     0.00074520     0.00019273    -0.00140155
     6
  Step:    16            Position(A)                                  Velocity(au)
C        -0.04690350    -0.00463716    -0.03388397     0.00004170    -0.00013365    -0.00021356
N        -0.04091262    -0.04721038     1.34219090     0.00021364     0.00006653     0.00025738
H         0.96822164     0.13885106    -0.62260621    -0.00157374     0.00090708    -0.00011526
H         0.80072806    -0.21752422     1.95755403    -0.00163728    -0.00059699    -0.00093767
H        -0.89825518    -0.00863296     1.98093920    -0.00103335     0.00019570     0.00140528
H        -0.95619298     0.12881918    -0.67162826     0.00077870     0.00016218    -0.00138415
     6
  Step:    17            Position(A)                                  Velocity(au)
C        -0.04635417    -0.00610265    -0.03612027     0.00005630    -0.00013453    -0.00019272
N        -0.03859319    -0.04646610     1.34500872     0.00020153     0.00007124     0.00025394
H         0.94968488     0.14880771    -0.62304756    -0.00178171     0.00091821     0.00002438
H         0.78212251    -0.22420158     1.94634483    -0.00168420    -0.00064510    -0.00105229
H        -0.90857126    -0.00638188     1.99507119    -0.00080883     0.00021551     0.00114240
H        -0.94751223     0.13040775    -0.68661866     0.00080324     0.00012434    -0.00134689
     6
  Step:    18            Position(A)                                  Velocity(au)
C        -0.04567182    -0.00758027    -0.03810003     0.00006562    -0.00013600    -0.00016665
N        -0.03650366    -0.04565183     1.34774640     0.00017192     0.00007965     0.00024161
H         0.92924332     0.15893859    -0.62207286    -0.00191481     0.00094147     0.00013919
H         0.76388288    -0.23163693     1.93453321    -0.00156044    -0.00074136    -0.00103999
H        -0.91594977    -0.00391823     2.00593146    -0.00051157     0.00023565     0.00081958
H        -0.93862058     0.13153939    -0.70109412     0.00081571     0.00007791    -0.00129044
     6
  Step:    19            Position(A)                                  Velocity(au)
C        -0.04491856    -0.00907784    -0.03976595     0.00006893    -0.00013833    -0.00013544
N        -0.03483201    -0.04472371     1.35029436     0.00012629     0.00009221     0.00021901
H         0.90779467     0.16940417    -0.62000256    -0.00195945     0.00098243     0.00022048
H         0.74798500    -0.24042031     1.92359309    -0.00125928    -0.00089520    -0.00089515
H        -0.91976286    -0.00122663     2.01300101    -0.00017081     0.00025844     0.00046097
H        -0.92966697     0.13211210    -0.71484942     0.00081318     0.00002117    -0.00121584
     6
  Step:    20            Position(A)                                  Velocity(au)
C        -0.04416388    -0.01060640    -0.04106301     0.00006902    -0.00013624    -0.00016282
N        -0.03374079    -0.04363460     1.35253777     0.00006763     0.00010718     0.00023512
H         0.88637653     0.18043118    -0.61724946    -0.00195955     0.00113084     0.00033818
H         0.73633375    -0.25122123     1.91494999    -0.00084095    -0.00122188    -0.00067133
H        -0.91968665     0.00173555     2.01601600     0.00022465     0.00039608     0.00007603
H        -0.92083070     0.13200248    -0.72769300     0.00081359    -0.00017121    -0.00106987
     6
  Step:    21            Position(A)                                  Velocity(au)
C        -0.04340852    -0.01205829    -0.04332800     0.00006557    -0.00012925    -0.00025446
N        -0.03335257    -0.04237883     1.35543798     0.00000134     0.00012315     0.00029771
H         0.86492568     0.19414350    -0.61260418    -0.00190569     0.00137940     0.00048737
H         0.72958755    -0.26715127     1.90890637    -0.00036079    -0.00169828    -0.00041841
H        -0.91484813     0.00743841     2.01466436     0.00065204     0.00064129    -0.00032141
H        -0.91186806     0.12836646    -0.73825497     0.00081453    -0.00049359    -0.00085236
     6
  Step:    22            Position(A)                                  Velocity(au)
C        -0.04272952    -0.01343409    -0.04662979     0.00005504    -0.00012283    -0.00034683
N        -0.03371148    -0.04094054     1.35905064    -0.00006448     0.00013986     0.00036228
H         0.84468592     0.21060821    -0.60658724    -0.00173399     0.00164090     0.00058303
H         0.72844077    -0.28837443     1.90579641     0.00014003    -0.00218221    -0.00016114
H        -0.90542197     0.01576509     2.00898464     0.00104467     0.00087904    -0.00069730
H        -0.90301124     0.12120416    -0.74634005     0.00078951    -0.00081778    -0.00062596
     6
  Step:    23            Position(A)                                  Velocity(au)
C        -0.04220451    -0.01474536    -0.05091567     0.00003797    -0.00011774    -0.00043094
N        -0.03476320    -0.03931911     1.36336350    -0.00012076     0.00015549     0.00042391
H         0.82699128     0.23004131    -0.59984939    -0.00144412     0.00192661     0.00061816
H         0.73265106    -0.31489125     1.90538105     0.00057701    -0.00265347     0.00004893
H        -0.89199392     0.02666913     1.99940952     0.00136273     0.00111571    -0.00101508
H        -0.89459608     0.11047590    -0.75194897     0.00073006    -0.00114669    -0.00040755
     6
  Step:    24            Position(A)                                  Velocity(au)
C        -0.04189879    -0.01600989    -0.05605751     0.00001624    -0.00011426    -0.00050140
N        -0.03635342    -0.03753890     1.36832440    -0.00015905     0.00016757     0.00047904
H         0.81309293     0.25275643    -0.59306388    -0.00105360     0.00224208     0.00059686
H         0.74106405    -0.34642427     1.90686689     0.00087810    -0.00308556     0.00017006
H        -0.87560960     0.04017347     1.98677777     0.00156226     0.00135845    -0.00123695
H        -0.88703984     0.09611803    -0.75525597     0.00062994    -0.00148220    -0.00021210
     6
  Step:    25            Position(A)                                  Velocity(au)
C        -0.04184926    -0.01724499    -0.06188467    -0.00000689    -0.00011195    -0.00055554
N        -0.03824270    -0.03565316     1.37384333    -0.00017285     0.00017354     0.00052401
H         0.80394171     0.27909104    -0.58679184    -0.00059984     0.00258488     0.00053524
H         0.75186124    -0.38239378     1.90910135     0.00099908    -0.00345322     0.00018156
H        -0.85781652     0.05638787     1.97234878     0.00159902     0.00161625    -0.00132647
H        -0.88081504     0.07804994    -0.75658900     0.00048588    -0.00182564    -0.00005222
     6
  Step:    26            Position(A)                                  Velocity(au)
C        -0.04204950    -0.01845903    -0.06821109    -0.00002713    -0.00010958    -0.00059290
N        -0.04013495    -0.03374228     1.37978813    -0.00015877     0.00017121     0.00055516
H         0.79997026     0.30930554    -0.58135450    -0.00013640     0.00294297     0.00045845
H         0.76292084    -0.42196997     1.91083893     0.00092773    -0.00373839     0.00008544
H        -0.84062790     0.07553199     1.95775874     0.00143944     0.00189983    -0.00125667
H        -0.87641036     0.05617870    -0.75639832     0.00029884    -0.00217802     0.00006311
     6
  Step:    27            Position(A)                                  Velocity(au)
C        -0.04244271    -0.01964216    -0.07485538    -0.00004013    -0.00010518    -0.00061444
N        -0.04171616    -0.03190759     1.38598851    -0.00011730     0.00015911     0.00056994
H         0.80095777     0.34347424    -0.57676230     0.00027726     0.00329573     0.00039397
H         0.77215703    -0.46417831     1.91097043     0.00067799    -0.00393279    -0.00009972
H        -0.82632607     0.09795024     1.94485671     0.00107769     0.00221928    -0.00102261
H        -0.87427737     0.03040158    -0.75520827     0.00007528    -0.00254004     0.00013010
     6
  Step:    28            Position(A)                                  Velocity(au)
C        -0.04292753    -0.02075995    -0.08165319    -0.00004271    -0.00009649    -0.00062192
N        -0.04270101    -0.03026154     1.39225660    -0.00005328     0.00013685     0.00056820
H         0.80603587     0.38140586    -0.57273574     0.00058890     0.00361801     0.00036353
H         0.77775312    -0.50800732     1.90865734     0.00027968    -0.00403684    -0.00034730
H        -0.81705141     0.12408307     1.93538725     0.00055248     0.00257850    -0.00065272
H        -0.87476337     0.00061054    -0.75355206    -0.00017169    -0.00291168     0.00015158
     6
  Step:    29            Position(A)                                  Velocity(au)
C        -0.04337704    -0.02175308    -0.08846114    -0.00003370    -0.00008150    -0.00061727
N        -0.04288186    -0.02891376     1.39841887     0.00002442     0.00010546     0.00055266
H         0.81384100     0.42262503    -0.56880940     0.00076399     0.00388587     0.00037788
H         0.77827557    -0.55249189     1.90337251    -0.00023120    -0.00405720    -0.00062986
H        -0.81423949     0.15435987     1.93057711    -0.00004877     0.00296848    -0.00021013
H        -0.87803332    -0.03329694    -0.75189210    -0.00042187    -0.00329159     0.00013757
     6
  Step:    30            Position(A)                                  Velocity(au)
C        -0.04366471    -0.02254290    -0.09515714    -0.00001423    -0.00005891    -0.00060230
N        -0.04216672    -0.02795444     1.40434718     0.00010478     0.00006745     0.00052804
H         0.82274959     0.46641677    -0.56446879     0.00078965     0.00408137     0.00043606
H         0.77269510    -0.59676643     1.89487793    -0.00081890    -0.00400426    -0.00092316
H        -0.81811842     0.18902435     1.93079015    -0.00060807     0.00336363     0.00022206
H        -0.88399259    -0.07139934    -0.75054238    -0.00064916    -0.00367608     0.00010430
     6
  Step:    31            Position(A)                                  Velocity(au)
C        -0.04368837    -0.02304195    -0.10163769     0.00001277    -0.00002845    -0.00057860
N        -0.04058964    -0.02743822     1.40997085     0.00017732     0.00002644     0.00049910
H         0.83111619     0.51191276    -0.55926982     0.00067187     0.00419464     0.00052847
H         0.76036058    -0.64009274     1.88317662    -0.00145077    -0.00389046    -0.00120742
H        -0.82754210     0.22794566     1.93543515    -0.00101261     0.00372550     0.00056653
H        -0.89223492    -0.11371829    -0.74961027    -0.00082469    -0.00405816     0.00007143
     6
  Step:    32            Position(A)                                  Velocity(au)
C        -0.04338545    -0.02316533    -0.10781504     0.00004349     0.00000922    -0.00054739
N        -0.03828756    -0.02737603     1.41526590     0.00023466    -0.00001369     0.00046890
H         0.83744810     0.55818258    -0.55290747     0.00042898     0.00422327     0.00064154
H         0.74095668    -0.68187772     1.86846339    -0.00209810    -0.00372978    -0.00146692
H        -0.84027111     0.27052672     1.94318398    -0.00118865     0.00401402     0.00077413
H        -0.90203430    -0.16017939    -0.74897980    -0.00092137    -0.00442726     0.00005803
     6
  Step:    33            Position(A)                                  Velocity(au)
C        -0.04273694    -0.02284027    -0.11361294     0.00007420     0.00005270    -0.00050949
N        -0.03545605    -0.02773765     1.42022900     0.00027347    -0.00004960     0.00043815
H         0.84050085     0.60430488    -0.54523489     0.00008500     0.00417024     0.00076143
H         0.71446070    -0.72168891     1.85108487    -0.00273579    -0.00353800    -0.00168911
H        -0.85354616     0.31575996     1.95237073    -0.00111517     0.00419898     0.00083136
H        -0.91239158    -0.21057308    -0.74834072    -0.00091845    -0.00477001     0.00007882
     6
  Step:    34            Position(A)                                  Velocity(au)
C        -0.04176224    -0.02201250    -0.11896119     0.00010183     0.00010016    -0.00046518
N        -0.03230487    -0.02846110     1.42485131     0.00029385    -0.00007887     0.00040558
H         0.83930768     0.64941462    -0.53624982    -0.00033509     0.00404173     0.00087620
H         0.68110600    -0.75927821     1.83151086    -0.00334203    -0.00333323    -0.00186374
H        -0.86466755     0.36238741     1.96137166    -0.00081519     0.00426566     0.00075285
H        -0.92212719    -0.26453250    -0.74725544    -0.00080459    -0.00507180     0.00014181
     6
  Step:    35            Position(A)                                  Velocity(au)
C        -0.04050918    -0.02064907    -0.12378966     0.00012430     0.00014968    -0.00041412
N        -0.02902755    -0.02946303     1.42910179     0.00029794    -0.00009984     0.00036885
H         0.83317014     0.69272555    -0.52606635    -0.00080760     0.00384533     0.00097638
H         0.64134747    -0.79460977     1.81031206    -0.00389847    -0.00313604    -0.00198271
H        -0.87137995     0.40907937     1.96884072    -0.00033662     0.00421313     0.00056757
H        -0.92999344    -0.32152852    -0.74523831    -0.00057882    -0.00531869     0.00024787
     6
  Step:    36            Position(A)                                  Velocity(au)
C        -0.03904287    -0.01873787    -0.12802085     0.00014040     0.00019941    -0.00035532
N        -0.02578685    -0.03064540     1.43292055     0.00028882    -0.00011135     0.00032538
H         0.82163980     0.73353859    -0.51488973    -0.00131036     0.00358883     0.00105453
H         0.59581945    -0.82788504     1.78813536    -0.00439159    -0.00296777    -0.00204078
H        -0.87203184     0.45455772     1.97378824     0.00026504     0.00404850     0.00030688
H        -0.93479006    -0.38088903    -0.74183272    -0.00024964    -0.00549855     0.00039183
     6
  Step:    37            Position(A)                                  Velocity(au)
C        -0.03743774    -0.01628658    -0.13156306     0.00014943     0.00024756    -0.00028701
N        -0.02270904    -0.03189894     1.43622021     0.00027004    -0.00011241     0.00027280
H         0.80450358     0.77123808    -0.50299642    -0.00182112     0.00327868     0.00110443
H         0.54527295    -0.85953534     1.76566610    -0.00481416    -0.00284626    -0.00203702
H        -0.86558170     0.49764816     1.97555441     0.00093538     0.00377988    -0.00000255
H        -0.93545478    -0.44181984    -0.73666631     0.00016675    -0.00560038     0.00056428
     6
  Step:    38            Position(A)                                  Velocity(au)
C        -0.03577383    -0.01332193    -0.13429981     0.00017017     0.00030383    -0.00030071
N        -0.01987927    -0.03310447     1.43888867     0.00022231    -0.00013827     0.00026073
H         0.78179941     0.80526607    -0.49072812    -0.00273543     0.00334855     0.00124720
H         0.49050041    -0.89015233     1.74357155    -0.00547491    -0.00305391    -0.00192433
H        -0.85156870     0.53724984     1.97373244     0.00213380     0.00402796    -0.00019263
H        -0.93114219    -0.50340809    -0.72948809     0.00095952    -0.00602171     0.00082994
     6
  Step:    39            Position(A)                                  Velocity(au)
C        -0.03386837    -0.00981477    -0.13735076     0.00017660     0.00033676    -0.00026174
N        -0.01770421    -0.03459083     1.44145477     0.00017289    -0.00013236     0.00021023
H         0.74989371     0.83888215    -0.47680049    -0.00312909     0.00284193     0.00129027
H         0.43078558    -0.92210067     1.72339419    -0.00546466    -0.00285837    -0.00174106
H        -0.82527225     0.57868232     1.97000327     0.00272345     0.00358384    -0.00047650
H        -0.91874930    -0.56764603    -0.71881248     0.00136339    -0.00574103     0.00112489
     6
  Step:    40            Position(A)                                  Velocity(au)
C        -0.03191042    -0.00595458    -0.14002583     0.00017778     0.00036793    -0.00021874
N        -0.01609697    -0.03600018     1.44348775     0.00012316    -0.00012342     0.00015558
H         0.71334462     0.86743880    -0.46250097    -0.00356823     0.00241798     0.00130192
H         0.37095048    -0.95268464     1.70548242    -0.00552807    -0.00278392    -0.00152711
H        -0.79198805     0.61565309     1.96330804     0.00338972     0.00319013    -0.00074003
H        -0.90131547    -0.62900408    -0.70487907     0.00187670    -0.00549346     0.00140985
     6
  Step:    41            Position(A)                                  Velocity(au)
C        -0.02997915    -0.00176561    -0.14213607     0.00017169     0.00039475    -0.00015789
N        -0.01500991    -0.03729090     1.44485828     0.00007903    -0.00011225     0.00008877
H         0.67183193     0.89178000    -0.44831849    -0.00400370     0.00205158     0.00126692
H         0.30984851    -0.98300434     1.68998566    -0.00566698    -0.00275962    -0.00130431
H        -0.75111558     0.64847261     1.95381360     0.00406457     0.00280650    -0.00098317
H        -0.87769283    -0.68782599    -0.68796924     0.00246208    -0.00524254     0.00166846
     6
  Step:    42            Position(A)                                  Velocity(au)
C        -0.02815447     0.00268134    -0.14347987     0.00015874     0.00041375    -0.00008049
N        -0.01436808    -0.03845590     1.44542969     0.00004212    -0.00010329     0.00001053
H         0.62575600     0.91232098    -0.43478459    -0.00439010     0.00172671     0.00118439
H         0.24697441    -1.01305670     1.67694812    -0.00583970    -0.00270297    -0.00108114
H        -0.70306781     0.67705057     1.94179941     0.00468153     0.00242537    -0.00119047
H        -0.84745278    -0.74369461    -0.66837834     0.00307151    -0.00494419     0.00190011
     6
  Step:    43            Position(A)                                  Velocity(au)
C        -0.02650650     0.00728605    -0.14389687     0.00013967     0.00042249     0.00001070
N        -0.01408856    -0.03955055     1.44508854     0.00001306    -0.00010203    -0.00007775
H         0.57579008     0.92955511    -0.42240779    -0.00470847     0.00145730     0.00105559
H         0.18209382    -1.04213699     1.66633369    -0.00602630    -0.00256071    -0.00086459
H        -0.64869824     0.70153223     1.92776981     0.00520779     0.00207535    -0.00134124
H        -0.81049772    -0.79598964    -0.64640068     0.00368113    -0.00458870     0.00210325
     6
  Step:    44            Position(A)                                  Velocity(au)
C        -0.02509888     0.01192420    -0.14324569     0.00011513     0.00041891     0.00011440
N        -0.01408236    -0.04068795     1.44372867    -0.00000796    -0.00011315    -0.00017580
H         0.52274930     0.94420231    -0.41169155    -0.00494924     0.00126499     0.00088097
H         0.11513753    -1.06907711     1.65803361    -0.00621022    -0.00230038    -0.00065990
H        -0.58913749     0.72245276     1.91245723     0.00562265     0.00179402    -0.00141541
H        -0.76692097    -0.84408128    -0.62236574     0.00427553    -0.00417802     0.00227418
     6