     6
  Step:   300            Position(A)                                  Velocity(au)
C        -0.03268877     0.00823202     0.01936666     0.00005084    -0.00000505    -0.00007198
N        -0.04429061    -0.04957195     1.29595268    -0.00012084    -0.00001983     0.00005092
H         0.07431533     0.97309552    -0.47218080    -0.00051693     0.00029918     0.00016469
H        -0.26103758    -0.91713341     1.79625787    -0.00000112     0.00013748     0.00052973
H         0.10249106     0.78227404     1.87170523     0.00110383    -0.00004910    -0.00026335
H        -0.12370881    -0.91724523    -0.54352255     0.00048765    -0.00005193    -0.00028094
