     6
  Step:     0            Position(A)                                  Velocity(au)
C        -0.03708417     0.00358292     0.00270437    -0.00007175     0.00007266    -0.00026464
N        -0.05294908    -0.05943802     1.31344320     0.00022547    -0.00005217     0.00022688
H         0.93387238     0.06638432    -0.51006069    -0.00008353    -0.00037870     0.00051330
H         0.90410407    -0.07888852     1.80435948    -0.00155936     0.00027767    -0.00070102
H        -0.91062818     0.01186617     1.82791463    -0.00086755     0.00004391     0.00043235
H        -0.96258936     0.11413794    -0.51446682     0.00023219    -0.00008377    -0.00024393
     6
  Step:     1            Position(A)                                  Velocity(au)
C        -0.03745138     0.00397745     0.00121596    -0.00006281     0.00007152    -0.00027809
N        -0.05166137    -0.05973223     1.31474514     0.00024307    -0.00005524     0.00024801
H         0.93351829     0.06435065    -0.50747448    -0.00004200    -0.00036478     0.00042981
H         0.89511487    -0.07735978     1.80046626    -0.00170866     0.00028088    -0.00071196
H        -0.91565734     0.01215464     1.83062334    -0.00095752     0.00006036     0.00054890
H        -0.96173573     0.11374147    -0.51622454     0.00007878    -0.00006108    -0.00039938
     6
  Step:     2            Position(A)                                  Velocity(au)
C        -0.03777138     0.00436548    -0.00033836    -0.00005455     0.00007021    -0.00028840
N        -0.05028952    -0.06004246     1.31615678     0.00025559    -0.00005793     0.00026649
H         0.93341286     0.06239305    -0.50535796     0.00000677    -0.00035045     0.00034149
H         0.88540879    -0.07581530     1.79656958    -0.00181604     0.00028304    -0.00069986
H        -0.92110490     0.01252661     1.83392046    -0.00101802     0.00007424     0.00064585
H        -0.96172744     0.11346958    -0.51883664    -0.00007450    -0.00003844    -0.00055412
     6
  Step:     3            Position(A)                                  Velocity(au)
C        -0.03804865     0.00474618    -0.00194183    -0.00004723     0.00006873    -0.00029557
N        -0.04886284    -0.06036655     1.31766306     0.00026236    -0.00006019     0.00028191
H         0.93359241     0.06051350    -0.50373544     0.00006127    -0.00033567     0.00024929
H         0.87523058    -0.07426071     1.79280335    -0.00187485     0.00028405    -0.00066170
H        -0.92680387     0.01296754     1.83769486    -0.00104690     0.00008536     0.00072156
H        -0.96255150     0.11332060    -0.52229171    -0.00022268    -0.00001641    -0.00070460
     6
  Step:     4            Position(A)                                  Velocity(au)
C        -0.03828899     0.00511876    -0.00357776    -0.00004106     0.00006711    -0.00029965
N        -0.04741401    -0.06070210     1.31924647     0.00026292    -0.00006197     0.00029385
H         0.93408437     0.05871413    -0.50262573     0.00011968    -0.00032048     0.00015446
H         0.86486039    -0.07270211     1.78931735    -0.00187963     0.00028390    -0.00059517
H        -0.93257894     0.01346211     1.84182874    -0.00104352     0.00009361     0.00077531
H        -0.96416799     0.11328972    -0.52655907    -0.00036084     0.00000442    -0.00084730
     6
  Step:     5            Position(A)                                  Velocity(au)
C        -0.03849921     0.00548257    -0.00522990    -0.00003622     0.00006538    -0.00030083
N        -0.04597787    -0.06104655     1.32088743     0.00025703    -0.00006328     0.00030202
H         0.93490560     0.05699683    -0.50204056     0.00017993    -0.00030502     0.00005845
H         0.85460543    -0.07114546     1.78627261    -0.00182692     0.00028270    -0.00049898
H        -0.93825435     0.01399468     1.84620235    -0.00100869     0.00009902     0.00080731
H        -0.96651097     0.11336910    -0.53158914    -0.00048453     0.00002352    -0.00097900
     6
  Step:     6            Position(A)                                  Velocity(au)
C        -0.03868692     0.00583713    -0.00688301    -0.00003280     0.00006359    -0.00029936
N        -0.04459001    -0.06139736     1.32256479     0.00024477    -0.00006413     0.00030627
H         0.93606128     0.05536285    -0.50198354     0.00023988    -0.00028946    -0.00003719
H         0.84478787    -0.06959601     1.78383501    -0.00171591     0.00028068    -0.00037319
H        -0.94366150     0.01454999     1.85069867    -0.00094454     0.00010171     0.00081858
H        -0.96949153     0.11354818    -0.53731546    -0.00059007     0.00004046    -0.00109705
     6
  Step:     7            Position(A)                                  Velocity(au)
C        -0.03886003     0.00618216    -0.00852324    -0.00002985     0.00006519    -0.00035096
N        -0.04328508    -0.06175208     1.32425681     0.00022655    -0.00006756     0.00035031
H         0.93754452     0.05381241    -0.50244966     0.00025714    -0.00022853    -0.00008715
H         0.83572841    -0.06805762     1.78216706    -0.00157456     0.00023157    -0.00023374
H        -0.94864544     0.01511362     1.85520774    -0.00082941     0.00015539     0.00079542
H        -0.97300245     0.11381421    -0.54365803    -0.00064578     0.00000347    -0.00116052
     6
  Step:     8            Position(A)                                  Velocity(au)
C        -0.03901567     0.00655525    -0.01074895    -0.00002680     0.00007016    -0.00045769
N        -0.04209445    -0.06214151     1.32642363     0.00020242    -0.00007359     0.00043604
H         0.93889385     0.05284550    -0.50294358     0.00022860    -0.00014361    -0.00009194
H         0.82744332    -0.06704515     1.78126029    -0.00140659     0.00015881    -0.00008653
H        -0.95279785     0.01626168     1.85946060    -0.00066552     0.00023748     0.00073810
H        -0.97660504     0.11358640    -0.55009914    -0.00065008    -0.00006622    -0.00116510
     6
  Step:     9            Position(A)                                  Velocity(au)
C        -0.03915564     0.00695623    -0.01357258    -0.00002427     0.00007488    -0.00056194
N        -0.04105198    -0.06256390     1.32906731     0.00017271    -0.00007909     0.00051802
H         0.94006651     0.05222812    -0.50346399     0.00019500    -0.00008728    -0.00009681
H         0.82021069    -0.06630562     1.78121243    -0.00118932     0.00011684     0.00007845
H        -0.95598754     0.01773350     1.86335052    -0.00048269     0.00028657     0.00066517
H        -0.98017422     0.11308369    -0.55651158    -0.00063375    -0.00010937    -0.00114931
     6
  Step:    10            Position(A)                                  Velocity(au)
C        -0.03928400     0.00738290    -0.01696031    -0.00002249     0.00007904    -0.00065771
N        -0.04018544    -0.06301572     1.33214955     0.00013859    -0.00008382     0.00059117
H         0.94104925     0.05188077    -0.50401370     0.00016007    -0.00004253    -0.00010235
H         0.81429726    -0.06575365     1.78212746    -0.00092837     0.00008714     0.00025908
H        -0.95813323     0.01942927     1.86681303    -0.00028923     0.00032047     0.00058259
H        -0.98361018     0.11237750    -0.56280293    -0.00060029    -0.00014215    -0.00111718
     6
  Step:    11            Position(A)                                  Velocity(au)
C        -0.03940490     0.00783201    -0.02086031    -0.00002143     0.00008246    -0.00074197
N        -0.03951635    -0.06349267     1.33561781     0.00010140    -0.00008764     0.00065323
H         0.94184019     0.05175682    -0.50459803     0.00012568    -0.00000507    -0.00010891
H         0.80992385    -0.06534002     1.78408312    -0.00063472     0.00006490     0.00044888
H        -0.95919236     0.02128454     1.86980598    -0.00009252     0.00034388     0.00049437
H        -0.98682578     0.11150865    -0.56889057    -0.00055211    -0.00016843    -0.00107041
     6
  Step:    12            Position(A)                                  Velocity(au)
C        -0.03952220     0.00829932    -0.02520660    -0.00002101     0.00008497    -0.00081240
N        -0.03905851    -0.06398974     1.33940955     0.00006274    -0.00009043     0.00070266
H         0.94244612     0.05182443    -0.50522416     0.00009336     0.00002707    -0.00011677
H         0.80724300    -0.06503235     1.78711634    -0.00032299     0.00004777     0.00063928
H        -0.95916148     0.02325115     1.87230743     0.00009994     0.00035911     0.00040433
H        -0.98974639     0.11050558    -0.57469954    -0.00049185    -0.00018979    -0.00101071
     6
  Step:    13            Position(A)                                  Velocity(au)
C        -0.03963925     0.00877974    -0.02992156    -0.00002113     0.00008648    -0.00086742
N        -0.03881653    -0.06450135     1.34345513     0.00002442    -0.00009215     0.00073873
H         0.94288145     0.05205875    -0.50590051     0.00006440     0.00005487    -0.00012609
H         0.80632132    -0.06480716     1.79121351    -0.00001013     0.00003444     0.00082077
H        -0.95807761     0.02528998     1.87431575     0.00028074     0.00036774     0.00031636
H        -0.99231170     0.10939177    -0.58016374    -0.00042256    -0.00020695    -0.00094034
     6
  Step:    14            Position(A)                                  Velocity(au)
C        -0.03975879     0.00926769    -0.03491986    -0.00002167     0.00008697    -0.00090668
N        -0.03878509    -0.06502168     1.34768166    -0.00001179    -0.00009285     0.00076169
H         0.94316725     0.05243889    -0.50663613     0.00003989     0.00007895    -0.00013697
H         0.80712955    -0.06464674     1.79630713     0.00028670     0.00002401     0.00098445
H        -0.95601779     0.02736901     1.87584998     0.00044323     0.00037122     0.00023426
H        -0.99447811     0.10818824    -0.58522926    -0.00034772    -0.00022038    -0.00086237
     6
  Step:    15            Position(A)                                  Velocity(au)
C        -0.03988291     0.00975754    -0.04011475    -0.00002255     0.00008658    -0.00093139
N        -0.03894908    -0.06554516     1.35201828    -0.00004433    -0.00009269     0.00077311
H         0.94332992     0.05294629    -0.50744039     0.00002058     0.00009980    -0.00014953
H         0.80954446    -0.06453721     1.80228100     0.00055276     0.00001589     0.00112385
H        -0.95309475     0.02946335     1.87694939     0.00058242     0.00037122     0.00016147
H        -0.99622087     0.10691426    -0.58985868    -0.00027100    -0.00023062    -0.00078063
     6
  Step:    16            Position(A)                                  Velocity(au)
C        -0.04001315     0.01024438    -0.04542663    -0.00002368     0.00008554    -0.00094436
N        -0.03928521    -0.06606725     1.35640287    -0.00007215    -0.00009198     0.00077571
H         0.94339944     0.05356468    -0.50832291     0.00000684     0.00011802    -0.00016396
H         0.81336504    -0.06446754     1.80898499     0.00077802     0.00000958     0.00123607
H        -0.94944765     0.03155664     1.87767153     0.00069573     0.00036966     0.00010073
H        -0.99753513     0.10558665    -0.59403536    -0.00019576    -0.00023845    -0.00069932
     6
  Step:    17            Position(A)                                  Velocity(au)
C        -0.04015061     0.01072466    -0.05079167    -0.00002501     0.00008416    -0.00094934
N        -0.03976486    -0.06658505     1.36078845    -0.00009476    -0.00009108     0.00077284
H         0.94340724     0.05428058    -0.50929414    -0.00000135     0.00013431    -0.00018059
H         0.81834080    -0.06442894     1.81625605     0.00095802     0.00000468     0.00132173
H        -0.94522885     0.03364273     1.87808819     0.00078285     0.00036856     0.00005380
H        -0.99843415     0.10421839    -0.59776517    -0.00012463    -0.00024476    -0.00062216
     6
  Step:    18            Position(A)                                  Velocity(au)
C        -0.04029612     0.01119653    -0.05616686    -0.00002651     0.00008271    -0.00094990
N        -0.04035727    -0.06709767     1.36514627    -0.00011211    -0.00009032     0.00076751
H         0.94338411     0.05508412    -0.51036596    -0.00000428     0.00014940    -0.00019973
H         0.82420344    -0.06441457     1.82393813     0.00109260     0.00000084     0.00138339
H        -0.94059104     0.03572623     1.87828020     0.00084475     0.00036966     0.00002163
H        -0.99894515     0.10281763    -0.60107408    -0.00005926    -0.00025041    -0.00055177
     6
  Step:    19            Position(A)                                  Velocity(au)
C        -0.04045025     0.01165960    -0.06152870    -0.00002811     0.00008135    -0.00094828
N        -0.04103209    -0.06760598     1.36946384    -0.00012435    -0.00008989     0.00076153
H         0.94335891     0.05596931    -0.51155175    -0.00000232     0.00016387    -0.00022155
H         0.83069087    -0.06441947     1.83189301     0.00118352    -0.00000225     0.00142349
H        -0.93568036     0.03782112     1.87833265     0.00088226     0.00037413     0.00000454
H        -0.99910400     0.10138797    -0.60400200    -0.00000050    -0.00025591    -0.00048929
     6
  Step:    20            Position(A)                                  Velocity(au)
C        -0.04061325     0.01211434    -0.06686615    -0.00002971     0.00008007    -0.00094511
N        -0.04176032    -0.06811192     1.37373856    -0.00013162    -0.00008984     0.00075537
H         0.94335788     0.05693306    -0.51286567     0.00000405     0.00017801    -0.00024592
H         0.83755699    -0.06443997     1.83999925     0.00123258    -0.00000480     0.00144315
H        -0.93063656     0.03994749     1.87833147     0.00089532     0.00038245     0.00000260
H        -0.99895075     0.09993021    -0.60659472     0.00005116    -0.00026138    -0.00043477
     6
  Step:    21            Position(A)                                  Velocity(au)
C        -0.04078487     0.01256125    -0.07217152    -0.00003120     0.00007880    -0.00093981
N        -0.04251424    -0.06861763     1.37797004    -0.00013400    -0.00009009     0.00074846
H         0.94340446     0.05797383    -0.51432100     0.00001433     0.00019181    -0.00027237
H         0.84457091    -0.06447356     1.84814433     0.00124128    -0.00000700     0.00144238
H        -0.92559819     0.04212788     1.87836191     0.00088310     0.00039457     0.00001565
H        -0.99852783     0.09844462    -0.60889793     0.00009521    -0.00026658    -0.00038772
     6
  Step:    22            Position(A)                                  Velocity(au)
C        -0.04096413     0.01300046    -0.07743399    -0.00003244     0.00007744    -0.00093142
N        -0.04326708    -0.06912489     1.38215476    -0.00013162    -0.00009053     0.00073993
H         0.94351903     0.05908992    -0.51592833     0.00002794     0.00020516    -0.00030022
H         0.85151470    -0.06451872     1.85621827     0.00121155    -0.00000897     0.00142111
H        -0.92070649     0.04438426     1.87850743     0.00084501     0.00041016     0.00004320
H        -0.99788011     0.09693266    -0.61095443     0.00013106    -0.00027116    -0.00034760
     6
  Step:    23            Position(A)                                  Velocity(au)
C        -0.04114933     0.01343144    -0.08263742    -0.00003328     0.00007589    -0.00091913
N        -0.04399320    -0.06963486     1.38628431    -0.00012476    -0.00009106     0.00072904
H         0.94371841     0.06027910    -0.51769439     0.00004417     0.00021789    -0.00032871
H         0.85818450    -0.06457436     1.86411261     0.00114641    -0.00001077     0.00138001
H        -0.91610323     0.04673662     1.87884729     0.00078157     0.00042879     0.00008421
H        -0.99705520     0.09539775    -0.61280374     0.00015812    -0.00027480    -0.00031404
     6
  Step:    24            Position(A)                                  Velocity(au)
C        -0.04133803     0.01385318    -0.08776130    -0.00003362     0.00007411    -0.00090262
N        -0.04466889    -0.07014809     1.39034618    -0.00011388    -0.00009162     0.00071541
H         0.94401536     0.06153816    -0.51962164     0.00006225     0.00022988    -0.00035712
H         0.86439565    -0.06463974     1.87172395     0.00105021    -0.00001246     0.00132084
H        -0.91192480     0.04920217     1.87945365     0.00069476     0.00045004     0.00013708
H        -0.99610347     0.09384503    -0.61448300     0.00017599    -0.00027731    -0.00028682
     6
  Step:    25            Position(A)                                  Velocity(au)
C        -0.04152725     0.01426446    -0.09278329    -0.00003339     0.00007209    -0.00088203
N        -0.04527332    -0.07066476     1.39432593    -0.00009963    -0.00009217     0.00069910
H         0.94441814     0.06286308    -0.52170857     0.00008134     0.00024107    -0.00038484
H         0.86998943    -0.06471439     1.87895950     0.00092843    -0.00001404     0.00124632
H        -0.90829381     0.05179528     1.88038816     0.00058802     0.00047347     0.00019964
H        -0.99507700     0.09228064    -0.61602778     0.00018453    -0.00027863    -0.00026578
     6
  Step:    26            Position(A)                                  Velocity(au)
C        -0.04171357     0.01466398    -0.09768199    -0.00003253     0.00006986    -0.00085792
N        -0.04578946    -0.07118481     1.39820939    -0.00008275    -0.00009270     0.00068047
H         0.94493026     0.06424958    -0.52395017     0.00010065     0.00025149    -0.00041144
H         0.87483822    -0.06479761     1.88574206     0.00078712    -0.00001554     0.00115983
H        -0.90531099     0.05452751     1.88169906     0.00046596     0.00049868     0.00026930
H        -0.99402801     0.09071114    -0.61747237     0.00018391    -0.00027885    -0.00025074
     6
  Step:    27            Position(A)                                  Velocity(au)
C        -0.04189339     0.01505070    -0.10243889    -0.00003104     0.00006748    -0.00083104
N        -0.04620469    -0.07170810     1.40198442    -0.00006408    -0.00009322     0.00066008
H         0.94555090     0.06569346    -0.52633922     0.00011944     0.00026123    -0.00043665
H         0.87884819    -0.06488924     1.89201296     0.00063238    -0.00001701     0.00106491
H        -0.90304956     0.05740773     1.88341907     0.00033389     0.00052527     0.00034327
H        -0.99300712     0.08914224    -0.61884981     0.00017463    -0.00027820    -0.00024147
     6
  Step:    28            Position(A)                                  Velocity(au)
C        -0.04206307     0.01542385    -0.10703968    -0.00002892     0.00006502    -0.00080224
N        -0.04651101    -0.07223449     1.40564202    -0.00004442    -0.00009374     0.00063857
H         0.94627514     0.06719103    -0.52886691     0.00013706     0.00027043    -0.00046030
H         0.88195898    -0.06498917     1.89773309     0.00046995    -0.00001848     0.00096501
H        -0.90155136     0.06044210     1.88556431     0.00019741     0.00055279     0.00041864
H        -0.99206165     0.08757854    -0.62019139     0.00015739    -0.00027692    -0.00023762
     6
  Step:    29            Position(A)                                  Velocity(au)
C        -0.04221906     0.01578300    -0.11147462    -0.00002619     0.00006252    -0.00077227
N        -0.04670498    -0.07276387     1.40917672    -0.00002453    -0.00009426     0.00061654
H         0.94709458     0.06873936    -0.53152363     0.00015295     0.00027925    -0.00048231
H         0.88414133    -0.06509733     1.90288204     0.00030492    -0.00001993     0.00086324
H        -0.90082609     0.06363393     1.88813429     0.00006202     0.00058077     0.00049262
H        -0.99123439     0.08602330    -0.62152613     0.00013309    -0.00027524    -0.00023872
     6
  Step:    30            Position(A)                                  Velocity(au)
C        -0.04235803     0.01612801    -0.11573808    -0.00002290     0.00006003    -0.00074179
N        -0.04678735    -0.07329614     1.41258632    -0.00000511    -0.00009477     0.00059449
H         0.94799788     0.07033633    -0.53429940     0.00016666     0.00028782    -0.00050265
H         0.88539342    -0.06521369     1.90745604     0.00014169    -0.00002139     0.00076222
H        -0.90085275     0.06698357     1.89111290    -0.00006719     0.00060867     0.00056261
H        -0.99056260     0.08447841    -0.62288023     0.00010273    -0.00027340    -0.00024424
     6
  Step:    31            Position(A)                                  Velocity(au)
C        -0.04247691     0.01645899    -0.11982796    -0.00001910     0.00005759    -0.00071127
N        -0.04676256    -0.07383113     1.41587135     0.00001325    -0.00009527     0.00057280
H         0.94897139     0.07198058    -0.53718407     0.00017782     0.00029626    -0.00052128
H         0.88573691    -0.06533822     1.91146545    -0.00001601    -0.00002284     0.00066414
H        -0.90158274     0.07048823     1.89446993    -0.00018576     0.00063590     0.00062629
H        -0.99007748     0.08294445    -0.62427657     0.00006741    -0.00027161    -0.00025354
     6
  Step:    32            Position(A)                                  Velocity(au)
C        -0.04257298     0.01677626    -0.12374478    -0.00001485     0.00005522    -0.00068106
N        -0.04663823    -0.07436861     1.41903435     0.00003004    -0.00009572     0.00055173
H         0.94999961     0.07367134    -0.54016746     0.00018614     0.00030465    -0.00053817
H         0.88521320    -0.06547084     1.91493223    -0.00016499    -0.00002429     0.00057081
H        -0.90294389     0.07414191     1.89816305    -0.00028996     0.00066189     0.00068170
H        -0.98980374     0.08142093    -0.62573430     0.00002827    -0.00027001    -0.00026592
     6
  Step:    33            Position(A)                                  Velocity(au)
C        -0.04264394     0.01708025    -0.12749086    -0.00001022     0.00005293    -0.00065138
N        -0.04642458    -0.07490816     1.42207917     0.00004485    -0.00009610     0.00053142
H         0.95106572     0.07540831    -0.54323925     0.00019140     0.00031303    -0.00055326
H         0.88388048    -0.06561147     1.91788786    -0.00030252    -0.00002571     0.00048370
H        -0.90484521     0.07793546     1.90214006    -0.00037685     0.00068606     0.00072727
H        -0.98975935     0.07990645    -0.62726858    -0.00001349    -0.00026874    -0.00028066
     6
  Step:    34            Position(A)                                  Velocity(au)
C        -0.04268791     0.01737150    -0.13106970    -0.00000530     0.00005075    -0.00062238
N        -0.04613389    -0.07544924     1.42501032     0.00005735    -0.00009636     0.00051193
H         0.95215197     0.07719142    -0.54638902     0.00019348     0.00032143    -0.00056652
H         0.88181125    -0.06575992     1.92037160    -0.00042622    -0.00002709     0.00040409
H        -0.90718167     0.08185678     1.90634138    -0.00044436     0.00070790     0.00076188
H        -0.98995544     0.07839893    -0.62889039    -0.00005667    -0.00026789    -0.00029700
     6
  Step:    35            Position(A)                                  Velocity(au)
C        -0.04270351     0.01765056    -0.13448561    -0.00000017     0.00004866    -0.00059416
N        -0.04578006    -0.07599111     1.42783255     0.00006729    -0.00009648     0.00049325
H         0.95324013     0.07902078    -0.54960618     0.00019230     0.00032988    -0.00057791
H         0.87909035    -0.06591594     1.92242929    -0.00053402    -0.00002843     0.00033303
H        -0.90983928     0.08589132     1.91070254    -0.00049128     0.00072702     0.00078485
H        -0.99039628     0.07689573    -0.63060653    -0.00010007    -0.00026755    -0.00031422
     6
  Step:    36            Position(A)                                  Velocity(au)
C        -0.04268987     0.01791805    -0.13774336     0.00000507     0.00004668    -0.00056679
N        -0.04537804    -0.07653294     1.43055049     0.00007453    -0.00009645     0.00047534
H         0.95431193     0.08089661    -0.55288011     0.00018790     0.00033838    -0.00058743
H         0.87581314    -0.06607920     1.92411222    -0.00062418    -0.00002969     0.00027144
H        -0.91269977     0.09002266     1.91515683    -0.00051721     0.00074313     0.00079598
H        -0.99107948     0.07539379    -0.63241971    -0.00014253    -0.00026779    -0.00033160
     6
  Step:    37            Position(A)                                  Velocity(au)
C        -0.04264664     0.01817459    -0.14084805     0.00001033     0.00004481    -0.00054032
N        -0.04494347    -0.07707380     1.43316844     0.00007896    -0.00009625     0.00045815
H         0.95534939     0.08281917    -0.55620024     0.00018036     0.00034695    -0.00059509
H         0.87208370    -0.06624925     1.92547625    -0.00069529    -0.00003088     0.00022004
H        -0.91564514     0.09423326     1.91963765    -0.00052250     0.00075612     0.00079545
H        -0.99199620     0.07388968    -0.63432881    -0.00018293    -0.00026867    -0.00034848
     6
  Step:    38            Position(A)                                  Velocity(au)
C        -0.04257401     0.01842081    -0.14380504     0.00001552     0.00004306    -0.00051481
N        -0.04449218    -0.07761274     1.43569028     0.00008060    -0.00009588     0.00044159
H         0.95633528     0.08478886    -0.55955624     0.00016982     0.00035561    -0.00060097
H         0.86801288    -0.06642559     1.92658079    -0.00074634    -0.00003196     0.00017941
H        -0.91856146     0.09850524     1.92408070    -0.00050813     0.00076597     0.00078384
H        -0.99313172     0.07237966    -0.63632916    -0.00022029    -0.00027025    -0.00036428
     6
  Step:    39            Position(A)                                  Velocity(au)
C        -0.04247266     0.01865734    -0.14661992     0.00002055     0.00004141    -0.00049029
N        -0.04403983    -0.07814884     1.43811941     0.00007949    -0.00009537     0.00042558
H         0.95725339     0.08680619    -0.56293819     0.00015651     0.00036441    -0.00060516
H         0.86371598    -0.06660763     1.92748777    -0.00077670    -0.00003295     0.00014990
H        -0.92134219     0.10282115     1.92842585    -0.00047564     0.00077286     0.00076200
H        -0.99446601     0.07085975    -0.63841304    -0.00025372    -0.00027257    -0.00037850
     6
  Step:    40            Position(A)                                  Velocity(au)
C        -0.04234374     0.01888482    -0.14929852     0.00002535     0.00003988    -0.00046682
N        -0.04360150    -0.07868127     1.44045878     0.00007577    -0.00009472     0.00041007
H         0.95808886     0.08887191    -0.56633682     0.00014066     0.00037339    -0.00060779
H         0.85931034    -0.06679476     1.92826040    -0.00078622    -0.00003383     0.00013166
H        -0.92389082     0.10716477     1.93261863    -0.00042695     0.00077705     0.00073105
H        -0.99597455     0.06932568    -0.64057012    -0.00028250    -0.00027568    -0.00039073
     6
  Step:    41            Position(A)                                  Velocity(au)
C        -0.04218881     0.01910391    -0.15184687     0.00002985     0.00003847    -0.00044443
N        -0.04319143    -0.07920936     1.44271093     0.00006961    -0.00009396     0.00039497
H         0.95882832     0.09098704    -0.56974360     0.00012255     0.00038263    -0.00060901
H         0.85491272    -0.06698638     1.92896191    -0.00077522    -0.00003460     0.00012457
H        -0.92612277     0.11152170     1.93661135    -0.00036427     0.00077892     0.00069222
H        -0.99762920     0.06777302    -0.64278802    -0.00030607    -0.00027963    -0.00040065
     6
  Step:    42            Position(A)                                  Velocity(au)
C        -0.04200975     0.01931523    -0.15427110     0.00003399     0.00003717    -0.00042313
N        -0.04282267    -0.07973257     1.44487803     0.00006123    -0.00009314     0.00038024
H         0.95946005     0.09315312    -0.57315086     0.00010249     0.00039221    -0.00060898
H         0.85063653    -0.06718185     1.92965414    -0.00074452    -0.00003527     0.00012827
H        -0.92796652     0.11587989     1.94036374    -0.00028994     0.00077892     0.00064686
H        -0.99939906     0.06619693    -0.64505285    -0.00032400    -0.00028447    -0.00040802
     6
  Step:    43            Position(A)                                  Velocity(au)
C        -0.04180875     0.01951941    -0.15657742     0.00003774     0.00003597    -0.00040293
N        -0.04250687    -0.08025061     1.44696195     0.00005091    -0.00009228     0.00036582
H         0.95997411     0.09537190    -0.57655197     0.00008077     0.00040217    -0.00060789
H         0.84658899    -0.06738073     1.93039592    -0.00069543    -0.00003588     0.00014211
H        -0.92936429     0.12023006     1.94384328    -0.00020639     0.00077758     0.00059634
H        -1.00125151     0.06459262    -0.64734973    -0.00033605    -0.00029020    -0.00041273
     6
  Step:    44            Position(A)                                  Velocity(au)
C        -0.04158819     0.01971708    -0.15877203     0.00004105     0.00003489    -0.00038382
N        -0.04225404    -0.08076338     1.44896438     0.00003893    -0.00009143     0.00035168
H         0.96036233     0.09764557    -0.57994130     0.00005772     0.00041260    -0.00060591
H         0.84286817    -0.06758270     1.93124157    -0.00062978    -0.00003646     0.00016517
H        -0.93027198     0.12456591     1.94702514    -0.00011599     0.00077543     0.00054198
H        -1.00315294     0.06295519    -0.64966324    -0.00034211    -0.00029685    -0.00041469
     6